<?xml version="1.0"?>
<VTKFile type="UnstructuredGrid" version="0.1" byte_order="LittleEndian" header_type="UInt32" compressor="vtkZLibDataCompressor">
  <UnstructuredGrid>
    <Piece NumberOfPoints="35" NumberOfCells="51">
      <PointData>
        <DataArray type="Float64" Name="nsi_SBC" NumberOfComponents="3" format="ascii" RangeMin="0" RangeMax="0">
          0 0 0 0 0 0
          0 0 0 0 0 0
          0 0 0 0 0 0
          0 0 0 0 0 0
          0 0 0 0 0 0
          0 0 0 0 0 0
          0 0 0 0 0 0
          0 0 0 0 0 0
          0 0 0 0 0 0
          0 0 0 0 0 0
          0 0 0 0 0 0
          0 0 0 0 0 0
          0 0 0 0 0 0
          0 0 0 0 0 0
          0 0 0 0 0 0
          0 0 0 0 0 0
          0 0 0 0 0 0
          0 0 0
          <InformationKey name="L2_NORM_RANGE" location="vtkDataArray" length="2">
            <Value index="0">
              0
            </Value>
            <Value index="1">
              0
            </Value>
          </InformationKey>
        </DataArray>
        <DataArray type="Float64" Name="nsi_SFIXNO" NumberOfComponents="3" format="ascii" RangeMin="0" RangeMax="1.7320508075688772">
          0 0 0 0 0 0
          0 0 0 -1 -1 -1
          -1 -1 -1 0 0 0
          0 0 0 -1 -1 -1
          -1 -1 -1 -1 -1 -1
          -1 -1 -1 -1 -1 -1
          0 0 0 0 0 0
          -1 -1 -1 -1 -1 -1
          -1 -1 -1 -1 -1 -1
          -1 -1 -1 -1 -1 -1
          0 0 0 0 0 0
          -1 -1 -1 0 0 0
          0 0 0 0 0 0
          -1 -1 -1 -1 -1 -1
          0 0 0 -1 -1 -1
          0 0 0 -1 -1 -1
          0 0 0 0 0 0
          0 0 0
          <InformationKey name="L2_NORM_RANGE" location="vtkDataArray" length="2">
            <Value index="0">
              0
            </Value>
            <Value index="1">
              1.7320508076
            </Value>
          </InformationKey>
        </DataArray>
        <DataArray type="Float64" Name="nsi_UBC" NumberOfComponents="3" format="ascii" RangeMin="0" RangeMax="0">
          0 0 0 0 0 0
          0 0 0 0 0 0
          0 0 0 0 0 0
          0 0 0 0 0 0
          0 0 0 0 0 0
          0 0 0 0 0 0
          0 0 0 0 0 0
          0 0 0 0 0 0
          0 0 0 0 0 0
          0 0 0 0 0 0
          0 0 0 0 0 0
          0 0 0 0 0 0
          0 0 0 0 0 0
          0 0 0 0 0 0
          0 0 0 0 0 0
          0 0 0 0 0 0
          0 0 0 0 0 0
          0 0 0
          <InformationKey name="L2_NORM_RANGE" location="vtkDataArray" length="2">
            <Value index="0">
              0
            </Value>
            <Value index="1">
              0
            </Value>
          </InformationKey>
        </DataArray>
        <DataArray type="Float64" Name="nsi_UFIXNO" NumberOfComponents="3" format="ascii" RangeMin="1" RangeMax="1.4142135623730951">
          1 1 0 1 0 0
          0 1 0 -1 -1 0
          -1 -1 0 1 0 0
          0 1 0 -1 -1 0
          -1 -1 0 -1 -1 0
          -1 -1 0 -1 -1 0
          1 0 0 0 1 0
          -1 -1 0 -1 -1 0
          -1 -1 0 -1 -1 0
          -1 -1 0 -1 -1 0
          1 1 0 1 1 0
          -1 -1 0 0 1 0
          1 0 0 0 1 0
          -1 -1 0 -1 -1 0
          1 0 0 -1 -1 0
          0 1 0 -1 -1 0
          1 0 0 0 1 0
          1 1 0
          <InformationKey name="L2_NORM_RANGE" location="vtkDataArray" length="2">
            <Value index="0">
              1
            </Value>
            <Value index="1">
              1.4142135624
            </Value>
          </InformationKey>
        </DataArray>
        <DataArray type="Float64" Name="lev_BC" format="ascii" RangeMin="-1" RangeMax="1">
          -1 0 -1 -1 0 1
          -1 -1 -1 0 -1 -1
          1 -1 -1 -1 1 -1
          0 -1 1 -1 -1 1
          -1 1 -1 0 -1 -1
          1 -1 -1 0 -1
        </DataArray>
        <DataArray type="Float64" Name="lev_FIXNO" format="ascii" RangeMin="0" RangeMax="0">
          0 0 0 0 0 0
          0 0 0 0 0 0
          0 0 0 0 0 0
          0 0 0 0 0 0
          0 0 0 0 0 0
          0 0 0 0 0
        </DataArray>
        <DataArray type="Float64" Name="Velocity" NumberOfComponents="3" format="ascii" RangeMin="0" RangeMax="0.569440210097902">
          0 0 0 0 -0.32430954113935606 0
          -0.5415629753431446 0 0 -0.5693520250306657 -0.01002120101699624 0
          0.1616038469334451 -0.19952218901731006 0 0 -0.3529535243962365 0
          -0.4870526940866289 0 0 -0.443025128639698 0.10117425494069143 0
          -0.47954036474188755 0.11632663554712896 0 0.24805004819545906 -0.17064014903084818 0
          -0.31918242231311356 0.29542063776622446 0 -0.15052447955088005 0.25190324312038764 0
          0 -0.27350258995603755 0 -0.30369028078764754 0 0
          -0.24618239695167562 0.22435862786077937 0 -0.1644512985823804 0.45482155403152147 0
          0.09717238567759615 -0.08358789368227652 0 -0.1554518159470239 0.3858599333810325 0
          0.4264470223497156 0.10978176331101094 0 -0.06443870506761494 0.4804305526867221 0
          0 0 0 0 0 0
          0.052801025888987135 0.4652781869443233 0 0.15973255525631008 0 0
          0 0.31746605788451693 0 0.28346359416095956 0 0
          0.031763501740059784 0.5239525425931889 0 0.5595301135434542 0.10057238127254625 0
          0 0.5243474793371523 0 0.11325337582237306 0.4674308324135433 0
          0.25904108410468557 0 0 0.18969973210631555 0.3285301802905711 0
          0 0.45047449180539634 0 0.4736337554772114 0 0
          0 0 0
          <InformationKey name="L2_NORM_RANGE" location="vtkDataArray" length="2">
            <Value index="0">
              0
            </Value>
            <Value index="1">
              0.5694402101
            </Value>
          </InformationKey>
        </DataArray>
        <DataArray type="Float64" Name="Pressure" format="ascii" RangeMin="-12.53274908413026" RangeMax="454.7053787029881">
          0 -12.53274908413026 13.616629690612037 16.374295803559747 -7.275329160659279 104.86169041642091
          24.469482576430917 26.187244996209706 28.703515301123517 25.787441005348256 36.510213602638785 37.97149113460419
          230.71291016634837 31.71732474601793 36.2531046506114 45.852205907923505 241.30326235776502 41.387366652144166
          52.52858541087626 47.9789658004713 454.7053787029881 34.672592872844575 56.624606436189964 432.51871373128876
          40.017481217104404 358.9491881905064 55.66579948637352 69.29492486563362 48.6013637535154 63.88654588825982
          232.90544983772753 69.26766188234939 63.082385815709635 73.59345704687772 72.93029590293243
        </DataArray>
        <DataArray type="Float64" Name="Sigma" NumberOfComponents="6" format="ascii" RangeMin="0.20711827367232538" RangeMax="28.675483458286376">
          -17.789816378534532 7.439764901847825 0 0.17494337284898348 0 0
          -3.9672970752106975 2.3134989959962855 0 0.5609192671675727 0 0
          -13.502626708571864 5.488764495739143 0 -1.4499131917350214 0 0
          -5.729038612401949 2.6513373303127024 0 -0.7449552252132006 0 0
          -0.20672088094483682 0.1742510958704794 0 -0.14697801632535207 0 0
          0.8945373608084968 -0.16901145125183586 0 0.22726523188802078 0 0
          0.9157980956630442 -5.8669011484776865 0 -1.4801159934238164 0 0
          -4.790639113583115 2.29186450910641 0 -1.9281463845726141 0 0
          5.041697346738231 -5.600843300254681 0 1.4027514267642833 0 0
          -0.0644021205006536 0.19518418458417883 0 0.025563259812331755 0 0
          3.9723051884823724 -5.507848251361263 0 -0.3520946857276356 0 0
          -3.161378245956366 2.568968487342926 0 -1.5467521780704723 0 0
          0.4898506180305213 -0.22525156129760313 0 0.22899752135696042 0 0
          9.14640956696742 -9.326121196215732 0 -0.26674323796931076 0 0
          9.407715026588114 -9.682334849969006 0 -0.27208676320309155 0 0
          -1.0571658223461464 0.7119889239538316 0 -2.0717169840772445 0 0
          0.43592896232284206 -0.14969309094850852 0 0.19751222827462755 0 0
          6.7175485025164505 -7.2049958048248826 0 -0.9993406814973254 0 0
          0.2950415868979903 0.39559594058004977 0 0.18429845489451674 0 0
          2.8794183635747257 -3.053053647591393 0 -1.631792065107034 0 0
          0.4392220968074456 -0.595908450212659 0 -0.03325271449175885 0 0
          10.787236479668007 -10.483308852053758 0 -0.11663826342669642 0 0
          -5.752674522270295 6.131652442849989 0 -2.736812021264875 0 0
          0.18801861469065256 -0.389842522194187 0 -0.090368342668358 0 0
          9.606639397272346 -8.632742446555163 0 0.3873813207615695 0 0
          0.5270253239996021 0.22792217017476957 0 0.22111919590895593 0 0
          -2.794461460993449 1.989221299492685 0 -2.0454758145555045 0 0
          0.06774811557733997 0.6196634777783709 0 0.2548523587717559 0 0
          3.682460702406278 -3.8330032839637775 0 0.7776684902321251 0 0
          -8.565711106634994 11.165168324069711 0 -2.7326921120438366 0 0
          0.2483269798716908 0.5124581670698201 0 0.3458700257308965 0 0
          -13.437084962191761 14.876099019292472 0 -3.372182563310573 0 0
          -12.071441548497285 10.867717473259233 0 0.18555277052264396 0 0
          -0.41587010292914217 1.3457801014461164 0 0.08371665558624292 0 0
          -18.022790141341 21.539913325528296 0 -5.787445119944179 0 0
          <InformationKey name="L2_NORM_RANGE" location="vtkDataArray" length="2">
            <Value index="0">
              0.20711827367
            </Value>
            <Value index="1">
              28.675483458
            </Value>
          </InformationKey>
        </DataArray>
        <DataArray type="Float64" Name="LEVEL" format="ascii" RangeMin="-0.9388683833812184" RangeMax="0.6442873398936602">
          -0.21033223738656504 -0.029024094488409206 -0.37530942268018014 -0.27009872987791117 0.0033544936355858514 0.16663661891021117
          -0.5174534815725114 -0.29901133923482526 -0.4799338222746045 0.006853573049498513 -0.523310474205751 -0.21230855667167525
          0.36278415946647985 -0.7276063053256554 -0.6654082063224093 -0.31955255967344925 0.21597064875934022 -0.49136580030761123
          0.035171080170031774 -0.3284847250650821 0.6442873398936602 -0.9388683833812184 -0.14785449754508148 0.4439375093518331
          -0.6815680335757626 0.28821675912424044 -0.250093231357563 0.04371026809471001 -0.39187911358638644 -0.12440077289439949
          0.14909893981152894 -0.07384233757431409 -0.2481005879201944 0.03072048005285058 -0.11961134173930033
        </DataArray>
      </PointData>
      <CellData>
        <DataArray type="UInt8" Name="vtkGhostType" format="ascii" RangeMin="0" RangeMax="0">
          0 0 0 0 0 0
          0 0 0 0 0 0
          0 0 0 0 0 0
          0 0 0 0 0 0
          0 0 0 0 0 0
          0 0 0 0 0 0
          0 0 0 0 0 0
          0 0 0 0 0 0
          0 0 0
        </DataArray>
      </CellData>
      <Points>
        <DataArray type="Float32" Name="Points" NumberOfComponents="3" format="ascii" RangeMin="0" RangeMax="1.4142135623730951">
          0 1 0 0 0.7799999713897705 0
          0.25 1 0 0.3173084855079651 0.8117569088935852 0
          0.1888372004032135 0.6106976866722107 0 0 0.5199999809265137 0
          0.5 1 0 0.43114039301872253 0.6648067235946655 0
          0.5338732004165649 0.815037190914154 0 0.37767431139945984 0.4413954019546509 0
          0.6174687743186951 0.6476302742958069 0 0.5365368127822876 0.5048667788505554 0
          0 0.25999999046325684 0 0.75 1 0
          0.782043993473053 0.8033316731452942 0 0.6966695785522461 0.4923292100429535 0
          0.32800689339637756 0.19591359794139862 0 0.7909218072891235 0.6301581263542175 0
          0.5597307085990906 0.27817249298095703 0 0.8505734801292419 0.47420310974121094 0
          0 0 0 1 1 0
          0.7649514079093933 0.327553391456604 0 0.23776529729366302 0 0
          1 0.7271645069122314 0 0.4648641049861908 0 0
          0.9007874131202698 0.35183119773864746 0 0.7203437089920044 0.13417460024356842 0
          1 0.4593985974788666 0 0.855294406414032 0.23049800097942352 0
          0.6747748255729675 0 0 0.8903893828392029 0.11795260012149811 0
          1 0.22097820043563843 0 0.8700000047683716 0 0
          1 0 0
          <InformationKey name="L2_NORM_RANGE" location="vtkDataArray" length="2">
            <Value index="0">
              0
            </Value>
            <Value index="1">
              1.4142135624
            </Value>
          </InformationKey>
        </DataArray>
      </Points>
      <Cells>
        <DataArray type="Int64" Name="connectivity" format="ascii" RangeMin="0" RangeMax="34">
          30 33 27 30 27 25
          23 25 16 27 18 25
          20 23 12 18 9 16
          18 16 25 23 16 12
          16 9 12 9 4 12
          4 1 5 4 5 12
          33 34 31 31 34 32
          33 31 27 31 32 29
          29 32 26 31 29 27
          26 32 28 29 26 22
          26 28 19 22 26 19
          29 22 27 22 19 15
          15 19 17 22 15 18
          28 24 17 28 17 19
          15 17 10 10 17 14
          15 10 11 14 17 24
          10 14 8 11 10 7
          15 11 18 8 14 13
          10 8 7 7 8 3
          11 7 9 11 9 18
          18 27 22 3 8 6
          6 8 13 7 3 4
          14 24 21 14 21 13
          0 1 2 9 7 4
          3 6 2 3 2 1
          1 4 3
        </DataArray>
        <DataArray type="Int64" Name="offsets" format="ascii" RangeMin="3" RangeMax="153">
          3 6 9 12 15 18
          21 24 27 30 33 36
          39 42 45 48 51 54
          57 60 63 66 69 72
          75 78 81 84 87 90
          93 96 99 102 105 108
          111 114 117 120 123 126
          129 132 135 138 141 144
          147 150 153
        </DataArray>
        <DataArray type="UInt8" Name="types" format="ascii" RangeMin="5" RangeMax="5">
          5 5 5 5 5 5
          5 5 5 5 5 5
          5 5 5 5 5 5
          5 5 5 5 5 5
          5 5 5 5 5 5
          5 5 5 5 5 5
          5 5 5 5 5 5
          5 5 5 5 5 5
          5 5 5
        </DataArray>
      </Cells>
    </Piece>
  </UnstructuredGrid>
</VTKFile>
