<?xml version="1.0"?>
<VTKFile type="UnstructuredGrid" version="0.1" byte_order="LittleEndian" header_type="UInt32" compressor="vtkZLibDataCompressor">
  <UnstructuredGrid>
    <Piece NumberOfPoints="644" NumberOfCells="2488">
      <PointData>
        <DataArray type="Float64" Name="Velocity" NumberOfComponents="3" format="ascii" RangeMin="0" RangeMax="1.402776335651057">
          1.2213556035529687 0 0 1.2121443438587687 0 0
          1.3350112067181643 0 0 0.8154958699137128 -0.1238165185990731 0.033698326035013576
          1.3160157417121119 0 0 0.8217504084891223 -0.15781143072104126 0
          0.9644316075108305 -0.0610133526031893 0 0.9859506439437731 -0.09887160219854163 0
          1.3722521539161692 0 0 1.365807096427413 0 0
          0.5015455191947547 -0.02769229634875134 0.1144134994254092 0.5108495198803028 -0.022579751814987125 0
          0.8103252972320981 -0.07218551254796277 0 1.3988543631908 0 0
          0.8651989601802086 -0.08119381252529186 0 1.3941741643917365 0 0
          0.5317827686918859 0.06313576092992056 0.07472656098205634 0.551270604882815 0.08933764599572086 0
          1.3557346709185285 0 0 1.3503034503379254 0 0
          0.769167583968397 0.06118884523817777 0 0.8049218383519845 0.08166994082296575 0
          0.7916690034287824 -0.1417539245494667 0 0.5499982771098199 0.006253154443569293 0
          0.8387981200452193 -0.1061769659883944 0 0.5341679180493895 -0.004106591627234626 0
          0.8718243324518032 0.126964482108231 0.04326798333506704 0.8711872981353579 0.13418996170520622 0
          0.9917867508803505 0.04964688879845984 0 0.3279763614861239 -0.11958227459160971 0
          1.0218768649938632 0.06757939042669135 0 0.2588325378297571 -0.12566160740920032 0
          1.112351810545968 0 0 1.102554395581553 0.25628663728396817 0
          1.1154578651142812 0 0 1.1162203355549065 0.26611132409025756 0
          0.7404804027336037 -0.08354430256991287 0 0.7391207985675652 -0.0685954113602829 0
          0.32306541573721326 0.10831417589278874 0 0.3093546610669902 0.118664594235631 0
          0 0 0 0 0 0
          0 0 0 0 0 0
          0 0 0 0 0 0
          0 0 0 0.8314854142891748 0.1044194057236584 0
          0 0 0 0.8459336212031998 0.12767698236658423 0
          0 0 0 0.897425569962115 0.360983113083424 0
          0 0 0 0 0 0
          0.900285681196708 0.39076322699073446 0 0 0 0
          0 0 0 0.5952462181441173 0.13572637291094372 -0.002420804927988575
          0 0 0 0 0 0
          0 0 0 0 0 0
          0 0 0 0 0 0
          0.7275617344683092 0.08330102584806484 0 0 0 0
          0.7324195128436377 0.07508751519415009 0 0 0 0
          0 0 0 0 0 0
          0 0 0 0 0 0
          0 0 0 0 0 0
          0 0 0 0 0 0
          0 0 0 0 0 0
          1.2337005064102937 0 0 1 0 0
          1.2380821401992053 0 0 1.0000000000000002 0 0
          1.3380405337429027 0 0 1.0000000000000009 0 0
          1.356950527249257 0 0 1 0 0
          0.5403339535803525 0.23253178032338306 0 0.8571714697106511 -0.35401882463993334 0
          0.6232850709629784 0.21126145585620762 0 0.8885303544177391 -0.4054746403030837 0
          1 0 0 0.5743828813249057 -0.24103542222715318 0
          1.0000000000000002 0 0 1.3697814313516516 0 0
          0.6032723857589528 -0.25954254784806624 0 1.3662826979425688 0 0
          1.1252363490559765 -0.25919378679784677 0 1.1199433407537962 -0.2947785843359138 0
          1.0000000000000013 0 0 1.0000000000000002 0 0
          1.402776335651057 0 0 1.3971482278411649 0 0
          1.0000000000000002 0 0 1.0000000000000002 0 0
          1.0000000000000002 0 0 1.000000000000001 0 0
          1.3584745491939956 0 0 1.3574661983385137 0 0
          1.0000000000000002 0 0 1.0000000000000002 0 0
          1.110266813244987 0 0 1.0000000000000002 0 0
          1.113816146445725 0 0 1.0000000000000002 0 0
          1.0191558329853183 -0.008626530916317864 0.00013600679758028725 1.0000000000000002 0 0
          1.0000000000000002 0 0 1.2958700168713089 0 0
          1.0967804655162676 -0.10910660442746584 0.01307078653995856 1.207694213282986 0 0
          1.0811186793139083 -0.1124427037010544 0.009206847413054954 1.0936959343554262 -0.10860884527921855 0
          1.2806738271061562 0 0 1.2808809800013958 0 0
          1.3223629622817625 0 0 1.1983946275277906 -0.04174362875151437 0
          1.3621559222052257 0 0 1.182728276808231 -0.03283127802606658 0
          1.1370533321527774 -0.05532639214157647 0 1.131295997899374 -0.040482604972119716 0.03526009171668246
          0.8915010197374307 -0.07598039279944621 0.04335026531106202 0.6105400966329242 -0.10861268508528805 0.08472721765646571
          0.910679337841544 -0.05669075834772225 0.08943216826678144 0.8095335308664154 -0.13819035499329566 0.011892490685759406
          1.3469387820902807 0 0 1.197282737181935 -0.04177450429991708 0
          1.3543391155703102 0 0 1.1392907528265956 -0.054862998251832475 0
          0.8841246445394589 -0.10358827947153344 0 0.6111202331941069 -0.11880710364382813 0.0439806581313626
          0.6181261806828687 -0.1160354202807174 0 0.9781164828137896 -0.09148558006639816 0
          0.724806336901259 -0.08249773989593022 0.17716464470715912 0.9192092944948443 -0.07827810660086974 0
          1.221516672621222 -0.010858565832655835 0 1.2318266939341596 -0.02567693071353985 0
          1.2283830416664854 -0.02013313364810036 0 0.9465555281147617 -0.1251127428566006 0
          0.699402967713694 -0.08460907539995943 0.09053194766809947 0.6737145495138569 -0.06811815773352131 0
          0.9350798342998808 -0.10589281791972363 0 1.3693433347044792 0 0
          1.1668356095329957 -0.03701614788290948 0 1.1581615668345768 -0.03698089336791474 0
          1.389871687420047 0 0 1.1736690739851006 -0.03793866779778187 0
          1.383973951931817 0 0 1.386999388863421 0 0
          0.6644699913217931 0.034634565302760496 0.09459044800750666 0.749920005150456 -0.07544291896004224 0.09742184226802951
          0.7461103305111173 -0.08317112550788296 0.1894084917428423 0.5011910385590175 -0.025394519748354577 0.05317897628785426
          0.5050274068013003 0.030372279899151512 0.05360982928734111 0.6623334963856915 0.04711552418398153 0.1870923328185082
          0.49036796566970703 0.024578620268537583 0.0982397801839483 0.7295394784805367 -0.06846909034287657 0
          0.6398959500608393 0.022000122408137902 0 0.4863940653130205 0.035328752266426976 0
          0.7211457081105651 0.009051773542529583 0 0.839025126856334 -0.07500771140394925 0
          0.6930506377124765 -0.07331608589679878 0 0.7135662126063397 -0.011865799644531914 0
          0.804047103875278 -0.09320266637256301 0 1.1869104447208259 -0.0280154281283051 0
          1.192124485867197 -0.029762086447675067 0 1.1734582792499675 -0.024779196544524238 0
          1.181984401438306 -0.017074096969563562 0 1.3962868300099867 0 0
          1.3941304935277439 0 0 1.396841539892084 0 0
          0.7547723526577939 0.011473429356911091 0 0.8189522601476275 -0.09474362817399629 0
          0.8344780516633858 -0.09549975595930948 0 0.6971338893558767 -0.07942618889537696 0
          1.1985330465037591 -0.02910338125913574 0 0.7022091087041978 -0.07489114737915796 0
          1.3910507269305195 0 0 1.1880746086924312 -0.013176695969695094 0
          0.709351110494196 0.09292378808366732 0.08992030245520433 0.7504370623576632 0.08786418904482307 0.12168432868338006
          0.7204671979552941 0.09444849327493693 0.17037530774668755 0.6565644042619914 0.11072055907176355 0.06618263379190348
          0.7341515378949933 0.09070377978820439 0.06139906421844789 0.5354181547960579 0.0731971419380115 0.030862082045451548
          0.644182887624376 0.13163146006493487 0 0.7114044999015001 0.09590518709790163 0
          0.6564000540737153 0.12358491905574538 0.031346748742269344 0.6791137237495998 0.07938928802232402 0
          1.256971654423828 0.1599649415313846 0 1.2238119769873461 0.050804848156095234 0
          1.2542399378309488 0.15537851792651672 0 1.3543465787222715 0 0
          1.2429735523403644 0 0 1.221419007673096 0.06050688826773916 0
          1.2462396550112873 0 0 1.2431379243617529 0.14185707789065521 0
          1.252635568213742 0 0 1.2191237396097925 0.06035961522072025 0
          0.7923946770870608 0.07424340647035586 0 0.8977904694961454 0.07881521165178848 0
          0.7915120306707003 0.07879417095886485 0 1.1448675897997804 0.04481671687928121 0
          0.6846508524491107 0.05803464052210947 0 1.1161399916025845 0.03551623871506165 0
          0.9140892350300267 0.09987325339074407 0 1.1262035446475953 0.036445263411875935 0
          1.1517529503602892 0.046090980889214435 0 1.133375289985972 0.03710175251319779 0
          0.7935964541937575 0.08376030823302867 0 0.9260656260106176 0.11131245216325174 0
          0.680883645875644 0.05818640093495093 0 0.797768697182157 0.09033261913954876 0
          0.698045182616058 0.05860395886638133 0 1.1578343920790017 0.04490111655018442 0
          0.996686956628217 0.0356003758976444 0 0.9992515499813515 0.0433369550993794 0
          0.8163046800763187 -0.12066324728415759 0 0.7622671811575009 -0.1276420861785857 0
          0.5542671258796154 -0.12474019349197411 0 0.5748483208023006 -0.16620345066263043 0
          0.5677668893291425 -0.12326760843361957 0 0.577962370292932 0.0989581346423736 0
          0.5670798793665696 0.11228693322563149 0 0.5451449148810371 0.0035094413669572474 0
          0.41392396276882826 0.04701014090519578 0 0.4110646188056577 -0.04494480039587221 0
          0.5497523260401725 -0.12578204726063796 0 0.5619564724981613 -0.1721278468677459 0
          0.5873817446590577 -0.1638845683006563 0 1.0100795003399516 0.042834401270873144 0
          0.7901112187754719 -0.12084447204803107 0 0.7835551125801182 -0.10348775418875751 0
          0.39189946105115464 -0.05265324006340648 0 0.40275725271677854 -0.06769310105001933 0
          0.5641311602736103 0.11220801311508717 0 0.417057087833636 0.03603467937304638 0
          0.3821724429842018 0.04204533992140403 0 0.8687450641842535 0.1323296345266833 0.02081666739773512
          0.9401635708615705 0.06990213387391112 0.04083844900998349 1.1651260717661172 0.04440546469509954 0.031334963836171126
          1.1715657894769158 0.048970351363861096 0.06136206718217364 1.121844120367482 0.10748860475224038 0.01102232421841786
          1.1217151907533915 0.09746693189104394 0.018991210249865977 0.9412624668431803 0.055364099455135346 0.08552015754381255
          0.9304230091100507 0.06405786784432486 0 1.1583104297539355 0.04219063005287295 0
          1.1009650288937898 0.10717169355824607 0 1.2240822306633359 0.006267148315196663 0
          1.009988135884798 0.0620515895764775 0 1.2023723120554528 0.023720746617817656 0
          0.30037522736314143 -0.11842013806021251 0 0.14276822729752497 -0.07938787001770661 0
          0.2003717479572771 -0.13664396611723914 0 0.19748462600079705 -0.1419762137750973 0
          0.44627578050617867 -0.18613179190160636 0 0.19227434526897283 -0.1370581762201101 0
          0.2036478887930078 -0.011424817741512681 0 0.12403838395365004 -0.08634955965522852 0
          1.234964960567046 0.011592552544994793 0 1.2300671564146113 0.008816432130866938 0
          1.2229989214424835 0.026185748704062727 0 1.2087932478709065 0.021186454622930968 0
          0.15196829826429198 -0.13217638195698772 0 0.4277395436114811 -0.18177714205352047 0
          0.1596942515222075 -0.13962051029218717 0 0.09579232783283811 -0.08347662124916992 0
          0.11465211817203265 -0.0745595139593119 0 0.18884584560649517 -0.011857226341219338 0
          0.4239817136641765 -0.1818303968117735 0 0.1780172984848483 0.007480787428815085 0
          1.0386349012645306 0 0 1.112257774292984 0 0
          1.0519221375526062 0 0 1.043003310422539 0 0
          1.187194089739901 0.20842179747221973 0 1.1932479388309085 0.2036848763779353 0
          1.0503047066168458 0 0 1.109511164401018 0.2567603663803935 0
          1.1133739234949032 0.28710496873673036 0 1.0604058199661297 0.12171212100334021 0
          1.0954292004399957 0.2955285286104306 0 1.0855021017478923 0.35884255004406745 0
          1.1770086463802973 0.202990266342272 0 1.038394303975831 0 0
          1.0529197271570014 0 0 1.1157680296934296 0.3061585010711447 0
          1.0661025529636823 0.10836888767608284 0 1.0698862634042337 0.1058158122631556 0
          1.0869945344992538 0.29041616482832355 0 1.0701706643413726 0.3542562484379139 0
          1.0901196041141994 0.26667160851676014 0 1.0817500612854918 0.35714713382178537 0
          1.1160426339630538 0.3207357287725024 0 0.8304774910618202 0.0822495802737544 0
          0.4535429773220802 -0.09738766973106226 0 0.48822480974532717 -0.09758397537854167 0
          0.739785005418056 -0.07650637532482517 0 0.41903112214683774 -0.1286899097100003 0
          0.5353767119101223 -0.0590174540069171 0 0.49246340620146356 -0.03116569127405176 0
          0.8285166669594768 0.0926955089725457 0 0.4003694587720154 -0.10736671164222339 0
          0.46589603707638083 -0.08260516676615923 0 0.4981157910700018 -0.02123412460954229 0
          0.5156977612272635 -0.05071325766464397 0 0.8167042083576924 0.10322709431189991 0
          0.1262656310942186 0.0639426560820722 0 0.12824227418994644 0.05570243105370555 0
          0.1796304388384632 0.1215320688996486 0 0.5976913524455166 0.16220211396649795 0
          0.6218125038694591 0.15762389410237804 0 0.3221277556657596 0.10749086623107151 0
          0.194497253616356 0.1277925935678723 0 0.4473755524544903 0.18025573572752834 0
          0.39885215447767586 0.17418886951747764 0.0019086220793545342 0.13388834700843305 0.06260556011145425 0
          0.17443629937325777 0.12470230498531826 0 0.12417835430113942 0.06899424104751072 0
          0.6060322673982578 0.17135890914858345 0 0.38786565940222706 0.17624416089731493 -0.0002854275347500424
          0.43658381913796823 0.18132590400746723 0 0 0 0
          0 0 0 0 0 0
          0 0 0 0 0 0
          0 0 0 0 0 0
          0 0 0 0 0 0
          0 0 0 0 0 0
          0 0 0 0 0 0
          0 0 0 0 0 0
          0 0 0 0 0 0
          0 0 0 0 0 0
          0 0 0 0.18710478726499083 0.11502908280966986 0.0061585500011635385
          0 0 0 0 0 0
          0 0 0 0 0 0
          0 0 0 0 0 0
          0 0 0 0 0 0
          0 0 0 0.5034642753557317 0.08356498856843056 0
          0 0 0 0 0 0
          0 0 0 0 0 0
          0 0 0 0 0 0
          0.7815756954826276 0.12631988284183754 0 1.002709080935923 -0.01460802014988352 0
          0.7518983125306395 0.12952581818395426 0.0018005299936094603 1.1776551301323992 0.02115390336107467 0
          0.8375288120432689 0.11648856278590038 0 1.2246655847672006 -0.05763058402139746 0
          0.5709450182847784 0.14688166115404833 0 0 0 0
          0 0 0 0 0 0
          1.0116712826491658 -0.029688534763241986 0 0.7476082162497915 0.14086516238270583 -0.00641298187454538
          1.2257153006587407 -0.047177579427829894 0 1.2265983211164915 -0.0575599448859095 0
          1.1835736778935215 0.024257449334278626 0 1.1880848375250235 0.0221871534596951 0
          0.7785725114856383 0.12207167623842548 0 1.0199661954393413 -0.04638490045027231 0
          0 0 0 0.5979827579192926 0.18255863726446747 0
          0 0 0 0 0 0
          0.5517226756650239 0.24265289218427183 0 0.4927239563616209 0.2834070792112103 0
          0.46563143164204246 0.2802569636198787 0 0.6122426287505641 0.3963984940519675 0
          0.37341865310533 0.25778953488043715 0 0.5738758316155718 0.2088460472259137 0
          1.0577114458300256 0.4045661825573456 0 0.9013086376148387 0.375536099228829 0
          0.9163557209630435 0.42673135768892295 0 0 0 0
          0 0 0 0.419880175011507 0.12021414885734572 0
          0.3399633432270668 0.13388872400886137 -0.012545490203982603 0 0 0
          0.5928556340091715 0.22449076865335518 0 0 0 0
          0 0 0 0 0 0
          0 0 0 1.0269877422235538 0.3825832207183157 0
          1.044524479367854 0.39657181476760406 0 0.9286743885346714 0.4053604453992001 0
          0.5425652770252348 0.30195202510696345 0 0.6282831196750032 0.4114714502096608 0
          0.48591258439711993 0.2910291959513298 0 0.9372440537333061 0.4220505591506393 0
          0.6292233075871262 0.3982615940860304 0 0.5751729211594029 0.25677966858164364 0
          0 0 0 0 0 0
          0 0 0 0 0 0
          0 0 0 0.4134557605205263 0.11474486572598504 0
          0 0 0 0 0 0
          0.3089372541995405 0.14123349108292343 0.004169905574816073 0 0 0
          0.6652078391286151 0.11331614237099003 -0.004971135034666981 1.0216155442051547 -0.0606780922917106 -0.0021207556452022647
          0.3688625606138911 0.13152474017622404 0.010219559512399454 0.4005718874559918 0.06483607804504436 0.0013970608447691135
          0.6626496094945662 0.11264710284953808 0.003871097411112447 0.36260230629552875 0.13138556789540115 -0.0047814278372414094
          1.0242954773634745 -0.08695525791521967 -0.0013444473053972135 0 0 0
          0 0 0 0 0 0
          0 0 0 0 0 0
          0 0 0 0 0 0
          0 0 0 0 0 0
          0 0 0 0 0 0
          0 0 0 0 0 0
          0 0 0 0 0 0
          0 0 0 0.47364544052811736 0.0919899059152587 0
          0 0 0 0 0 0
          0 0 0 0 0 0
          0 0 0 0 0 0
          0 0 0 0 0 0
          0 0 0 0 0 0
          0.47628746425370344 -0.08354661195493625 0 0.482201087862171 0.078414693332409 0
          0 0 0 0 0 0
          0 0 0 0 0 0
          0.31771956815340846 0.25170613263848163 0 0 0 0
          0 0 0 0.33561369683130593 0.27272622958821047 0
          0 0 0 1.053133239823913 -0.10536006082772385 0
          1.0562737685530963 -0.12618082963162203 0 0.5237129131568063 0.06172508384800566 0
          0.8021972457902127 -0.08715889412446157 0 0.5004485819814043 0.033391900013607596 0
          0.7318645760546877 0.07475651843155329 0 0.3355657168902239 0.23758202794366903 0
          0 0 0 0.33834865390219454 0.24215106850107915 0
          0 0 0 0 0 0
          0.8206900066519282 -0.08605747498055484 0 0.5339008483926566 0.05025872339122573 0
          0.49991393858349265 0.02350640020516382 0 0.8005253878988327 -0.08858758940219118 0
          1.0677125442568118 -0.13415920933873549 0 0.563992709264822 -0.1714337112928461 0
          0 0 0 0 0 0
          0.5468858923150505 -0.15537536515788614 0 0 0 0
          0 0 0 0 0 0
          0.2970449817875408 0.20034664096146684 0 0.27605736247219687 0.1928490845108921 0
          0 0 0 0.22260931662741568 -0.0770836864791073 0
          0 0 0 0.5612665164086649 -0.20883896437147145 0
          0 0 0 0 0 0
          0 0 0 0.5511877575688355 -0.2082693753581378 0
          0.26156991738498353 0.13582464839596292 0 0.24338351131496508 -0.14300151430180905 0
          0 0 0 0 0 0
          0.5479080190004804 -0.24804429527270308 0 0 0 0
          0 0 0 0.5353896852831017 -0.25093966058801437 0
          0 0 0 0.2687814640494922 0.1400975416678562 0
          0 0 0 0.28734625350688564 -0.14900286281953615 0
          0 0 0 0.5072445633438415 -0.2755067862379531 0
          0 0 0 0.3198770190666708 -0.2697017561559046 0
          0.2502556738443992 0.077615557898792 0 0.24853172079627325 0.06440572973337332 0
          0.2950230855090794 -0.19344516165605852 0 0 0 0
          0.35629161255044495 -0.2634145210317139 0 0 0 0
          0.318626977546238 -0.21510235416290197 0 0.45531393372409606 -0.2680916049734798 0
          0.3246338481324627 -0.24012343572023137 0 0.3600311124066106 -0.2517705223909315 0
          0.449201835156474 -0.28366613615585246 0 0.48301586172326333 -0.29846465652210236 0
          0.3757581300618848 -0.28602116122703947 0 1.2344197993480566 0 0
          1.3035448859893612 0 0 1.3017417258558228 0 0
          0.999999999999999 0 0 1.0000000000000002 0 0
          1.3105945934063612 0 0 1.0000000000000002 0 0
          1 0 0 1.344570419721089 0 0
          1.3611154664269478 0 0 1.0000000000000002 0 0
          1.0000000000000002 0 0 1.0000000000000002 0 0
          1.3626554143342655 0 0 1.3595377680117215 0 0
          1.0000000000000002 0 0 0.589847523678427 0.23645940975088892 0
          0.8454421914307577 0.06309169245374921 0 0.5058841654130393 -0.0023223065051237676 0
          0.48132923182515397 -0.021930317778916866 0 0.8968150195732882 0.25980778495822243 0
          0.8709697544127281 -0.3779529110351154 0 0.6010180022067603 -0.40068306866465897 0
          0.6302494888278763 -0.39890896073099125 0 0.9332986692114963 -0.41780095370354026 0
          1.0902096792349434 -0.30077463532109777 0 1.1015858348326364 -0.32072761702285685 0
          1.054606628104632 -0.40522914883726185 0 0.8689760180821782 0.06397948779999557 0
          0.5315890124089225 -0.02555780758233866 0 0.9168766707645946 0.20932990870585588 0
          0.8691123733352462 0.02005479620259941 0 0.9253934326007468 0.237034574418718 0
          0.6371419816845448 -0.42295968891652247 0 1.0323448593959819 -0.4084121731275722 0
          1.0305430228946688 -0.39115596685521575 0 1.1014223495239044 -0.33805498251620725 0
          0.9457484996140348 -0.41608355979335937 0 0.9431001381348968 -0.40904989075302944 0
          0.9999999999999998 0 0 1.0000000000000002 0 0
          1.0000000000000002 0 0 0.5913667309380647 -0.240721442714114 0
          0.9342699505861172 -0.24908356722400712 0 0.8313715695921073 -0.07621914468218885 0
          1.0000000000000002 0 0 1.3857977353073174 0 0
          1.3675839054664933 0 0 0.8664249300095398 -0.0901763108601955 0
          0.9284539857031431 -0.24669984883567608 0 0.9165752165426456 -0.24574970856180456 0
          0.8992441803566552 -0.1015892393509343 0 1.38317615254428 0 0
          1.3807188696938586 0 0 1.0860551453216103 -0.36016600888624506 0
          1.1073578504709367 -0.2841560703159724 0 1.1231277271762696 -0.28081506996728267 0
          1.2623201017548853 -0.14460397472183817 0 1.1933876170179751 -0.20478185301589263 0
          1.086907063266718 -0.35815915812175686 0 1.0908322748529935 -0.2830049154889929 0
          1.061449652161506 -0.3580126882273453 0 1.0892151315662972 -0.2708419963671403 0
          1.1873755402062156 -0.21217688438820018 0 1.1786597549463138 -0.21075560921020126 0
          1.2575944791289686 -0.1486390730282926 0 1.2478203982334901 -0.1444975896257612 0
          1.0000000000000002 0 0 1.0000000000000002 0 0
          1.0000000000000009 0 0 1.0000000000000002 0 0
          1.399058002626773 0 0 1.4013266639720758 0 0
          1.3999336215145746 0 0 1.3959011566037414 0 0
          1.0000000000000002 0 0 0.9999999999999988 0 0
          1.0000000000000009 0 0 0.9999999999999998 0 0
          1.0000000000000002 0 0 1.0000000000000002 0 0
          1 0 0 1.0000000000000002 0 0
          1.3583066238107109 0 0 1.2519557837454507 0 0
          1.249962037038171 0 0 1.2589339626130152 0 0
          1.0000000000000002 0 0 1.0000000000000002 0 0
          1.0000000000000002 0 0 1.0000000000000002 0 0
          1.0402917413025021 0 0 1.0341541251466537 0 0
          1.0577224372856364 -0.0038210940243729244 -0.00022887521524415076 1.1099635945006203 0 0
          1.045989828351392 0 0 1.0000000000000002 0 0
          1.0000000000000002 0 0 1.0097356475228598 -0.009778139238155945 -0.0008611707225568061
          1.0000000000000009 0 0 1.033885877585678 0 0
          1.0592068143653592 -0.0030457808352907815 -0.00040044847440073405 1.0467890723856437 0 0
          1.046319925007859 0 0 1.007538836558227 -0.011715282310938512 0.0017787255113780969
          1.0000000000000002 0 0 1.0082167070714618 -0.005867782828158783 0.0004455787990910427
          1.0086822300411336 -0.006471851824844997 -0.00004447192046554833 0.9999999999999988 0 0
          <InformationKey name="L2_NORM_RANGE" location="vtkDataArray" length="2">
            <Value index="0">
              0
            </Value>
            <Value index="1">
              1.4027763357
            </Value>
          </InformationKey>
        </DataArray>
        <DataArray type="Float64" Name="Pressure" format="ascii" RangeMin="-0.294826454187623" RangeMax="11.744246888968314">
          0.05966804111109847 0.03775021428295382 0.897219414847824 -0.2084639965759434 0.8962511291354155 -0.1900266635252203
          0.9714157660595436 1.0208861639409879 2.1976149937561997 2.1830381513516914 -0.28279249852810096 -0.22713832054738942
          2.5093725374690172 3.3970217497444017 2.547367203355785 3.3991150479124426 -0.21953868725942394 -0.16627468534697065
          4.587855331489072 4.588269116082872 1.968483823770143 2.004314364806604 4.275276784245881 3.49534433097695
          4.291914704737538 3.4954488699892434 -0.21156518807679567 -0.19870358953376527 1.049131755904362 3.6949675633699917
          1.0704803846378084 3.6708221634977334 5.460674462277202 5.934988483173389 5.488617942489746 5.949661187883741
          4.904176718640513 4.911581853685806 3.6468440910527433 3.6926073599996148 3.314623518962095 3.573651722824463
          2.8197552974283884 3.027488509466762 4.0712165274085725 4.126952070799852 3.02993366588379 4.19080686085245
          5.375323826781172 4.189782105783106 5.789135995328543 7.501372838719042 3.3155896593519025 6.342558441762862
          7.650805477388353 8.10158580805667 3.263620671991119 4.288666465559659 0 3.75496396549085
          0 4.1919583921351915 9.818095181717856 9.704016476710741 5.037317663423855 10.138595830469011
          4.876920782903425 5.850161703188792 5.336612303162953 11.289918763304732 6.425124508331416 11.5389984990366
          8.098610640920121 11.703781150121914 9.60103284545039 11.320239353581675 10.089616855913325 9.898625718154607
          0.02676372634321093 5.693150102455476 0.05734369512091827 5.649096467996011 0.9032547219591519 6.536229490586382
          0.9091691020554574 6.552754203950237 10.242901302424233 7.530879691754378 10.191813799733842 7.664241856935012
          7.735706971519906 10.116345351709388 7.688317548822951 2.138878748892091 10.2022625027039 2.1242590900569307
          6.001215906908863 6.026962063957757 9.675032704136745 9.55147933706491 3.2666554438661453 3.266459535146784
          10.8364440981975 10.643025232244302 9.475663315209088 9.402979359505212 4.479757241441989 4.4767758437504
          7.669420711799683 7.629030236942608 5.406382986124795 6.582011985092892 5.444609295280322 6.612748425466607
          5.767486868978978 5.691990942257409 5.642845653633213 0.36383889919298534 -0.06759696099644269 0.045413439224441465
          -0.07483857311838416 -0.06752942480151243 0.36251447024819977 0.3832427962017612 0.9029240095168554 0.9655646814857269
          1.5470830879996802 0.9583287294665753 0.32832654028863356 0.3066116778625394 0.3122154322668801 -0.294826454187623
          0.283200262650409 -0.1939347002456104 1.5533701997212581 0.9680283826706978 1.5496873153585098 0.3448799046411648
          0.3279505289250159 -0.26543653444572574 -0.24860406804888985 1.0069260776969513 0.1004166672416842 1.7273256936242893
          1.6759214124689918 1.6633309447501263 1.667224590526139 1.7551262049228196 0.16278789450390133 0.17373318760034878
          1.7448837133569706 2.189141767167011 2.4261294672779026 2.428622250726089 2.774214791629319 2.420987102908636
          2.78084340493822 2.775009166887613 0.551362074102769 0.8136442384649012 0.7550836084495239 -0.2400040525418599
          -0.21823921735311264 0.4692270975630099 -0.2737465079030999 0.8158357040426109 0.5613918632095898 -0.20687293599270504
          2.1064984251144816 2.5363837472418855 3.0329147481279795 2.0659379490501477 3.4361853712189547 3.046731778413876
          3.0439572213551815 3.9162194376039285 3.918341097031668 4.016439445378239 4.008937624925613 3.3993239813004146
          2.1194453612787263 3.4357974075333573 3.4360779166221485 3.0116553507940287 3.0454883220533344 3.0302210342117664
          3.9996771421173016 3.919431358919182 0.6393656650906875 0.2131966161903477 0.5780771441697715 -0.23566250066392624
          0.26145433137873997 -0.18107565965349823 -0.22119310119221683 0.26985022633100403 -0.21295765452008059 0.6407383008990266
          5.155134200892803 4.558742525207692 5.154518213901458 4.589389586718375 5.086810244778828 4.573480331885277
          5.090615862948271 5.1360367587432165 5.0971738221320795 4.574966343142889 1.993172101012338 1.5575073712481677
          3.098194589816387 2.7261663738703783 2.7658764933230504 2.1814801948830174 1.574606985432325 2.1814356175136163
          2.725011037228848 2.173678429502258 3.0951085804094216 1.5871380150093632 2.7606125457439776 3.092222305418583
          2.763461996525983 2.727203794317258 5.040468831744956 5.072545924724828 4.284526751695183 4.438437552748908
          3.7945864377398215 4.005936917475153 3.8067261135076342 3.7632074065603356 3.7561818275546353 3.4955763678416183
          3.6071087775539574 3.6445556067479137 3.7807617158539153 3.9248016209279895 3.9774772447180924 5.031107158248864
          4.4300338956110386 4.428707455035688 3.6097230131611013 3.621909900424412 3.746139387557793 3.6148682072102636
          3.5955553926445596 -0.2009997182965447 0.3626089301439872 0.3281981839362896 0.3093491926282041 -0.08322203584609901
          -0.08691386323698425 0.32523446401811296 0.3673022047560275 0.32883304235724803 -0.09724215611864223 1.6733495553985667
          1.068870817211132 0.980613387931411 3.6404865778242286 3.251119813044528 3.5177031661770255 3.2911724735600982
          4.068740222779943 3.139973006288844 3.5481127003872146 3.085557954350575 1.6587774817153151 1.662105251196416
          0.993508428507582 0.9963769072107245 3.4590757829310665 4.080032529248906 3.6147571669062155 3.2919602139213624
          3.3560047488090796 3.5272488832142654 4.020196988986998 3.568632605881795 5.9873938825159945 5.4755429856020355