<?xml version="1.0"?>
<VTKFile type="UnstructuredGrid" version="0.1" byte_order="LittleEndian" header_type="UInt32" compressor="vtkZLibDataCompressor">
  <UnstructuredGrid>
    <Piece NumberOfPoints="644" NumberOfCells="2488">
      <PointData>
        <DataArray type="Float64" Name="Velocity" NumberOfComponents="3" format="ascii" RangeMin="0" RangeMax="1.2953062760734053">
          1.1675266805814237 0 0 1.1665809941719303 0 0
          1.2063961737766533 0 0 1.090583811506542 -0.05837360061223742 -0.008919302363473557
          1.203872300387681 0 0 1.0867508837433804 -0.06340434692811693 0
          1.0855956248564966 -0.03200526080063353 0 1.0824751572997942 -0.02748465524154178 0
          1.2430283084216496 0 0 1.2365447411469657 0 0
          0.8936957292521637 -0.022272805558743416 -0.0012914609948802083 0.8948728796513685 -0.02591823679297815 0
          0.8917879703715649 -0.07701123936406866 0 1.2816613801602095 0 0
          0.9137531756058636 -0.07594445177654201 0 1.2776385832636175 0 0
          0.8930260092640339 0.035108192328610115 -0.002555264374722853 0.8967169154806962 0.04355718320459737 0
          1.26208820946202 0 0 1.2553906294537762 0 0
          0.8591137070017668 0.04355207347939585 0 0.8563335911148444 0.0418052252331808 0
          0.8334258610804158 -0.1541846719485288 0 0.524976127166772 0.011539886373127233 0
          0.8917405154828677 -0.1184574314962311 0 0.5003002714638801 -0.0031039870466561454 0
          1.10068555955198 0.06437698162853084 -0.01682864936769685 1.1007144391909882 0.06980247965870513 0
          1.0900198113098543 0.027856839463085214 0 0.2843457325725318 -0.10430254881949291 0
          1.0836710905294984 0.028165805276245574 0 0.2222518836427912 -0.10706170744621062 0
          1.0539334896104473 0 0 1.1499137503263726 0.26292414558723276 0
          1.056028954486325 0 0 1.1658794880348344 0.2721003323604297 0
          0.7112033882275574 -0.06052193675597304 0 0.7125486043023507 -0.04508448063142516 0
          0.28145962244882305 0.09427312814849827 0 0.26890269243580944 0.10208492710227957 0
          0 0 0 0 0 0
          0 0 0 0 0 0
          0 0 0 0 0 0
          0 0 0 0.8786310851322802 0.12648403752577528 0
          0 0 0 0.8967085513366033 0.14877176667756634 0
          0 0 0 0.8800247286473767 0.37578449453032203 0
          0 0 0 0 0 0
          0.8924077986679867 0.4042797997044737 0 0 0 0
          0 0 0 0.5573206803863094 0.11076954125345034 -0.0018847946480626781
          0 0 0 0 0 0
          0 0 0 0 0 0
          0 0 0 0 0 0
          0.6962795386004924 0.06035113745750194 0 0 0 0
          0.7027568699370818 0.05219454141059356 0 0 0 0
          0 0 0 0 0 0
          0 0 0 0 0 0
          0 0 0 0 0 0
          0 0 0 0 0 0
          0 0 0 0 0 0
          1.1794971647627828 0 0 1 0 0
          1.180710381544884 0 0 1.0000000000000002 0 0
          1.2202067538441912 0 0 0.9999999999999998 0 0
          1.2080531831962529 0 0 1.0000000000000002 0 0
          0.5408674195063862 0.23427774940722199 0 0.8380868064071624 -0.36545244818036327 0
          0.6260008961818547 0.21283399366851544 0 0.8790915660331967 -0.42231475927913414 0
          0.9999999999999998 0 0 0.5736192184082473 -0.2429554074278227 0
          1.0000000000000002 0 0 1.2478814191814147 0 0
          0.606707557219213 -0.26220136328956656 0 1.241151785421664 0 0
          1.1740413981286442 -0.26688267434477836 0 1.1702408973031577 -0.3024968335338448 0
          0.9999999999999998 0 0 1.0000000000000004 0 0
          1.2799817258605364 0 0 1.2747247790375855 0 0
          1.0000000000000002 0 0 1 0 0
          1.0000000000000004 0 0 1.0000000000000004 0 0
          1.2630136235727583 0 0 1.2608705074550002 0 0
          1.0000000000000004 0 0 0.9999999999999998 0 0
          1.0552335492431426 0 0 1.0000000000000002 0 0
          1.0560868250795625 0 0 1.0000000000000002 0 0
          1.011407061329421 -0.0035643839430765972 0.0004261036300718395 1.0000000000000004 0 0
          1.0000000000000002 0 0 1.1910665961008469 0 0
          1.1641004811391988 -0.03714132110091694 -0.014592411834749243 1.1687295076641946 0 0
          1.1587719183083576 -0.037045097728600644 -0.007164749464709484 1.1506244537331796 -0.03820271312584264 0
          1.1927107367314027 0 0 1.1906630035235217 0 0
          1.205911029339275 0 0 1.1767565087380465 -0.016969772934225653 0
          1.224246841119141 0 0 1.1825649594742174 -0.018162681659633226 0
          1.1657062527815674 -0.01974260035245998 0 1.1692705795106597 -0.02103866816355307 -0.00798552617593517
          1.0860743152185983 -0.029264270007069278 -0.007043668890765966 0.9810360467285858 -0.054233118312573686 -0.00541444676508105
          1.0820256188154873 -0.028990462504167553 -0.015290638793529824 1.0905480670106227 -0.06205124582261278 -0.004139540429737259
          1.2198652976079698 0 0 1.1766059217939933 -0.016630880560677817 0
          1.22233691198411 0 0 1.1637708401385152 -0.020148514301089465 0
          1.0855609386612803 -0.029703850896644207 0 0.9845594302788369 -0.057050059220720414 -0.00304705965826301
          0.9855414431967163 -0.06184198048752185 0 1.08395385416964 -0.029466621058862767 0
          0.9638367424966826 -0.027695787749115876 -0.015862305768849713 1.0110732253889738 -0.05349356038037545 0
          1.200517307836284 -0.017861816890253523 0 1.1890019182538947 -0.010263868584155329 0
          1.1935625873890932 -0.01438214553784048 0 1.0161656023876526 -0.051031587293926185 0
          0.9685556819660176 -0.028909078799766504 -0.006528322576456864 0.9694452073793276 -0.030448509470305175 0
          1.0128862924373456 -0.053013332325640254 0 1.2395534700872426 0 0
          1.168234660713951 -0.03630352003233508 0 1.1659556497939743 -0.03681509292641491 0
          1.2614170898031472 0 0 1.1693885554503538 -0.03535273384249543 0
          1.2567397376183413 0 0 1.2589982800980148 0 0
          0.8024308548365764 0.00580692167496742 -0.006199821047169982 0.8844239652040033 -0.03314487255208079 -0.007933487018049636
          0.8801260658734957 -0.035347812630753477 -0.016166635079770175 0.8952118860048686 -0.02416890087096689 -0.0006359969262850764
          0.844356305505791 0.0074321839529098085 0.00020128535954080446 0.8003621516088937 0.002861371900586721 -0.013677406193442172
          0.8412105565135307 0.00956090414403921 0.0005438227751920632 0.8919467571357781 -0.03216265678845655 0
          0.8004781991813941 0.0046100329977211245 0 0.8496448852085277 0.001962394284533314 0
          0.7279947659767064 -0.017130936265119093 0 0.9033850511289435 -0.07595570440896562 0
          0.7143265939441653 -0.0872698525684624 0 0.7250036073686278 -0.010073887129538479 0
          0.8627188836954064 -0.11622276286105421 0 1.1960966553281334 -0.04354999579064014 0
          1.1955374875894733 -0.04168071108480415 0 1.205367545850023 -0.04696072314652712 0
          1.2118071797333074 -0.03955626934470723 0 1.294240559310722 0 0
          1.2919384790974893 0 0 1.2797382929209933 0 0
          0.7323020692101955 -0.016450429245539726 0 0.8786951307743742 -0.11958488229993743 0
          0.8929570976224823 -0.11985419603377309 0 0.703060581634161 -0.1000077428026362 0
          1.197328709947425 -0.04028839263075549 0 0.7236816036824228 -0.09107001033541426 0
          1.2886329000441445 0 0 1.2153340118017202 -0.03376631804851875 0
          0.8735300013922043 0.02286783262452315 -0.008528432246068614 0.976394642825131 0.029237805564278636 -0.013755235664416233
          0.8699575589996786 0.020603259092295007 -0.01669273543635095 0.9957889747928187 0.06477885094187347 -0.006616821569199415
          0.9764078164942473 0.032860869362091344 -0.007736629903312977 0.896789748348972 0.0411183835828505 0.0009759543420337151
          0.996503777952151 0.07812735351074122 0 0.9802076613130255 0.04043505774889738 0
          0.9968894962515042 0.07018312967222287 -0.00240555558349229 0.8737598182890249 0.02725247494310429 0
          1.2741814873512503 0.1534177447729267 0 1.259906760864985 0.044942382271303864 0
          1.2757750106018773 0.15245331041949614 0 1.2605875384702245 0 0
          1.1617670077881848 0 0 1.256167548648816 0.05258702917694656 0
          1.162770472399593 0 0 1.2590231117562078 0.13511960360568503 0
          1.1640030468818325 0 0 1.2528727608484749 0.05175820795165513 0
          0.8567368183022938 0.04260223562594768 0 0.9953008822225661 0.04385437765737971 0
          0.8502909450890824 0.10307933571359809 0 1.1611419227626207 0.050795402220549936 0
          0.7038365686310706 0.06680406889298685 0 1.1441254525705076 0.026430350755770934 0
          0.9952209681714206 0.0395559899983921 0 1.1402777880319759 0.02527808269037556 0
          1.1628670017899287 0.0510381377294487 0 1.1382492871518926 0.020606422399289344 0
          0.8475899007256193 0.10856345257913211 0 0.9973384364781182 0.04023259844003093 0
          0.6881484401010721 0.06640572722366068 0 0.8508032390244671 0.1153903465013436 0
          0.70278658076813 0.06702405406307337 0 1.163813977705139 0.049501588974517195 0
          1.0488494212244526 0.041988444428966536 0 1.0499608793816533 0.050171962182093195 0
          0.8640538100782731 -0.1331523132518742 0 0.7642413105669911 -0.11168965525706803 0
          0.5326054973553416 -0.1432099716572742 0 0.5539089545015605 -0.1588208639676914 0
          0.5474698746833037 -0.14109720961835426 0 0.5589214579643709 0.12111570679248186 0
          0.5433360945740455 0.13429928604857977 0 0.5164162842094588 0.007207401840963431 0
          0.36679997291350674 0.051245599989824156 0 0.36463751079237133 -0.04649788855405082 0
          0.525966990979137 -0.14360681715549273 0 0.5405796455939778 -0.1591675223138397 0
          0.5669269147493495 -0.15276238145554144 0 1.065838614423853 0.05038162016945233 0
          0.7910824421285644 -0.10226993919566514 0 0.7861769507243962 -0.0835055690712716 0
          0.34051863002566907 -0.05176647698208412 0 0.3527213836720791 -0.0689700642637195 0
          0.5376121582197815 0.1333839319878024 0 0.36744343065359664 0.038124022390540774 0
          0.330492403930919 0.047108902835030636 0 1.1001801421416537 0.06802371806331746 -0.008461844660231808
          1.0926259554489173 0.03309429483448432 -0.009978404720412004 1.1749165136701192 0.019941597308642905 -0.009720739182448515
          1.17947158481941 0.019995122684488886 -0.016840509704555015 1.1678641343554206 0.037779461905924565 -0.009471586271750982
          1.1692395128307285 0.03591625778030678 -0.017126203638564652 1.0956980779847958 0.03202460664111665 -0.01643177437739504
          1.0935643856439246 0.032811797107831026 0 1.1768506809459414 0.022252021341581864 0
          1.1706298062450238 0.04337417931016901 0 1.2019349697211965 0.00730588627794814 0
          1.087624364670431 0.027417759809289902 0 1.1890974643984935 0.017269541127571068 0
          0.26043771235578694 -0.10098369833838013 0 0.1152862478271864 -0.061554372991031954 0
          0.17003539622478578 -0.1090425285917976 0 0.16715007094078763 -0.11350104808272556 0
          0.40772834861078544 -0.15641689129846822 0 0.16086413147782566 -0.10900753712766083 0
          0.16061576243666906 -0.010175795676047254 0 0.09927024720989908 -0.06730499260550293 0
          1.1890828678350625 0.010126015560569575 0 1.191978768330192 0.009048200519752816 0
          1.1768126461910386 0.017168055153043243 0 1.1829136419394999 0.01754781624912019 0
          0.12489562684726067 -0.10536353017692718 0 0.3883652900252271 -0.15210405620898002 0
          0.13290131175389291 -0.11273196319470193 0 0.07404218988840451 -0.06522896163177273 0
          0.09099646604582845 -0.057698615930713404 0 0.14848501685806917 -0.009394175650524795 0
          0.3881262967807759 -0.1521465097165803 0 0.1364540264794433 0.005987259539072606 0
          1.029645132588025 0 0 1.0552229297782307 0 0
          1.0244709499066695 0 0 1.029993030163761 0 0
          1.196017596701037 0.1802821915155964 0 1.2048442329410278 0.1806445076771205 0
          1.024443138639077 0 0 1.158095528876024 0.2638727592657346 0
          1.1310449281442192 0.30438524380001103 0 1.0828631508137758 0.14071107136968639 0
          1.1122035823884924 0.28062067920930994 0 1.104719739345658 0.35992905109577156 0
          1.1863653416804696 0.17484534720789816 0 1.0261076503944575 0 0
          1.024419991590504 0 0 1.1343475527318374 0.32472475741741375 0
          1.0870828516638564 0.12696334049652092 0 1.0932674069990742 0.12380813848876705 0
          1.1006036329438385 0.27166628011238825 0 1.08709900268754 0.3457441728425813 0
          1.1039401762884906 0.24491974850850565 0 1.1008502616508404 0.3541511293855136 0
          1.1363011072670304 0.3384485649614055 0 0.8034200811342642 0.09690101002709675 0
          0.41694385022462643 -0.07675399738293101 0 0.4479987594345131 -0.07817813324534814 0
          0.7126985617112139 -0.05327076299351521 0 0.3791030487630448 -0.10500638582821188 0
          0.4956460214914643 -0.04330643922060733 0 0.4582739230096194 -0.018846817173731892 0
          0.8050697188403345 0.1064969313864124 0 0.3624631305111867 -0.08500354224150843 0
          0.42870313947307664 -0.06258407930280857 0 0.46400218909529933 -0.009513097260959629 0
          0.4784260373501137 -0.036778053457954756 0 0.7926128507188065 0.11681100406687228 0
          0.10089450641599337 0.04910957356398798 0 0.10323465079990397 0.04255597098070388 0
          0.1509380657516474 0.09728021682638864 0 0.5787780085756423 0.157418940111121 0
          0.6061579588773238 0.15562450530771818 0 0.280103112351547 0.09302952772600062 0
          0.16648255933494732 0.1021095417137176 0 0.40638448023193774 0.15285183691503984 0
          0.35895282542479023 0.1492353691028457 0.0023364266119426337 0.1068667489573752 0.047859200738480316 0
          0.1459563233143283 0.09906087654503296 0 0.09888076658916095 0.05272341215803862 0
          0.5856704567124461 0.16460036645485404 0 0.3506072042942193 0.15135070211837778 -0.00015848416709078177
          0.3967568675605972 0.15311656165642892 0 0 0 0
          0 0 0 0 0 0
          0 0 0 0 0 0
          0 0 0 0 0 0
          0 0 0 0 0 0
          0 0 0 0 0 0
          0 0 0 0 0 0
          0 0 0 0 0 0
          0 0 0 0 0 0
          0 0 0 0 0 0
          0 0 0 0.1578177269927133 0.08930974056756925 0.006142096830879252
          0 0 0 0 0 0
          0 0 0 0 0 0
          0 0 0 0 0 0
          0 0 0 0 0 0
          0 0 0 0.4757651324139851 0.0882317782889509 0
          0 0 0 0 0 0
          0 0 0 0 0 0
          0 0 0 0 0 0
          0.7847531329156037 0.11696869850010004 0 1.0547607285844178 -0.019467456840469927 0
          0.7521924405562789 0.12236472974008282 0.0019895074558717446 1.2074817902544468 0.04580601912340182 0
          0.8864843632440662 0.13801461845512009 0 1.2617816829842972 -0.0483141532931563 0
          0.5436184022865548 0.15101207338434866 0 0 0 0
          0 0 0 0 0 0
          1.066354309345748 -0.03566181426300815 0 0.7444486704055858 0.13082076353652786 -0.005963151975004228
          1.258102777152319 -0.036222789275653325 0 1.2607918637845963 -0.047141390010408596 0
          1.2111498783457493 0.04827432634261834 0 1.212595012247678 0.04581196337076601 0
          0.780007808471404 0.1088695588268582 0 1.0767853145933188 -0.05383328041896303 0
          0 0 0 0.5736642600239156 0.184326718441721 0
          0 0 0 0 0 0
          0.5315323370834708 0.2433315098478644 0 0.47777525234718177 0.2825888397103655 0
          0.45211405177878156 0.28044089638888675 0 0.6073953351997847 0.40235688460672486 0
          0.3632380379458083 0.25664488126160157 0 0.5511999881447612 0.21240324483107995 0
          1.0643170285473953 0.4128537228698389 0 0.8891293341656542 0.3898464599064101 0
          0.9136318445546672 0.43179902105874457 0 0 0 0
          0 0 0 0.3773433895718765 0.09630339469866249 0
          0.3016922883569306 0.10662065319006837 -0.01118240140583054 0 0 0
          0.5718614017347156 0.22687163022574713 0 0 0 0
          0 0 0 0 0 0
          0 0 0 1.0342242098707433 0.38252712530222166 0
          1.0519162862411036 0.4011622649202065 0 0.9268479956415915 0.40795813363085487 0
          0.5272998369483963 0.30053821180754575 0 0.6258830979062147 0.4187847895203816 0
          0.4725260360091024 0.29041966174094214 0 0.9349750856232839 0.4270479893879252 0
          0.6249549522580015 0.40463398798362804 0 0.5557903388127128 0.257417832553837 0
          0 0 0 0 0 0
          0 0 0 0 0 0
          0 0 0 0.3734087557893393 0.09162220205456684 0
          0 0 0 0 0 0
          0.2743319616611755 0.11174847898792048 0.004491865230893615 0 0 0
          0.6302212191457807 0.08830305616027952 -0.004661039895087893 1.0348490887897719 -0.08095999237636524 -0.0018369346331234277
          0.3305356925012108 0.10728983445951489 0.009880397577859228 0.36165870220194674 0.049258403368489086 0.0018409877381560292
          0.6281909782560773 0.08708994546642262 0.0040184224902713546 0.3243055263366014 0.10522179135935435 -0.003394917662807616
          1.0377688361565631 -0.10829761065743912 -0.0017080786917695833 0 0 0
          0 0 0 0 0 0
          0 0 0 0 0 0
          0 0 0 0 0 0
          0 0 0 0 0 0
          0 0 0 0 0 0
          0 0 0 0 0 0
          0 0 0 0 0 0
          0 0 0 0.4304479589265868 0.07282577161903526 0
          0 0 0 0 0 0
          0 0 0 0 0 0
          0 0 0 0 0 0
          0 0 0 0 0 0
          0 0 0 0 0 0
          0.44944374123170405 -0.08769411189677372 0 0.44084137238906096 0.06182487055106853 0
          0 0 0 0 0 0
          0 0 0 0 0 0
          0.314280354463639 0.2517536086801212 0 0 0 0
          0 0 0 0.33332738790293054 0.27303840932565127 0
          0 0 0 1.0689742910939035 -0.12316589976679554 0
          1.0728694892317439 -0.14540459149553064 0 0.480697074246417 0.04617189271450567 0
          0.7719276933609271 -0.10298734909650119 0 0.46174371158916483 0.01919900354907617 0
          0.7018913413607814 0.05162624751094382 0 0.3330391399945226 0.23814435639511003 0
          0 0 0 0.3359541435009661 0.2431002607597197 0
          0 0 0 0 0 0
          0.7967065248845525 -0.10049593454532142 0 0.4938741343913455 0.03568851182676519 0
          0.46354831071198316 0.01127456176986821 0 0.7723669488459095 -0.10286439471005272 0
          1.0845103825375437 -0.15388359054140285 0 0.5367460074179473 -0.17296228457456353 0
          0 0 0 0 0 0
          0.5218510473059406 -0.15946489676397088 0 0 0 0
          0 0 0 0 0 0
          0.29570481892175465 0.20094774135512145 0 0.27421525380003214 0.19299737712341003 0
          0 0 0 0.22097725325230402 -0.07703329939355681 0
          0 0 0 0.537199153325898 -0.21046585187637454 0
          0 0 0 0 0 0
          0 0 0 0.5285849895091524 -0.211945538583496 0
          0.2599048901407444 0.1355904336387752 0 0.24155960943343038 -0.14279624369949212 0
          0 0 0 0 0 0
          0.5271867003878224 -0.248550948435727 0 0 0 0
          0 0 0 0.5174704996639073 -0.2520290502393253 0
          0 0 0 0.2683217381963205 0.13997731225327595 0
          0 0 0 0.2873436383662625 -0.14958548818997525 0
          0 0 0 0.4895153447951878 -0.27352130868891966 0
          0 0 0 0.31584217354113947 -0.26942419210528823 0
          0.24948202215101956 0.07747018220464641 0 0.24720921254374337 0.06432541907494788 0
          0.2931823207497504 -0.1938451595688516 0 0 0 0
          0.3480445621037206 -0.2632612861368774 0 0 0 0
          0.31795610328535084 -0.21587808665511748 0 0.4400987462353136 -0.26698649589474355 0
          0.3209883759681471 -0.2406972482078097 0 0.3581781132885648 -0.25278038560208815 0
          0.43649636903800504 -0.28489588945568417 0 0.47107525139935175 -0.2988632664412303 0
          0.37422343748048453 -0.2872796023219955 0 1.1803017632497883 0 0
          1.2016795063820935 0 0 1.20303771329656 0 0
          1.0000000000000002 0 0 0.9999999999999998 0 0
          1.2007914980973788 0 0 1.0000000000000002 0 0
          1.0000000000000004 0 0 1.2136874562460782 0 0
          1.2350518667539314 0 0 1.0000000000000002 0 0
          1.0000000000000004 0 0 1.0000000000000004 0 0
          1.2263867575218053 0 0 1.229368199745994 0 0
          1.0000000000000002 0 0 0.5910243308914468 0.23869653395113952 0
          0.8468663395348943 0.06365749169811653 0 0.505868231759112 -0.002156167525110878 0
          0.48038534118250054 -0.02221189168208801 0 0.8977475644540782 0.2613975319329836 0
          0.8564466808110818 -0.3927556057271979 0 0.5941799876333813 -0.4063426552267718 0
          0.6261141369515901 -0.4054885154356744 0 0.928646409927875 -0.4250775307443109 0
          1.1009638928079837 -0.32004377756148494 0 1.1150337015642466 -0.34099045932215183 0
          1.0620736337961691 -0.4143889393912041 0 0.8712037162129925 0.06376889860065002 0
          0.5332625457306815 -0.026217816514404312 0 0.9191348141757238 0.20788481916752968 0
          0.8717262074588386 0.01960673973295228 0 0.9271769207349682 0.2373674271190347 0
          0.6367307207613894 -0.4304629900148679 0 1.0385101055149946 -0.41436066402328137 0
          1.0359623039543604 -0.39263005805760165 0 1.1156944269333153 -0.359231601210868 0
          0.9450098880019325 -0.41887453946317993 0 0.9412343661675379 -0.4134604836690448 0
          1.0000000000000002 0 0 1 0 0
          1.0000000000000002 0 0 0.5926819860693895 -0.24291881351582223 0
          0.9347794173921695 -0.25111243033314323 0 0.832585551321241 -0.07648862775974799 0
          1.0000000000000004 0 0 1.2583666622754779 0 0
          1.2437969462033138 0 0 0.8686297071961073 -0.09050572198667166 0
          0.9299497039075968 -0.24696220249083162 0 0.9188078433443335 -0.24499939758928943 0
          0.9021357876644228 -0.1015018900976249 0 1.2550145354064997 0 0
          1.2523200835546238 0 0 1.107834457546179 -0.3626432272407385 0
          1.1210222039225022 -0.27201545564149576 0 1.1729818632537095 -0.2885755047934893 0
          1.286253622669066 -0.13963181904460242 0 1.206060869099525 -0.1794930794238964 0
          1.1054039438758831 -0.35632313767224116 0 1.1034176554107362 -0.2650711431597171 0
          1.0782826415165863 -0.35018553711776146 0 1.1007052548245009 -0.2510520174353482 0
          1.1958711919193823 -0.1812250649835653 0 1.1874231671906805 -0.18001806366715278 0
          1.2761816646009612 -0.14256482529170247 0 1.265668463750985 -0.1385121248638174 0
          1 0 0 1.0000000000000002 0 0
          1.0000000000000002 0 0 1 0 0
          1.2930130126642847 0 0 1.2953062760734053 0 0
          1.2772022437124522 0 0 1.2899577033692093 0 0
          0.9999999999999998 0 0 1.0000000000000002 0 0
          1.0000000000000002 0 0 0.9999999999999998 0 0
          1.0000000000000004 0 0 1.0000000000000004 0 0
          0.9999999999999998 0 0 1.0000000000000002 0 0
          1.2628151700562658 0 0 1.1683807732199432 0 0
          1.1681811475882837 0 0 1.1691633346083279 0 0
          1 0 0 1.0000000000000002 0 0
          1.0000000000000002 0 0 1.0000000000000004 0 0
          1.029717056467254 0 0 1.0281582987998612 0 0
          1.0321456483210065 -0.00128275306625187 -0.0005583965017621825 1.0559106869297283 0 0
          1.0226388038033114 0 0 1.0000000000000002 0 0
          1 0 0 1.0073198312856542 -0.004144851441517572 -0.00038560991372909643
          1.0000000000000002 0 0 1.0236297861799963 0 0
          1.0305064346022914 -0.0013286709722836057 0.00020017103856184417 1.02235533529968 0 0
          1.0209533909181934 0 0 1.0067995328569503 -0.004336866822434669 0.0014817196198778798
          1.0000000000000002 0 0 1.0041478583197323 -0.002088434247026656 0.0005240446302894556
          1.0041011621013212 -0.0022367529607935544 0.00017351416939101068 1.0000000000000002 0 0
          <InformationKey name="L2_NORM_RANGE" location="vtkDataArray" length="2">
            <Value index="0">
              0
            </Value>
            <Value index="1">
              1.2953062761
            </Value>
          </InformationKey>
        </DataArray>
        <DataArray type="Float64" Name="Pressure" format="ascii" RangeMin="-1.907162093631675" RangeMax="5.159160228645356">
          -0.015944500214348043 -0.01967672706900816 -0.07504620131826716 0.011260111759496446 -0.07937731381702494 0.012565849343331895
          -0.08962074471091387 -0.09194890855121268 -0.10484934518599397 -0.10085161922260098 0.024407718032237128 0.020160957200027956
          -0.1575987436529351 -0.03836368109351587 -0.14939385388433415 -0.0333725670188209 0.0035940898842835734 0.003711117579796768
          0.1354395151522151 0.12080645327107217 -0.1290533101380566 -0.12559992578853382 -0.22919138741199815 -0.3296176030518522
          -0.2251878426261788 -0.3128613593456777 0.0061256452961053545 0.02004321778597244 -0.09098199966470756 -0.9411305255202409
          -0.08589802616664967 -0.9330278644822465 0.17535327184989571 0.35888268985871324 0.18078315737262987 0.37384314972358107
          -0.39054998472204466 -0.37428444944114736 -0.9715290352637165 -0.902994702777197 -1.6541349703832982 -1.4001251917187845
          -1.8329169564784418 -1.6549368338507595 -1.1304480595775446 -1.1682778936271594 -1.638558466288245 -0.21984409156793877
          -0.35468095988246556 -0.22863764409738443 0.018349650329933288 1.3355761834664492 -1.653111771496852 0.41200802256127655
          1.4567254397438412 1.8927222807107742 -1.6550457172415223 -0.7245918984315799 0 -1.4130299819672598
          0 -1.117578882544498 3.3843293473039986 3.2853796559884705 -0.24897807941039596 3.6465368199424595
          -0.38031868057472623 0.05322223745086522 -0.3774700048761462 4.704623208994252 0.4609578216134217 4.926700580939976
          1.8782254399369493 5.103720540207563 3.167896406156444 4.7308010606084085 3.5892031257883366 3.4630091263277913
          -0.018662397682629044 0.1475557136809979 -0.010688233146123459 0.12557749706826143 -0.0749364007364407 0.456099727806008
          -0.0765910356521746 0.47153858805188925 3.4584318873789908 1.356552349426703 3.4084942706712837 1.4612687988499415
          1.1272564371006712 3.3514460024358206 1.1110259343202495 -0.09272766278196069 3.423348850048995 -0.08656138229007623
          0.35933140538285296 0.3833714809262293 2.7437070299247686 2.6562642784302186 -0.033281396665450005 -0.032831108188816426
          3.7516029732757996 3.581391645966329 2.5608331626461704 2.521583562650917 0.12365474486539817 0.10676988382779128
          1.0616774217193703 1.0568011115702183 0.1778153104634117 0.4621404895495571 0.18903988169306796 0.487163582622565
          0.12114878627870775 0.012556127962191353 0.0006824489352637693 -0.06561872647935954 -0.000661843083508675 -0.015175865796504803
          0.0015086640627570386 -0.004683663978183307 -0.06142469276152493 -0.06272238270871884 -0.07811330457720791 -0.07730029587194265
          -0.08253091312962738 -0.07601485526464731 -0.05035060471312556 -0.050713483290942336 -0.04480227382123583 0.020552691798059502
          -0.053818523648939756 0.013761767915037446 -0.07851682903988046 -0.08039242855110242 -0.08092993382254077 -0.05495591920520146
          -0.048316546084905036 0.02545715514735916 0.02391629916166819 -0.08799865253280396 -0.0432093328323405 -0.13131990010164538
          -0.08991061864793466 -0.08813103954727972 -0.08959453132506985 -0.11711106627073677 -0.028745867730589948 -0.025662346069336615
          -0.12336769822118133 -0.10238171426018064 -0.09576623740370024 -0.09870766485514235 -0.07929055291294833 -0.0954947087481519
          -0.07447052616828191 -0.07745109304665626 -0.05411675123699315 -0.0708888035132069 -0.08623499757566219 0.024265556220747383
          0.014449118471486111 -0.0690373171997569 0.014552034281938303 -0.062085368497262296 -0.0478219912509466 0.01563423917445955
          -0.13688535869669224 -0.15207523818806665 -0.21858080659928864 -0.14208553607437088 -0.15132562298040997 -0.07178622725840574
          -0.07119951940852229 -0.056625940425775706 -0.05284561807801135 0.05890767950949682 0.05140418955990025 -0.034699394085967006
          -0.13514478286384884 -0.15010375679514085 -0.14510632798785045 -0.23443731748161412 -0.06839671993432299 -0.22196276492023956
          0.042698476487387955 -0.04882805022541334 -0.06022714471480963 -0.04263580367272348 -0.07203606288959932 0.01277444544741973
          -0.03297311584297607 0.004541525213961916 0.0226486959992553 -0.027113143274359527 0.018749072743592728 -0.05254433435980152
          0.2305106571150674 0.04835911114177396 0.22932483409324328 0.12955671693973947 0.15823381039397175 0.05929808561890682
          0.1624142234705268 0.2166473735319659 0.16167069949456397 0.06348374141300112 -0.12669936219377495 -0.10813602724715378
          -0.14957559064130976 -0.06470661563309417 -0.19009783941764913 -0.08030546560305657 -0.10461441181454068 -0.08060936147902142
          -0.062193004725403435 -0.0782501903015259 -0.14919057285107085 -0.09886464192943444 -0.1934039458443403 -0.14677130418337972
          -0.1915539753961991 -0.0600270335217798 -0.00291610954749995 0.02251356526989981 -0.22644860648429815 -0.4432184789117121
          -0.3311968989790289 -0.5887958680467424 -0.3240978225641822 -0.32596428114462994 -0.3269682584475094 -0.32105154903763994
          -0.6320017997000495 -0.6011363470961805 -0.3420931242803491 -0.6632647945682754 -0.620835427960242 -0.008848705984439563
          -0.4537484335896213 -0.4519503465871181 -0.6354456175130953 -0.6206458455523229 -0.33370881714090816 -0.6244039986401355
          -0.6349267669093623 0.016180123610885992 -0.0482165307516634 -0.047889223372153886 -0.05242600136008147 0.003233393847243837
          -0.00602020736951423 -0.05464142217264922 -0.044593187370032476 -0.041105339868023734 0.01138589519106752 -0.0792728507174657