<?xml version="1.0"?>
<VTKFile type="UnstructuredGrid" version="0.1" byte_order="LittleEndian" header_type="UInt32" compressor="vtkZLibDataCompressor">
  <UnstructuredGrid>
    <Piece NumberOfPoints="117" NumberOfCells="311">
      <PointData>
        <DataArray type="Float64" Name="nsi_BC" NumberOfComponents="3" format="ascii" RangeMin="0" RangeMax="1">
          1 0 0 1 0 0
          1 0 0 0 0 0
          1 0 0 0 0 0
          0 0 0 0 0 0
          1 0 0 1 0 0
          0 0 0 0 0 0
          0 0 0 1 0 0
          0 0 0 1 0 0
          0 0 0 0 0 0
          1 0 0 1 0 0
          0 0 0 0 0 0
          0 0 0 0 0 0
          0 0 0 0 0 0
          0 0 0 0 0 0
          0 0 0 0 0 0
          0 0 0 0 0 0
          1 0 0 0 0 0
          1 0 0 0 0 0
          0 0 0 0 0 0
          0 0 0 0 0 0
          0 0 0 0 0 0
          0 0 0 0 0 0
          0 0 0 0 0 0
          0 0 0 0 0 0
          0 0 0 0 0 0
          0 0 0 0 0 0
          0 0 0 0 0 0
          0 0 0 0 0 0
          0 0 0 0 0 0
          0 0 0 0 0 0
          0 0 0 0 0 0
          0 0 0 0 0 0
          0 0 0 0 0 0
          0 0 0 0 0 0
          0 0 0 0 0 0
          0 0 0 0 0 0
          0 0 0 0 0 0
          0 0 0 0 0 0
          0 0 0 0 0 0
          1 0 0 1 0 0
          1 0 0 1 0 0
          1 0 0 1 0 0
          1 0 0 1 0 0
          0 0 0 0 0 0
          0 0 0 0 0 0
          1 0 0 0 0 0
          1 0 0 1 0 0
          0 0 0 1 0 0
          0 0 0 0 0 0
          1 0 0 1 0 0
          1 0 0 1 0 0
          1 0 0 1 0 0
          1 0 0 1 0 0
          1 0 0 1 0 0
          1 0 0 1 0 0
          1 0 0 1 0 0
          1 0 0 1 0 0
          0 0 0 1 0 0
          1 0 0
          <InformationKey name="L2_NORM_RANGE" location="vtkDataArray" length="2">
            <Value index="0">
              0
            </Value>
            <Value index="1">
              1
            </Value>
          </InformationKey>
        </DataArray>
        <DataArray type="Float64" Name="nsi_FIXNO" NumberOfComponents="3" format="ascii" RangeMin="0" RangeMax="5.196152422706632">
          0 1 1 0 1 1
          0 1 1 0 0 0
          0 1 1 0 0 1
          0 0 1 0 0 1
          0 1 1 0 1 1
          0 0 0 0 0 1
          0 0 1 0 1 1
          0 0 1 0 1 1
          0 0 0 0 0 1
          0 1 1 0 1 1
          0 0 1 0 0 1
          0 0 1 0 0 1
          0 0 1 0 0 1
          0 0 0 0 0 1
          0 0 1 0 0 1
          0 0 1 0 0 1
          0 1 1 0 0 1
          0 1 1 0 0 1
          0 0 1 0 0 1
          0 0 1 0 0 1
          1 1 1 1 1 1
          1 1 1 1 1 1
          1 1 1 1 1 1
          1 1 1 0 0 1
          1 1 1 0 0 1
          1 1 1 0 0 1
          1 1 1 1 1 1
          0 0 1 1 1 1
          1 1 1 -1 -1 -1
          -3 -3 -3 1 1 1
          -3 -3 -3 1 1 1
          1 1 1 1 1 1
          0 0 1 1 1 1
          0 0 1 1 1 1
          1 1 1 1 1 1
          1 1 1 1 1 1
          1 1 1 1 1 1
          1 1 1 1 1 1
          1 1 1 1 1 1
          0 1 1 1 1 1
          0 1 1 1 1 1
          0 1 1 1 1 1
          0 1 1 1 1 1
          0 0 1 0 0 1
          0 0 1 0 0 1
          1 1 1 0 0 1
          1 1 1 0 1 1
          0 0 1 0 1 1
          0 0 1 0 0 1
          1 1 1 1 1 1
          0 1 1 0 1 1
          1 1 1 1 1 1
          1 1 1 1 1 1
          0 1 1 0 1 1
          1 1 1 1 1 1
          0 1 1 1 1 1
          0 1 1 1 1 1
          -1 -1 -1 1 1 1
          1 1 1
          <InformationKey name="L2_NORM_RANGE" location="vtkDataArray" length="2">
            <Value index="0">
              0
            </Value>
            <Value index="1">
              5.1961524227
            </Value>
          </InformationKey>
        </DataArray>
      </PointData>
      <CellData>
        <DataArray type="UInt8" Name="vtkGhostType" format="ascii" RangeMin="0" RangeMax="0">
          0 0 0 0 0 0
          0 0 0 0 0 0
          0 0 0 0 0 0
          0 0 0 0 0 0
          0 0 0 0 0 0
          0 0 0 0 0 0
          0 0 0 0 0 0
          0 0 0 0 0 0
          0 0 0 0 0 0
          0 0 0 0 0 0
          0 0 0 0 0 0
          0 0 0 0 0 0
          0 0 0 0 0 0
          0 0 0 0 0 0
          0 0 0 0 0 0
          0 0 0 0 0 0
          0 0 0 0 0 0
          0 0 0 0 0 0
          0 0 0 0 0 0
          0 0 0 0 0 0
          0 0 0 0 0 0
          0 0 0 0 0 0
          0 0 0 0 0 0
          0 0 0 0 0 0
          0 0 0 0 0 0
          0 0 0 0 0 0
          0 0 0 0 0 0
          0 0 0 0 0 0
          0 0 0 0 0 0
          0 0 0 0 0 0
          0 0 0 0 0 0
          0 0 0 0 0 0
          0 0 0 0 0 0
          0 0 0 0 0 0
          0 0 0 0 0 0
          0 0 0 0 0 0
          0 0 0 0 0 0
          0 0 0 0 0 0
          0 0 0 0 0 0
          0 0 0 0 0 0
          0 0 0 0 0 0
          0 0 0 0 0 0
          0 0 0 0 0 0
          0 0 0 0 0 0
          0 0 0 0 0 0
          0 0 0 0 0 0
          0 0 0 0 0 0
          0 0 0 0 0 0
          0 0 0 0 0 0
          0 0 0 0 0 0
          0 0 0 0 0 0
          0 0 0 0 0
        </DataArray>
      </CellData>
      <Points>
        <DataArray type="Float32" Name="Points" NumberOfComponents="3" format="ascii" RangeMin="0" RangeMax="1.4177446879808873">
          1 1 0 1 1 -0.10000000149011612
          0.8469957709312439 1 0 1 0.817443311214447 0
          0.8469957709312439 1 -0.10000000149011612 1 0.817443311214447 -0.10000000149011612
          0.8231526017189026 0.8230358958244324 0 0.8231526017189026 0.8230358958244324 -0.10000000149011612
          0.6741669178009033 1 0 0.6741669178009033 1 -0.10000000149011612
          1 0.6046004295349121 0 1 0.6046004295349121 -0.10000000149011612
          0.5946000814437866 0.6931359767913818 0 0.4915336072444916 1 0
          0.5946000814437866 0.6931359767913818 -0.10000000149011612 0.4915336072444916 1 -0.10000000149011612
          1 0.3841167986392975 0 1 0.3841167986392975 -0.10000000149011612
          0.31185001134872437 1 0 0.31185001134872437 1 -0.10000000149011612
          0.6705719232559204 0.34051379561424255 0 0.6705719232559204 0.34051379561424255 -0.10000000149011612
          0.33325138688087463 0.6309792995452881 0 0.4195924997329712 0.503671407699585 0
          0.33325138688087463 0.6309792995452881 -0.10000000149011612 0.4195924997329712 0.503671407699585 -0.10000000149011612
          1 0.17710669338703156 0 1 0.17710669338703156 -0.10000000149011612
          0.8253105282783508 0.18071149289608002 0 0.2950367033481598 0.5369101166725159 0
          0.8253105282783508 0.18071149289608002 -0.10000000149011612 0.2950367033481598 0.5369101166725159 -0.10000000149011612
          0.14733430743217468 1 0 0.2011495977640152 0.6955826878547668 0
          0.14733430743217468 1 -0.10000000149011612 0.2011495977640152 0.6955826878547668 -0.10000000149011612
          0.23656399548053741 0.5893793702125549 0 0.23656399548053741 0.5893793702125549 -0.10000000149011612
          0.29545721411705017 0.46207499504089355 0 0.29545721411705017 0.46207499504089355 -0.10000000149011612
          0.23535530269145966 0.5353553295135498 0 0.23535530269145966 0.5353553295135498 -0.10000000149011612
          0.25 0.5 0 0.25 0.5 -0.05000000074505806
          0.2226257026195526 0.5445879101753235 -0.07026293128728867 0.218893900513649 0.546292781829834 -0.03476328030228615
          0.25 0.5 -0.10000000149011612 0.3442029058933258 0.3583407998085022 0
          0.20000000298023224 0.550000011920929 0 0.3442029058933258 0.3583407998085022 -0.10000000149011612
          0.20000000298023224 0.550000011920929 -0.10000000149011612 0.1633003056049347 0.5886009931564331 0
          0.23535530269145966 0.4646447002887726 0 0.18605110049247742 0.5480148792266846 -0.06728526204824448
          0.1633003056049347 0.5886009931564331 -0.10000000149011612 0.1797764003276825 0.5457274913787842 -0.03344862908124924
          0.23535530269145966 0.4646447002887726 -0.10000000149011612 0.26033028960227966 0.42027410864830017 -0.05000000074505806
          0.1967543065547943 0.4986555874347687 0 0.2226257026195526 0.4554120898246765 -0.029737070202827454
          0.1967543065547943 0.4986555874347687 -0.10000000149011612 0.218893900513649 0.45370718836784363 -0.06523671746253967
          0.16464470326900482 0.5353553295135498 0 0.16464470326900482 0.5353553295135498 -0.10000000149011612
          0.2391379028558731 0.40942108631134033 0 0.15816539525985718 0.5273836255073547 -0.06678897887468338
          0.2391379028558731 0.40942108631134033 -0.10000000149011612 0.20000000298023224 0.44999998807907104 0
          0.20000000298023224 0.44999998807907104 -0.10000000149011612 0.15229040384292603 0.5149598121643066 -0.03338906913995743
          0.18605110049247742 0.45198509097099304 -0.03271473944187164 0.15000000596046448 0.5 0
          0.1797764003276825 0.4542725086212158 -0.06655137240886688 0.15000000596046448 0.5 -0.10000000149011612
          0.16464470326900482 0.4646447002887726 0 0.15198490023612976 0.48605188727378845 -0.06688577681779861
          0.15816539525985718 0.47261640429496765 -0.03321101889014244 0.16464470326900482 0.4646447002887726 -0.10000000149011612
          1 0 0 0 1 0
          1 0 -0.10000000149011612 0 1 -0.10000000149011612
          0.8523842096328735 0 0 0 0.8468390107154846 0
          0.8523842096328735 0 -0.10000000149011612 0 0.8468390107154846 -0.10000000149011612
          0.0959658995270729 0.52864670753479 0 0.16424189507961273 0.41367238759994507 0
          0.0959658995270729 0.52864670753479 -0.10000000149011612 0.16424189507961273 0.41367238759994507 -0.10000000149011612
          0 0.7062063813209534 0 0.09785047173500061 0.46863460540771484 0
          0 0.7062063813209534 -0.10000000149011612 0.6877005100250244 0 0
          0.09785047173500061 0.46863460540771484 -0.10000000149011612 0.6877005100250244 0 -0.10000000149011612
          0.19556979835033417 0.30779388546943665 0 0.19556979835033417 0.30779388546943665 -0.10000000149011612
          0 0.5869023203849792 0 0 0.5869023203849792 -0.10000000149011612
          0.5081421136856079 0 0 0.5081421136856079 0 -0.10000000149011612
          0 0.49238690733909607 0 0 0.49238690733909607 -0.10000000149011612
          0 0.4030855894088745 0 0 0.4030855894088745 -0.10000000149011612
          0.3257529139518738 0 0 0.3257529139518738 0 -0.10000000149011612
          0 0.28900209069252014 0 0 0.28900209069252014 -0.10000000149011612
          0.1530793011188507 0 0 0 0.15240679681301117 0
          0.1530793011188507 0 -0.10000000149011612 0 0.15240679681301117 -0.10000000149011612
          0.03964177891612053 0.039884380996227264 -0.05043783038854599 0 0 0
          0 0 -0.10000000149011612
          <InformationKey name="L2_NORM_RANGE" location="vtkDataArray" length="2">
            <Value index="0">
              0
            </Value>
            <Value index="1">
              1.417744688
            </Value>
          </InformationKey>
        </DataArray>
      </Points>
      <Cells>
        <DataArray type="Int64" Name="connectivity" format="ascii" RangeMin="0" RangeMax="116">
          4 9 7 8 111 115
          116 114 64 47 96 57
          88 102 94 86 27 30
          26 17 16 21 28 20
          48 51 55 62 18 35
          22 33 87 74 67 70
          89 61 66 68 8 9
          7 14 43 39 56 46
          43 42 52 38 19 35
          18 34 75 88 86 69
          21 10 14 12 61 70
          66 57 74 70 87 76
          13 14 22 24 65 51
          86 69 41 37 44 31
          51 36 35 33 87 70
          72 76 86 71 91 69
          55 51 48 45 93 100
          21 95 46 41 43 31
          11 14 21 10 95 30
          93 84 25 31 29 24
          30 84 26 82 21 47
          100 20 18 35 19 24
          85 32 34 81 26 30
          16 17 18 13 22 24
          43 29 44 45 7 10
          3 6 96 47 49 57
          2 4 7 8 93 21
          28 30 44 29 36 45
          66 89 87 70 36 37
          35 24 28 21 16 30
          23 21 12 20 22 36
          35 24 53 37 50 54
          83 92 85 35 23 47
          21 20 21 49 23 25
          5 3 7 10 65 88
          75 69 62 71 86 69
          92 90 99 54 22 14
          25 24 66 61 56 68
          49 47 23 38 75 69
          91 76 84 30 26 27
          66 61 89 70 111 113
          110 114 17 21 10 11
          36 29 40 45 51 62
          86 69 16 30 21 17
          84 27 26 80 93 30
          82 84 91 71 74 76
          29 31 25 38 22 25
          29 24 112 110 113 114
          80 84 78 26 48 36
          40 45 102 99 88 103
          91 76 87 94 44 37
          36 31 39 46 43 31
          26 84 78 82 107 49
          106 100 101 100 21 49
          75 89 77 72 35 36
          22 33 108 111 97 96
          39 31 43 38 21 20
          16 10 49 25 39 38
          83 35 85 32 86 91
          75 69 77 89 75 94
          52 59 43 38 55 51
          65 69 88 73 75 94
          115 110 112 114 36 31
          37 24 51 36 48 45
          59 70 61 57 22 35
          18 24 19 15 13 24
          61 68 89 72 25 31
          39 38 40 29 43 45
          23 25 49 38 66 97
          49 57 89 68 77 72
          40 42 43 29 82 93
          28 30 97 64 96 57
          113 111 116 114 92 35
          83 90 89 108 109 97
          11 5 7 10 44 29
          43 31 67 59 52 64
          104 87 94 91 51 45
          55 53 113 97 110 112
          96 97 87 64 64 38
          47 57 35 33 83 90
          64 70 59 57 36 29
          44 31 75 88 65 73
          65 88 63 73 21 100
          101 95 75 73 77 94
          107 101 49 100 15 14
          13 24 43 38 59 57
          35 33 18 32 76 75
          89 94 43 41 44 31
          87 76 89 94 96 49
          106 97 106 49 107 97
          87 89 66 97 89 94
          105 104 87 97 66 64
          43 31 29 38 36 45
          51 53 75 76 89 72
          35 34 85 32 96 97
          110 111 110 97 113 111
          91 69 71 76 91 74
          87 76 87 64 66 70
          20 10 21 12 59 64
          67 70 16 26 28 30
          9 15 14 13 28 21
          93 20 51 33 35 90
          21 100 93 20 61 72
          89 70 89 72 87 70
          67 64 87 70 23 49
          21 47 98 102 88 86
          103 94 88 102 39 38
          43 57 59 38 52 57
          93 95 21 30 86 88
          75 94 98 99 88 102
          75 76 91 94 29 31
          36 24 113 116 112 114
          83 33 35 32 108 87
          89 104 104 102 91 94
          43 29 42 38 86 88
          65 69 89 87 94 104
          55 62 51 69 22 29
          36 24 29 25 23 38
          12 10 7 6 18 34
          35 32 21 49 100 47
          106 49 96 47 8 12
          7 6 63 53 50 54
          21 25 23 14 87 72
          89 76 49 97 96 57
          106 100 49 47 86 102
          94 91 97 110 106 96
          81 85 32 83 97 110
          112 106 66 70 64 57
          81 83 32 79 112 97
          106 107 66 39 56 57
          63 88 65 54 51 90
          35 54 88 99 98 54
          75 91 86 94 23 29
          22 25 18 19 13 24
          35 90 92 54 21 16
          17 10 12 21 23 14
          44 41 50 37 23 25
          22 14 7 12 8 14
          50 53 44 37 105 102
          104 94 105 103 102 94
          12 23 22 14 82 26
          30 28 22 13 12 14
          65 53 63 54 36 53
          51 54 36 37 53 54
          35 36 51 54 35 37
          36 54 86 88 98 54
          98 51 86 54 99 90
          98 54 98 90 51 54
          65 88 86 54 86 51
          65 54 65 51 55 54
          51 53 55 54 55 53
          65 54 7 10 12 14
          11 10 7 14 109 97
          108 111 105 89 104 108
          53 36 44 37 36 53
          44 45 105 109 89 108
          2 8 7 6 109 113
          97 111 108 97 89 87
          108 97 87 96 7 5
          2 3 5 7 2 4
          3 1 5 2 43 59
          61 57 3 2 7 6
          2 3 1 0 56 61
          66 57 43 61 56 57
          56 39 43 57 5 4
          2 1 8 13 14 12
          9 14 8 13 116 115
          112 114 110 115 111 114
          52 38 64 57 52 64
          59 57 47 38 49 57
          66 49 39 57 49 38
          39 57 66 64 97 57
          45 40 58 43 67 74
          58 70 58 60 65 55
          60 55 45 53 65 69
          58 55 44 60 46 43
          45 55 58 48 45 60
          58 55 58 69 75 76
          44 60 45 53 40 42
          58 43 58 69 62 55
          71 69 58 76 71 62
          58 69 75 60 58 76
          59 42 58 52 74 76
          58 70 60 68 61 72
          63 60 50 53 75 60
          77 73 65 55 60 53
          50 60 44 53 59 58
          67 52 46 41 44 43
          43 42 59 52 58 40
          45 48 58 42 59 43
          58 76 72 70 77 68
          60 72 50 41 44 60
          44 41 46 60 45 60
          44 43 65 60 63 53
          74 71 58 76 58 69
          65 60 65 69 75 60
          75 69 58 60 77 60
          75 72 58 55 62 48
          58 60 61 72 63 60
          65 73 65 60 75 73
          59 61 58 43 58 60
          45 43 61 60 58 43
          75 72 60 76 60 72
          58 76 61 68 60 56
          58 59 67 70 58 61
          59 70 58 72 61 70
          46 43 60 56 60 43
          61 56
        </DataArray>
        <DataArray type="Int64" Name="offsets" format="ascii" RangeMin="4" RangeMax="1244">
          4 8 12 16 20 24
          28 32 36 40 44 48
          52 56 60 64 68 72
          76 80 84 88 92 96
          100 104 108 112 116 120
          124 128 132 136 140 144
          148 152 156 160 164 168
          172 176 180 184 188 192
          196 200 204 208 212 216
          220 224 228 232 236 240
          244 248 252 256 260 264
          268 272 276 280 284 288
          292 296 300 304 308 312
          316 320 324 328 332 336
          340 344 348 352 356 360
          364 368 372 376 380 384
          388 392 396 400 404 408
          412 416 420 424 428 432
          436 440 444 448 452 456
          460 464 468 472 476 480
          484 488 492 496 500 504
          508 512 516 520 524 528
          532 536 540 544 548 552
          556 560 564 568 572 576
          580 584 588 592 596 600
          604 608 612 616 620 624
          628 632 636 640 644 648
          652 656 660 664 668 672
          676 680 684 688 692 696
          700 704 708 712 716 720
          724 728 732 736 740 744
          748 752 756 760 764 768
          772 776 780 784 788 792
          796 800 804 808 812 816
          820 824 828 832 836 840
          844 848 852 856 860 864
          868 872 876 880 884 888
          892 896 900 904 908 912
          916 920 924 928 932 936
          940 944 948 952 956 960
          964 968 972 976 980 984
          988 992 996 1000 1004 1008
          1012 1016 1020 1024 1028 1032
          1036 1040 1044 1048 1052 1056
          1060 1064 1068 1072 1076 1080
          1084 1088 1092 1096 1100 1104
          1108 1112 1116 1120 1124 1128
          1132 1136 1140 1144 1148 1152
          1156 1160 1164 1168 1172 1176
          1180 1184 1188 1192 1196 1200
          1204 1208 1212 1216 1220 1224
          1228 1232 1236 1240 1244
        </DataArray>
        <DataArray type="UInt8" Name="types" format="ascii" RangeMin="10" RangeMax="10">
          10 10 10 10 10 10
          10 10 10 10 10 10
          10 10 10 10 10 10
          10 10 10 10 10 10
          10 10 10 10 10 10
          10 10 10 10 10 10
          10 10 10 10 10 10
          10 10 10 10 10 10
          10 10 10 10 10 10
          10 10 10 10 10 10
          10 10 10 10 10 10
          10 10 10 10 10 10
          10 10 10 10 10 10
          10 10 10 10 10 10
          10 10 10 10 10 10
          10 10 10 10 10 10
          10 10 10 10 10 10
          10 10 10 10 10 10
          10 10 10 10 10 10
          10 10 10 10 10 10
          10 10 10 10 10 10
          10 10 10 10 10 10
          10 10 10 10 10 10
          10 10 10 10 10 10
          10 10 10 10 10 10
          10 10 10 10 10 10
          10 10 10 10 10 10
          10 10 10 10 10 10
          10 10 10 10 10 10
          10 10 10 10 10 10
          10 10 10 10 10 10
          10 10 10 10 10 10
          10 10 10 10 10 10
          10 10 10 10 10 10
          10 10 10 10 10 10
          10 10 10 10 10 10
          10 10 10 10 10 10
          10 10 10 10 10 10
          10 10 10 10 10 10
          10 10 10 10 10 10
          10 10 10 10 10 10
          10 10 10 10 10 10
          10 10 10 10 10 10
          10 10 10 10 10 10
          10 10 10 10 10 10
          10 10 10 10 10 10
          10 10 10 10 10 10
          10 10 10 10 10 10
          10 10 10 10 10 10
          10 10 10 10 10 10
          10 10 10 10 10 10
          10 10 10 10 10
        </DataArray>
      </Cells>
    </Piece>
  </UnstructuredGrid>
</VTKFile>
