<?xml version="1.0"?>
<VTKFile type="UnstructuredGrid" version="0.1" byte_order="LittleEndian" header_type="UInt32" compressor="vtkZLibDataCompressor">
  <UnstructuredGrid>
    <Piece NumberOfPoints="13" NumberOfCells="11">
      <PointData>
        <DataArray type="Float64" Name="Disp" NumberOfComponents="3" format="ascii" RangeMin="0" RangeMax="0.010967845543766782">
          0 0 0 0 0 0
          -0.0001507284753203286 0.0004896178757177161 0 0.00031375547768988795 0.0004965558272505297 0
          -0.0001565791921474154 0.0016173649361069858 0 0.00017148144971251248 0.0016070750736427667 0
          0.00026088653057118323 0.0015730133784737955 0 -0.00020403726231698477 0.0015687958225861168 0
          0.0007292157260560304 -0.00026864745617258615 0 -0.0007304490051571852 -0.00024518466082764506 0
          0.0011912436084097339 -0.004340403556849167 0 -0.0014448877787642308 -0.004257271635976546 0
          0.0015104233790260756 -0.010863344654756024 0
          <InformationKey name="L2_NORM_RANGE" location="vtkDataArray" length="2">
            <Value index="0">
              0
            </Value>
            <Value index="1">
              0.010967845544
            </Value>
          </InformationKey>
        </DataArray>
        <DataArray type="Float64" Name="Nodal Stress" NumberOfComponents="6" format="ascii" RangeMin="7428.541353754933" RangeMax="37849.65774643831">
          -8161.590241741752 -5133.434008715297 0 8864.780312376774 0 0
          -2022.0216523773336 -4786.592655342199 0 8042.297568505785 0 0
          5370.644018469 -1696.7243067768338 0 5907.849933119206 0 0
          -5572.022283305361 -2200.7869438389466 0 4392.303626415609 0 0
          15047.180035737516 -1147.9431487084048 0 4889.8335208725775 0 0
          -17900.004273875904 -2773.7533575224948 0 4807.839744547578 0 0
          25726.301085836756 -215.58395888008138 0 1873.9432780323566 0 0
          -27980.91539319404 -2812.7246792161577 0 4962.13386914766 0 0
          33069.228413484634 618.2266073922898 0 -1021.3820221515983 0 0
          -34743.80121678861 -2991.806571674397 0 5192.338299703747 0 0
          36184.112990483074 1535.5164456052898 0 -4279.126915540263 0 0
          -37450.18870175486 -2524.5920337695443 0 4868.921111344692 0 0
          34551.025855950036 2694.351289730549 0 -7101.454853258234 0 0
          <InformationKey name="L2_NORM_RANGE" location="vtkDataArray" length="2">
            <Value index="0">
              7428.5413538
            </Value>
            <Value index="1">
              37849.657746
            </Value>
          </InformationKey>
        </DataArray>
        <DataArray type="Float64" Name="Nodal Strain" NumberOfComponents="6" format="ascii" RangeMin="0" RangeMax="0">
          0 0 0 0 0 0
          0 0 0 0 0 0
          0 0 0 0 0 0
          0 0 0 0 0 0
          0 0 0 0 0 0
          0 0 0 0 0 0
          0 0 0 0 0 0
          0 0 0 0 0 0
          0 0 0 0 0 0
          0 0 0 0 0 0
          0 0 0 0 0 0
          0 0 0 0 0 0
          0 0 0 0 0 0
          <InformationKey name="L2_NORM_RANGE" location="vtkDataArray" length="2">
            <Value index="0">
              0
            </Value>
            <Value index="1">
              0
            </Value>
          </InformationKey>
        </DataArray>
        <DataArray type="Float64" Name="Sld_traction" NumberOfComponents="3" format="ascii" RangeMin="2266.0225340270354" RangeMax="12501.344982953176">
          10821.211105833241 -6259.793653611907 0 -2537.6916189393983 618.1973729015693 0
          5789.601844741621 -408.79590883422594 0 -4492.867209186039 3860.1089682651796 0
          4719.644398977654 293.57396929725627 0 -6154.808074753682 4646.719954201601 0
          -184.84110538148514 2258.4711400590572 0 -8672.891292398086 5804.803098367951 0
          -4299.48733732668 3940.306973040868 0 -9893.29153650366 6573.309263568639 0
          -7842.041249231888 5154.906843260461 0 -9624.204182224945 6309.641566903274 0
          -10373.003039775913 5984.1036221285985 0
          <InformationKey name="L2_NORM_RANGE" location="vtkDataArray" length="2">
            <Value index="0">
              2266.022534
            </Value>
            <Value index="1">
              12501.344983
            </Value>
          </InformationKey>
        </DataArray>
        <DataArray type="Float64" Name="Velocity" NumberOfComponents="3" format="ascii" RangeMin="0" RangeMax="5.476211555458476">
          0 0 0 0 0 0
          0.24980826253897906 -0.6224323796710819 0 -0.39143066278439 -0.65734438426296 0
          0.40773626219762393 -2.295764020473061 0 -0.28375966186996093 -2.320122086404579 0
          0.16949184217882518 -3.175568234622672 0 -0.027323609275323874 -3.179092354734878 0
          0.12296172027778807 -3.3516969438239856 0 -0.034930223589514725 -3.35163573000688 0
          0.2717268540471318 -4.026328671780842 0 -0.2815825685887515 -3.995979119007628 0
          0.30250042217011436 -5.46785026264654 0
          <InformationKey name="L2_NORM_RANGE" location="vtkDataArray" length="2">
            <Value index="0">
              0
            </Value>
            <Value index="1">
              5.4762115555
            </Value>
          </InformationKey>
        </DataArray>
        <DataArray type="Float64" Name="Acceleration" NumberOfComponents="3" format="ascii" RangeMin="0" RangeMax="2659.661447678486">
          0 0 0 0 0 0
          197.48320999752542 -538.1825878415493 0 -322.27388475313785 -576.0263993803807 0
          118.76944552800182 -1697.4228495197522 0 -83.78939345606275 -1678.9774524645595 0
          -195.50607375392957 -1313.8408612213134 0 173.08279848209725 -1357.2419471960498 0
          324.34526894582285 -940.5797082508011 0 -77.8609053100356 -1052.1697203118902 0
          531.6510123147464 -2605.982773805676 0 26.024314457653247 -2516.5808488445036 0
          -255.89805075998004 -2267.8910752533866 0
          <InformationKey name="L2_NORM_RANGE" location="vtkDataArray" length="2">
            <Value index="0">
              0
            </Value>
            <Value index="1">
              2659.6614477
            </Value>
          </InformationKey>
        </DataArray>
        <DataArray type="Float64" Name="Sigma" NumberOfComponents="6" format="ascii" RangeMin="10620.210529500926" RangeMax="76163.30006291092">
          -8203.315491716043 8203.315491721063 0 10032.934522196869 0 0
          3638.9002522673036 -3638.9002522678275 0 10628.527508738947 0 0
          6711.418265116561 -6711.418265116692 0 4764.724696374411 0 0
          -8715.672863904045 8715.672863904569 0 2279.518941978453 0 0
          20503.25614973109 -20503.256149733592 0 6469.850392944234 0 0
          -26017.60718953654 26017.607189535607 0 5924.728224972698 0 0
          36792.167171846006 -36792.167171850975 0 -1303.7157069176428 0 0
          -40788.510364117705 40788.51036411824 0 9548.349836449954 0 0
          47630.010217310904 -47630.0102173124 0 -7059.123382030031 0 0
          -49615.38959299994 49615.38959300003 0 13143.403773692127 0 0
          52322.56864186545 -52322.568641864615 0 -13849.6401092299 0 0
          -52670.300434624485 52670.300434620556 0 15891.103823404186 0 0
          50109.60752260828 -50109.60752260708 0 -19046.128528259058 0 0
          <InformationKey name="L2_NORM_RANGE" location="vtkDataArray" length="2">
            <Value index="0">
              10620.21053
            </Value>
            <Value index="1">
              76163.300063
            </Value>
          </InformationKey>
        </DataArray>
        <DataArray type="Float64" Name="Press" format="ascii" RangeMin="-59973.76373756211" RangeMax="58239.02823001027">
          -15211.053010244956 -4203.488610596687 8035.546130167801 -11289.460285076435 20033.30333969176 -30843.031235460883
          39300.948996415456 -46648.95337005429 51791.163843657436 -56778.778313355426 58239.02823001027 -59973.76373756211
          57706.92303290596
        </DataArray>
        <DataArray type="Float64" Name="Dev strain" NumberOfComponents="6" format="ascii" RangeMin="0" RangeMax="0">
          0 0 0 0 0 0
          0 0 0 0 0 0
          0 0 0 0 0 0
          0 0 0 0 0 0
          0 0 0 0 0 0
          0 0 0 0 0 0
          0 0 0 0 0 0
          0 0 0 0 0 0
          0 0 0 0 0 0
          0 0 0 0 0 0
          0 0 0 0 0 0
          0 0 0 0 0 0
          0 0 0 0 0 0
          <InformationKey name="L2_NORM_RANGE" location="vtkDataArray" length="2">
            <Value index="0">
              0
            </Value>
            <Value index="1">
              0
            </Value>
          </InformationKey>
        </DataArray>
        <DataArray type="Float64" Name="J2 Stresses" format="ascii" RangeMin="41482994.29695808" RangeMax="2837292343.05495">
          92459328.83834204 41482994.29695808 50718785.48740113 77262005.12230755 430848253.76830715 685691485.0039463
          1354088483.8623612 1686495323.873568 2281075679.0318937 2504874150.1547475 2785604322.071475 2837292343.05495
          2601661519.0485206
        </DataArray>
      </PointData>
      <CellData>
        <DataArray type="UInt8" Name="vtkGhostType" format="ascii" RangeMin="0" RangeMax="0">
          0 0 0 0 0 0
          0 0 0 0 0
        </DataArray>
        <DataArray type="Float64" Name="Gauss Stress" NumberOfComponents="6" format="ascii" RangeMin="6903.2736586532055" RangeMax="36622.50339944205">
          -1940.9190373418373 -3030.6828063284242 0 5890.923715697269 0 0
          -3077.3308216686696 -4508.666172112433 0 8475.395575770075 0 0
          -12109.737361518359 -2623.0547590463266 0 4891.365853298462 0 0
          11759.463578575582 -573.2041220541971 0 4504.698010432367 0 0
          -22734.995330302667 -2725.695075765616 0 4723.120784835004 0 0
          19923.01241089564 -928.8650104675444 0 3696.9543036664286 0 0
          -31470.15252651969 -2954.2260333154727 0 5210.876742704018 0 0
          29358.94216501929 269.8308149911586 0 395.17024916742594 0 0
          -36158.878402222086 -2850.130811717101 0 5061.622495955473 0 0
          34529.5343421629 971.4081647117619 0 -2588.45323918927 0 0
          35244.68775173447 2070.1039318343223 0 -5668.221604694925 0 0
          <InformationKey name="L2_NORM_RANGE" location="vtkDataArray" length="2">
            <Value index="0">
              6903.2736587
            </Value>
            <Value index="1">
              36622.503399
            </Value>
          </InformationKey>
        </DataArray>
        <DataArray type="Float64" Name="Gauss Strain" NumberOfComponents="6" format="ascii" RangeMin="0" RangeMax="0">
          0 0 0 0 0 0
          0 0 0 0 0 0
          0 0 0 0 0 0
          0 0 0 0 0 0
          0 0 0 0 0 0
          0 0 0 0 0 0
          0 0 0 0 0 0
          0 0 0 0 0 0
          0 0 0 0 0 0
          0 0 0 0 0 0
          0 0 0 0 0 0
          <InformationKey name="L2_NORM_RANGE" location="vtkDataArray" length="2">
            <Value index="0">
              0
            </Value>
            <Value index="1">
              0
            </Value>
          </InformationKey>
        </DataArray>
      </CellData>
      <Points>
        <DataArray type="Float32" Name="Points" NumberOfComponents="3" format="ascii" RangeMin="0" RangeMax="0.6020797527609908">
          0 0.05000000074505806 0 0 0 0
          0.10000000149011612 0.05000000074505806 0 0.10000000149011612 0 0
          0.20000000298023224 0.05000000074505806 0 0.20000000298023224 0 0
          0.30000001192092896 0.05000000074505806 0 0.30000001192092896 0 0
          0.4000000059604645 0.05000000074505806 0 0.4000000059604645 0 0
          0.5 0.05000000074505806 0 0.5 0 0
          0.6000000238418579 0.05000000074505806 0
          <InformationKey name="L2_NORM_RANGE" location="vtkDataArray" length="2">
            <Value index="0">
              0
            </Value>
            <Value index="1">
              0.60207975276
            </Value>
          </InformationKey>
        </DataArray>
      </Points>
      <Cells>
        <DataArray type="Int64" Name="connectivity" format="ascii" RangeMin="0" RangeMax="12">
          3 2 1 2 0 1
          5 4 3 4 2 3
          7 6 5 6 4 5
          9 8 7 8 6 7
          11 10 9 10 8 9
          12 10 11
        </DataArray>
        <DataArray type="Int64" Name="offsets" format="ascii" RangeMin="3" RangeMax="33">
          3 6 9 12 15 18
          21 24 27 30 33
        </DataArray>
        <DataArray type="UInt8" Name="types" format="ascii" RangeMin="5" RangeMax="5">
          5 5 5 5 5 5
          5 5 5 5 5
        </DataArray>
      </Cells>
    </Piece>
  </UnstructuredGrid>
</VTKFile>
