<?xml version="1.0"?>
<VTKFile type="UnstructuredGrid" version="0.1" byte_order="LittleEndian" header_type="UInt32" compressor="vtkZLibDataCompressor">
  <UnstructuredGrid>
    <Piece NumberOfPoints="13" NumberOfCells="11">
      <PointData>
        <DataArray type="Float64" Name="Disp" NumberOfComponents="3" format="ascii" RangeMin="0" RangeMax="0.0033090369207348655">
          0 0 0 0 0 0
          -0.0002124606161993121 0.0005553786848823288 0 0.0003643447936634342 0.0005675416203795459 0
          -0.0003661604833464229 0.002144892261998977 0 0.00037544262464931743 0.002154490800554394 0
          -0.0001353164765868955 0.003302041443225554 0 0.0001505021963958326 0.0033056125652693343 0
          0.0002605543806535203 0.003203892316125643 0 -0.00024274372209124933 0.0032033479929400067 0
          0.0007263728015231802 0.001253538841404736 0 -0.0007286078449112179 0.0012728252450345812 0
          0.0010889748753722091 -0.0025790325699713984 0
          <InformationKey name="L2_NORM_RANGE" location="vtkDataArray" length="2">
            <Value index="0">
              0
            </Value>
            <Value index="1">
              0.0033090369207
            </Value>
          </InformationKey>
        </DataArray>
        <DataArray type="Float64" Name="Nodal Stress" NumberOfComponents="6" format="ascii" RangeMin="5066.181145782295" RangeMax="28330.664156329236">
          -15418.354470491264 -4035.6884620024066 0 9132.64351721765 0 0
          4967.098061821831 -3474.856103036375 0 5815.453881844476 0 0
          -2258.173686540266 -1722.7341035527108 0 4928.013507167549 0 0
          3772.4074003184205 -1379.6102314297768 0 3087.362858045212 0 0
          7562.88237909753 -1262.0801298888887 0 5224.108211735287 0 0
          -7321.643624498516 -2082.066707055631 0 4303.746491300054 0 0
          18110.386269481787 -796.4543413734348 0 3260.3754852534657 0 0
          -16940.232569449563 -2285.166298841925 0 4280.234375047752 0 0
          25528.821195379896 80.50629185349786 0 432.04665925223406 0 0
          -23998.430826454627 -2133.742940723694 0 3545.596028551309 0 0
          28188.372622439296 1081.6105448529327 0 -2621.5070220191906 0 0
          -27029.525874547402 -1698.2142509592952 0 2884.0087280237044 0 0
          27239.524846976652 1704.4442010975154 0 -4405.74367799475 0 0
          <InformationKey name="L2_NORM_RANGE" location="vtkDataArray" length="2">
            <Value index="0">
              5066.1811458
            </Value>
            <Value index="1">
              28330.664156
            </Value>
          </InformationKey>
        </DataArray>
        <DataArray type="Float64" Name="Nodal Strain" NumberOfComponents="6" format="ascii" RangeMin="0" RangeMax="0">
          0 0 0 0 0 0
          0 0 0 0 0 0
          0 0 0 0 0 0
          0 0 0 0 0 0
          0 0 0 0 0 0
          0 0 0 0 0 0
          0 0 0 0 0 0
          0 0 0 0 0 0
          0 0 0 0 0 0
          0 0 0 0 0 0
          0 0 0 0 0 0
          0 0 0 0 0 0
          0 0 0 0 0 0
          <InformationKey name="L2_NORM_RANGE" location="vtkDataArray" length="2">
            <Value index="0">
              0
            </Value>
            <Value index="1">
              0
            </Value>
          </InformationKey>
        </DataArray>
        <DataArray type="Float64" Name="Sld_traction" NumberOfComponents="3" format="ascii" RangeMin="2094.744483440898" RangeMax="13884.525439933046">
          12494.127725598062 -6056.138957173105 0 -3769.1609874123574 -278.16197916579773 0
          6337.982725666825 -1369.0264156071896 0 -2011.3591021901666 1971.2744675204465 0
          6096.091170660269 -872.3731073599432 0 -4270.0940607429875 2978.1729483809 0
          2001.8225950385643 616.9771056523429 0 -6856.5499914465545 4214.340009805719 0
          -2369.1643663474742 2371.1320745300136 0 -7460.922118699934 4735.094875672935 0
          -5900.330517625942 3780.588737147569 0 -7049.727297187225 4586.398617197341 0
          -7625.100659427465 4380.7699513793295 0
          <InformationKey name="L2_NORM_RANGE" location="vtkDataArray" length="2">
            <Value index="0">
              2094.7444834
            </Value>
            <Value index="1">
              13884.52544
            </Value>
          </InformationKey>
        </DataArray>
        <DataArray type="Float64" Name="Velocity" NumberOfComponents="3" format="ascii" RangeMin="0" RangeMax="3.344890012186841">
          0 0 0 0 0 0
          -0.14224096114665713 0.41182056496150754 0 0.2598243763861875 0.4276334583676896 0
          -0.2011654979656853 1.397674414568149 0 0.11434571761777562 1.4060693994024305 0
          0.10378744579455026 1.45747971600629 0 -0.1981057142766809 1.446882129280957 0
          0.38393920633181466 0.25625146900973994 0 -0.449564079744255 0.25115624226421773 0
          0.41242714844151196 -1.6869051342204844 0 -0.5137982114230616 -1.6479366596888618 0
          0.18485497861585026 -3.339778110969083 0
          <InformationKey name="L2_NORM_RANGE" location="vtkDataArray" length="2">
            <Value index="0">
              0
            </Value>
            <Value index="1">
              3.3448900122
            </Value>
          </InformationKey>
        </DataArray>
        <DataArray type="Float64" Name="Acceleration" NumberOfComponents="3" format="ascii" RangeMin="0" RangeMax="2454.946715061309">
          0 0 0 0 0 0
          14.14256794417166 41.221434338297286 0 1.793996945487038 58.87413168463627 0
          130.8115533962774 -215.17372946806756 0 -221.97831619454135 -212.42961210247393 0
          296.1888029848835 -1357.5990457628184 0 -343.35774216115306 -1375.668016113235 0
          171.3869441174524 -2448.9568981867346 0 -90.70482423870033 -2444.382384411847 0
          -345.48177009361405 -2128.8171428159844 0 342.4276990928541 -2061.3052581030543 0
          -519.5256392883725 -174.6259199293945 0
          <InformationKey name="L2_NORM_RANGE" location="vtkDataArray" length="2">
            <Value index="0">
              0
            </Value>
            <Value index="1">
              2454.9467151
            </Value>
          </InformationKey>
        </DataArray>
        <DataArray type="Float64" Name="Sigma" NumberOfComponents="6" format="ascii" RangeMin="5416.7721921997545" RangeMax="56916.498651436064">
          -15768.340083771764 15768.340083772433 0 13101.737723383907 0 0
          14060.90424868877 -14060.904248690385 0 6176.153790632929 0 0
          -5289.556098123416 5289.556098122775 0 4150.94483146986 0 0
          3816.95375948117 -3816.9537594819267 0 450.7205100146748 0 0
          8488.961954223836 -8488.961954225277 0 7903.416623800611 0 0
          -12468.600602019018 12468.600602019993 0 4063.9261254484954 0 0
          24580.697455445043 -24580.6974554439 0 2085.446058494279 0 0
          -26661.66844358823 26661.668443586303 0 6830.619836644179 0 0
          35570.31070542367 -35570.31070542553 0 -3063.39140526341 0 0
          -36056.72897232008 36056.72897231973 0 8301.30229728344 0 0
          39770.92647661472 -39770.92647661267 0 -8719.784006642525 0 0
          -39303.87329277302 39303.87329276788 0 9560.087174415368 0 0
          38703.18539334004 -38703.18539333832 0 -11699.770545447533 0 0
          <InformationKey name="L2_NORM_RANGE" location="vtkDataArray" length="2">
            <Value index="0">
              5416.7721922
            </Value>
            <Value index="1">
              56916.498651
            </Value>
          </InformationKey>
        </DataArray>
        <DataArray type="Float64" Name="Press" format="ascii" RangeMin="-44173.879323900364" RangeMax="43955.534847316776">
          -21045.81820331262 8797.172809432144 -5613.622267793791 2986.2221918385185 7223.9282874738055 -15587.90385244289
          25252.310072892833 -30919.873073539813 37986.05072969445 -41010.90358756599 43955.534847316776 -44173.879323900364
          43754.70931444614
        </DataArray>
        <DataArray type="Float64" Name="Dev strain" NumberOfComponents="6" format="ascii" RangeMin="0" RangeMax="0">
          0 0 0 0 0 0
          0 0 0 0 0 0
          0 0 0 0 0 0
          0 0 0 0 0 0
          0 0 0 0 0 0
          0 0 0 0 0 0
          0 0 0 0 0 0
          0 0 0 0 0 0
          0 0 0 0 0 0
          0 0 0 0 0 0
          0 0 0 0 0 0
          0 0 0 0 0 0
          0 0 0 0 0 0
          <InformationKey name="L2_NORM_RANGE" location="vtkDataArray" length="2">
            <Value index="0">
              0
            </Value>
            <Value index="1">
              0
            </Value>
          </InformationKey>
        </DataArray>
        <DataArray type="Float64" Name="J2 Stresses" format="ascii" RangeMin="14619923.246557297" RangeMax="1600735251.0888362">
          291554431.84057903 207245247.20220402 32286989.463667814 14619923.246557297 87678473.64261396 159594874.86095688
          605297958.7118167 722508906.0339663 1267593095.405904 1317315609.1410542 1600735251.0888362 1567643272.50976
          1532157717.2952142
        </DataArray>
      </PointData>
      <CellData>
        <DataArray type="UInt8" Name="vtkGhostType" format="ascii" RangeMin="0" RangeMax="0">
          0 0 0 0 0 0
          0 0 0 0 0
        </DataArray>
        <DataArray type="Float64" Name="Gauss Stress" NumberOfComponents="6" format="ascii" RangeMin="4854.570475808176" RangeMax="27843.55768037714">
          6252.691547841132 -2139.5097255242217 0 3592.6063773724863 0 0
          -8286.419864960226 -3621.7585761564815 0 7809.612115162231 0 0
          -1846.812753814862 -1738.356161605926 0 4139.354419754594 0 0
          3870.962609033376 -806.6104680219653 0 4168.360655095049 0 0
          -11935.012814417367 -2235.2984209758242 0 4326.664006862317 0 0
          12496.464438524546 -1237.5747665751437 0 4684.262935914462 0 0
          -20364.270880632008 -2265.54640697695 0 4022.843576221403 0 0
          21935.942482109334 -390.2839960785518 0 1950.8914966250147 0 0
          -25606.30795087599 -1879.8574252248807 0 3047.2018216854285 0 0
          26738.396733054527 548.7245932422566 0 -1160.6243715408327 0 0
          27568.86780501478 1455.3754202264795 0 -3619.822459224898 0 0
          <InformationKey name="L2_NORM_RANGE" location="vtkDataArray" length="2">
            <Value index="0">
              4854.5704758
            </Value>
            <Value index="1">
              27843.55768
            </Value>
          </InformationKey>
        </DataArray>
        <DataArray type="Float64" Name="Gauss Strain" NumberOfComponents="6" format="ascii" RangeMin="0" RangeMax="0">
          0 0 0 0 0 0
          0 0 0 0 0 0
          0 0 0 0 0 0
          0 0 0 0 0 0
          0 0 0 0 0 0
          0 0 0 0 0 0
          0 0 0 0 0 0
          0 0 0 0 0 0
          0 0 0 0 0 0
          0 0 0 0 0 0
          0 0 0 0 0 0
          <InformationKey name="L2_NORM_RANGE" location="vtkDataArray" length="2">
            <Value index="0">
              0
            </Value>
            <Value index="1">
              0
            </Value>
          </InformationKey>
        </DataArray>
      </CellData>
      <Points>
        <DataArray type="Float32" Name="Points" NumberOfComponents="3" format="ascii" RangeMin="0" RangeMax="0.6020797527609908">
          0 0.05000000074505806 0 0 0 0
          0.10000000149011612 0.05000000074505806 0 0.10000000149011612 0 0
          0.20000000298023224 0.05000000074505806 0 0.20000000298023224 0 0
          0.30000001192092896 0.05000000074505806 0 0.30000001192092896 0 0
          0.4000000059604645 0.05000000074505806 0 0.4000000059604645 0 0
          0.5 0.05000000074505806 0 0.5 0 0
          0.6000000238418579 0.05000000074505806 0
          <InformationKey name="L2_NORM_RANGE" location="vtkDataArray" length="2">
            <Value index="0">
              0
            </Value>
            <Value index="1">
              0.60207975276
            </Value>
          </InformationKey>
        </DataArray>
      </Points>
      <Cells>
        <DataArray type="Int64" Name="connectivity" format="ascii" RangeMin="0" RangeMax="12">
          3 2 1 2 0 1
          5 4 3 4 2 3
          7 6 5 6 4 5
          9 8 7 8 6 7
          11 10 9 10 8 9
          12 10 11
        </DataArray>
        <DataArray type="Int64" Name="offsets" format="ascii" RangeMin="3" RangeMax="33">
          3 6 9 12 15 18
          21 24 27 30 33
        </DataArray>
        <DataArray type="UInt8" Name="types" format="ascii" RangeMin="5" RangeMax="5">
          5 5 5 5 5 5
          5 5 5 5 5
        </DataArray>
      </Cells>
    </Piece>
  </UnstructuredGrid>
</VTKFile>
