<?xml version="1.0"?>
<VTKFile type="UnstructuredGrid" version="0.1" byte_order="LittleEndian" header_type="UInt32" compressor="vtkZLibDataCompressor">
  <UnstructuredGrid>
    <Piece NumberOfPoints="13" NumberOfCells="11">
      <PointData>
        <DataArray type="Float64" Name="Disp" NumberOfComponents="3" format="ascii" RangeMin="0.039175936897674825" RangeMax="0.13929999602903909">
          -0.008102760120416405 -0.05458158026177949 0 -0.0014410359580035623 -0.0721925055524435 0
          -0.009871631601726386 -0.07134054546000772 0 -0.003183889092915014 -0.0890728782622291 0
          -0.011593020403612049 -0.08822199548592571 0 -0.004909317366671111 -0.10584162413344134 0
          -0.013262459300142328 -0.10501206082435371 0 -0.006603148634653454 -0.12248141463672628 0
          -0.014901383852931091 -0.12165968578992806 0 -0.008250750463886878 -0.13905543502672946 0
          -0.016540529712265536 -0.138235605374923 0 0.00010204867320265962 -0.055372188830231865 0
          -0.00636593150852089 -0.03865525769981906 0
          <InformationKey name="L2_NORM_RANGE" location="vtkDataArray" length="2">
            <Value index="0">
              0.039175936898
            </Value>
            <Value index="1">
              0.13929999603
            </Value>
          </InformationKey>
        </DataArray>
        <DataArray type="Float64" Name="Nodal Stress" NumberOfComponents="6" format="ascii" RangeMin="697.1447117192417" RangeMax="31670.183549096422">
          -18766.354506448726 462.83027838888205 0 1728.749847292946 0 0
          7073.510385173595 4454.084445706824 0 -6423.876387978509 0 0
          -9006.330668471945 845.2961048892707 0 467.7290776310065 0 0
          1082.0743651963232 2290.090614036598 0 -2758.8485903437145 0 0
          -3110.730310623907 324.9310546468955 0 89.57262491758772 0 0
          -1681.3763715172752 730.4058319477326 0 -690.1061038845185 0 0
          -939.7804923135066 13.423024270270902 0 41.98288958287898 0 0
          -1619.1413452032523 -21.83323266628728 0 171.41618055934129 0 0
          672.938999574637 6.768837689117229 0 181.98361125642552 0 0
          -291.38038324786476 276.3370900133465 0 603.7075527006035 0 0
          839.0625093546695 285.373351479986 0 159.376931516287 0 0
          17942.080029275938 5929.019863201251 0 -10140.60359692937 0 0
          -31406.18021818066 -829.9894080475284 0 3995.433358115795 0 0
          <InformationKey name="L2_NORM_RANGE" location="vtkDataArray" length="2">
            <Value index="0">
              697.14471172
            </Value>
            <Value index="1">
              31670.183549
            </Value>
          </InformationKey>
        </DataArray>
        <DataArray type="Float64" Name="Nodal Strain" NumberOfComponents="6" format="ascii" RangeMin="0" RangeMax="0">
          0 0 0 0 0 0
          0 0 0 0 0 0
          0 0 0 0 0 0
          0 0 0 0 0 0
          0 0 0 0 0 0
          0 0 0 0 0 0
          0 0 0 0 0 0
          0 0 0 0 0 0
          0 0 0 0 0 0
          0 0 0 0 0 0
          0 0 0 0 0 0
          0 0 0 0 0 0
          0 0 0 0 0 0
          <InformationKey name="L2_NORM_RANGE" location="vtkDataArray" length="2">
            <Value index="0">
              0
            </Value>
            <Value index="1">
              0
            </Value>
          </InformationKey>
        </DataArray>
        <DataArray type="Float64" Name="Sld_traction" NumberOfComponents="3" format="ascii" RangeMin="37.40054034420439" RangeMax="15295.358647659286">
          -3558.2084105129484 2440.4143481802626 0 -8819.983743852416 5630.641776450044 0
          -1722.9792546431634 831.9373795912261 0 -4481.834986901195 2992.9152143127258 0
          -756.9600677898778 431.32932216987865 0 -1721.4268044378848 1082.927343695738 0
          -297.0062699251576 180.77244537897124 0 -273.8974057608464 167.86523023902285 0
          -232.7067308960219 75.9318239128882 0 170.2734494491523 534.1821522457159 0
          14.87385852657029 -34.31572162391507 0 -13012.194431451988 8039.327847439462 0
          -6608.871312965913 4878.646380622566 0
          <InformationKey name="L2_NORM_RANGE" location="vtkDataArray" length="2">
            <Value index="0">
              37.400540344
            </Value>
            <Value index="1">
              15295.358648
            </Value>
          </InformationKey>
        </DataArray>
        <DataArray type="Float64" Name="Velocity" NumberOfComponents="3" format="ascii" RangeMin="0.40725430654912803" RangeMax="11.56696619790916">
          -0.7455517366525692 -1.7375622328297966 0 -0.23813532388311898 -3.646685964811633 0
          -1.0026465797934694 -3.4978612738075787 0 -0.5624551441477902 -5.114551598512356 0
          -1.5552770652884336 -4.932002398246262 0 -0.8972656027476519 -7.648027810507106 0
          -2.094486171271944 -7.443041250525392 0 -1.5267745536377757 -9.621695214809812 0
          -2.4235406353555584 -9.465874959325886 0 -1.8325679655086602 -11.420875696520147 0
          -2.735000628843243 -11.238315801065689 0 0.11001561859142205 -1.891095922076478 0
          -0.3306542348149145 -0.23774744415403193 0
          <InformationKey name="L2_NORM_RANGE" location="vtkDataArray" length="2">
            <Value index="0">
              0.40725430655
            </Value>
            <Value index="1">
              11.566966198
            </Value>
          </InformationKey>
        </DataArray>
        <DataArray type="Float64" Name="Acceleration" NumberOfComponents="3" format="ascii" RangeMin="483.92667428066045" RangeMax="4236.369807820116">
          -442.4940126999918 -504.10242359429867 0 -1233.6613275964387 2630.0816211868787 0
          -256.1327120933238 2697.093309270298 0 -178.4014863787795 2095.331658145473 0
          -913.2326523611969 2041.0034639145251 0 266.91271010589026 497.72194981291614 0
          -22.979234338806464 483.38078247851627 0 1001.8902594623046 1261.284720269426 0
          782.161125224196 1089.4526351658128 0 2512.5210290613495 -3410.874847767702 0
          847.0625742813897 -1831.3920667721704 0 -736.4763759714222 -457.7361439356214 0
          -972.7317375622983 1659.2008388737813 0
          <InformationKey name="L2_NORM_RANGE" location="vtkDataArray" length="2">
            <Value index="0">
              483.92667428
            </Value>
            <Value index="1">
              4236.3698078
            </Value>
          </InformationKey>
        </DataArray>
        <DataArray type="Float64" Name="Sigma" NumberOfComponents="6" format="ascii" RangeMin="420.40912205587097" RangeMax="58357.84215213288">
          -22110.082531773514 22110.082531760847 0 11384.910274870155 0 0
          8922.10843409859 -8922.108434073623 0 -13644.358559317057 0 0
          -9280.274491643257 9280.274491646069 0 5095.916307169002 0 0
          1290.3634774904567 -1290.363477501527 0 -5234.0167724414205 0 0
          -1748.6643325439 1748.664332562781 0 1411.1679056247222 0 0
          -1853.4342766917853 1853.4342766737645 0 -1072.9797541808675 0 0
          284.01449617929757 -284.01449619122104 0 124.15861557320477 0 0
          -1710.7634318876208 1710.7634319327644 0 317.85439206724277 0 0
          1453.1395467774764 -1453.1395467972707 0 -142.41569385449156 0 0
          -941.028994826539 941.0289948259078 0 1259.0578577936694 0 0
          297.63388188965865 -297.6338818985582 0 -239.5672189370149 0 0
          23632.7201264738 -23632.72012647393 0 -22910.616398664348 0 0
          -38631.29511831893 38631.29511832391 0 20515.45309310931 0 0
          <InformationKey name="L2_NORM_RANGE" location="vtkDataArray" length="2">
            <Value index="0">
              420.40912206
            </Value>
            <Value index="1">
              58357.842152
            </Value>
          </InformationKey>
        </DataArray>
        <DataArray type="Float64" Name="Press" format="ascii" RangeMin="-47044.1039337074" RangeMax="35744.434190264205">
          -26295.757073071552 17063.461662842044 -10737.514791971429 5047.192452477164 -2472.9127485397803 -691.1570759416027
          149.22388316863362 -1956.7891333896987 1315.0212575386631 -342.99329635823506 638.4218802539976 35744.434190264205
          -47044.1039337074
        </DataArray>
        <DataArray type="Float64" Name="Dev strain" NumberOfComponents="6" format="ascii" RangeMin="0" RangeMax="0">
          0 0 0 0 0 0
          0 0 0 0 0 0
          0 0 0 0 0 0
          0 0 0 0 0 0
          0 0 0 0 0 0
          0 0 0 0 0 0
          0 0 0 0 0 0
          0 0 0 0 0 0
          0 0 0 0 0 0
          0 0 0 0 0 0
          0 0 0 0 0 0
          0 0 0 0 0 0
          0 0 0 0 0 0
          <InformationKey name="L2_NORM_RANGE" location="vtkDataArray" length="2">
            <Value index="0">
              0
            </Value>
            <Value index="1">
              0
            </Value>
          </InformationKey>
        </DataArray>
        <DataArray type="Float64" Name="J2 Stresses" format="ascii" RangeMin="84518.07449863038" RangeMax="1597597916.422736">
          521259795.0532673 126146149.03339264 92615585.39268836 8513770.797605075 3555675.662410536 3723040.0062031094
          84518.07449863038 2951969.373600249 2116685.099901427 1281842.2414216485 102934.04074865999 689729546.5179298
          1597597916.422736
        </DataArray>
      </PointData>
      <CellData>
        <DataArray type="UInt8" Name="vtkGhostType" format="ascii" RangeMin="0" RangeMax="1">
          1 1 0 0 0 0
          0 0 0 0 0
        </DataArray>
        <DataArray type="Float64" Name="Gauss Stress" NumberOfComponents="6" format="ascii" RangeMin="253.05920444171755" RangeMax="25081.539718850756">
          -24901.36144671114 -162.25643096797512 0 2996.58232310504 0 0
          12318.961602944524 5355.79758374933 0 -8390.021561037085 0 0
          -14146.019597173039 832.8127957107856 0 945.4893409073688 0 0
          -5967.270144910248 525.1134195577587 0 424.35581345076776 0 0
          4101.778914431189 3480.313967806232 0 -4594.153008196492 0 0
          -2110.9766847897117 101.07939057752503 0 154.1155890056864 0 0
          -142.87083458314964 1398.2859199102663 0 -1631.9428736658551 0 0
          -155.384460537749 -172.97820124604306 0 99.86577126198529 0 0
          -1926.301846187592 260.48696208421325 0 -210.32224884680662 0 0
          806.731425091674 266.90180252150157 0 292.35831500072095 0 0
          -727.8046840486513 71.29723591737707 0 478.16551866880707 0 0
          <InformationKey name="L2_NORM_RANGE" location="vtkDataArray" length="2">
            <Value index="0">
              253.05920444
            </Value>
            <Value index="1">
              25081.539719
            </Value>
          </InformationKey>
        </DataArray>
        <DataArray type="Float64" Name="Gauss Strain" NumberOfComponents="6" format="ascii" RangeMin="0" RangeMax="0">
          0 0 0 0 0 0
          0 0 0 0 0 0
          0 0 0 0 0 0
          0 0 0 0 0 0
          0 0 0 0 0 0
          0 0 0 0 0 0
          0 0 0 0 0 0
          0 0 0 0 0 0
          0 0 0 0 0 0
          0 0 0 0 0 0
          0 0 0 0 0 0
          <InformationKey name="L2_NORM_RANGE" location="vtkDataArray" length="2">
            <Value index="0">
              0
            </Value>
            <Value index="1">
              0
            </Value>
          </InformationKey>
        </DataArray>
      </CellData>
      <Points>
        <DataArray type="Float32" Name="Points" NumberOfComponents="3" format="ascii" RangeMin="0.4000000059604645" RangeMax="1.0012492197622458">
          0.5 0 0 0.6000000238418579 0.05000000074505806 0
          0.6000000238418579 0 0 0.699999988079071 0.05000000074505806 0
          0.699999988079071 0 0 0.800000011920929 0.05000000074505806 0
          0.800000011920929 0 0 0.8999999761581421 0.05000000074505806 0
          0.8999999761581421 0 0 1 0.05000000074505806 0
          1 0 0 0.5 0.05000000074505806 0
          0.4000000059604645 0 0
          <InformationKey name="L2_NORM_RANGE" location="vtkDataArray" length="2">
            <Value index="0">
              0.40000000596
            </Value>
            <Value index="1">
              1.0012492198
            </Value>
          </InformationKey>
        </DataArray>
      </Points>
      <Cells>
        <DataArray type="Int64" Name="connectivity" format="ascii" RangeMin="0" RangeMax="12">
          0 11 12 1 11 0
          2 1 0 4 3 2
          3 1 2 6 5 4
          5 3 4 8 7 6
          7 5 6 10 9 8
          9 7 8
        </DataArray>
        <DataArray type="Int64" Name="offsets" format="ascii" RangeMin="3" RangeMax="33">
          3 6 9 12 15 18
          21 24 27 30 33
        </DataArray>
        <DataArray type="UInt8" Name="types" format="ascii" RangeMin="5" RangeMax="5">
          5 5 5 5 5 5
          5 5 5 5 5
        </DataArray>
      </Cells>
    </Piece>
  </UnstructuredGrid>
</VTKFile>
