<?xml version="1.0"?>
<VTKFile type="UnstructuredGrid" version="0.1" byte_order="LittleEndian" header_type="UInt32" compressor="vtkZLibDataCompressor">
  <UnstructuredGrid>
    <Piece NumberOfPoints="13" NumberOfCells="11">
      <PointData>
        <DataArray type="Float64" Name="Disp" NumberOfComponents="3" format="ascii" RangeMin="0.0006806417833960817" RangeMax="0.021794994330169626">
          -0.00023860231865751973 0.001929548944411441 0 0.0007287393270830618 0.000018703046798212997 0
          -0.0006796809754286252 0.00003615257867692345 0 0.0010760253043471076 -0.003704125494782405 0
          -0.0011604287223062311 -0.0036423378592819744 0 0.001216901454187738 -0.008893975699930466 0
          -0.0016590203832858499 -0.008778961052925527 0 0.001175711415518616 -0.01516856851710037 0
          -0.0020795914611571823 -0.015035893603221578 0 0.0008756024617060871 -0.02177739879281225 0
          -0.0023784261565596414 -0.02162214143985812 0 0.00030967237121175707 0.0019287553477196281 0
          0.0000710053486821802 0.0022983217568136004 0
          <InformationKey name="L2_NORM_RANGE" location="vtkDataArray" length="2">
            <Value index="0">
              0.0006806417834
            </Value>
            <Value index="1">
              0.02179499433
            </Value>
          </InformationKey>
        </DataArray>
        <DataArray type="Float64" Name="Nodal Stress" NumberOfComponents="6" format="ascii" RangeMin="8245.843616411092" RangeMax="25146.134621306977">
          -20399.423389799456 -2147.692627049833 0 3523.350765130732 0 0
          25034.074246686876 769.1775409852356 0 -2243.1181232173717 0 0
          -23086.055246637225 -1461.3049939806288 0 2287.7669384427936 0 0
          22739.098759694512 1768.295557595632 0 -4521.194296690935 0 0
          -21210.946796080665 -580.245480847321 0 1338.2868183544165 0 0
          17311.282197647568 2077.0694435229443 0 -5055.516770003336 0 0
          -16254.87533817604 211.96868315906488 0 504.6120174287729 0 0
          10121.541767598646 2477.016442634949 0 -4427.774592826979 0 0
          -11814.249712175106 367.72274412038723 0 -1375.304813672915 0 0
          5244.332414408024 305.0628145859363 0 -6381.977801985114 0 0
          -7905.876019236811 -1236.8541659921093 0 -1990.2896992226642 0 0
          22812.494168822876 -106.7581830239901 0 581.5353856179642 0 0
          -14545.230157666501 -2096.299828733112 0 3727.0854958149816 0 0
          <InformationKey name="L2_NORM_RANGE" location="vtkDataArray" length="2">
            <Value index="0">
              8245.8436164
            </Value>
            <Value index="1">
              25146.134621
            </Value>
          </InformationKey>
        </DataArray>
        <DataArray type="Float64" Name="Nodal Strain" NumberOfComponents="6" format="ascii" RangeMin="0" RangeMax="0">
          0 0 0 0 0 0
          0 0 0 0 0 0
          0 0 0 0 0 0
          0 0 0 0 0 0
          0 0 0 0 0 0
          0 0 0 0 0 0
          0 0 0 0 0 0
          0 0 0 0 0 0
          0 0 0 0 0 0
          0 0 0 0 0 0
          0 0 0 0 0 0
          0 0 0 0 0 0
          0 0 0 0 0 0
          <InformationKey name="L2_NORM_RANGE" location="vtkDataArray" length="2">
            <Value index="0">
              0
            </Value>
            <Value index="1">
              0
            </Value>
          </InformationKey>
        </DataArray>
        <DataArray type="Float64" Name="Sld_traction" NumberOfComponents="3" format="ascii" RangeMin="138.79574430782998" RangeMax="8667.871167321802">
          -6956.0494575342955 4433.71666714079 0 -5338.68252861798 3185.8631477624285 0
          -6183.497856035999 3972.4854302415924 0 -7679.336511554137 3950.801354689821 0
          -4870.99240217067 2798.0836500478777 0 -7769.954826551283 3841.8475459915167 0
          -2897.4333528294173 1646.6372457666312 0 -6856.920736595149 3462.319082315453 0
          -1020.6642468044253 692.4737915680073 0 -2455.7210103772686 -2009.9175757119003 0
          -53.67334055839948 -127.99777791534736 0 -1898.4841093221446 1970.8654256850923 0
          -5833.440985090687 3820.997271885165 0
          <InformationKey name="L2_NORM_RANGE" location="vtkDataArray" length="2">
            <Value index="0">
              138.79574431
            </Value>
            <Value index="1">
              8667.8711673
            </Value>
          </InformationKey>
        </DataArray>
        <DataArray type="Float64" Name="Velocity" NumberOfComponents="3" format="ascii" RangeMin="0.5389177627017684" RangeMax="9.163716291928859">
          -0.4662128410843347 0.3344892609351421 0 0.5356161179624443 -1.85569312257014 0
          -0.5980711421067972 -1.8233447311710729 0 0.3143507681400331 -3.9987679028123253 0
          -0.5495262790608957 -3.9264228163832797 0 0.06894512762478827 -5.421966707777379 0
          -0.6660803910671366 -5.361275953136095 0 0.0934674662161427 -7.1382646256101525 0
          -0.8772523169096705 -7.083943774212618 0 -0.02093221485814132 -9.157323141471634 0
          -1.037889364457121 -9.104750515313926 0 0.42097371218133417 0.33647212159069995 0
          -0.17793406180260407 1.5588962299885951 0
          <InformationKey name="L2_NORM_RANGE" location="vtkDataArray" length="2">
            <Value index="0">
              0.5389177627
            </Value>
            <Value index="1">
              9.1637162919
            </Value>
          </InformationKey>
        </DataArray>
        <DataArray type="Float64" Name="Acceleration" NumberOfComponents="3" format="ascii" RangeMin="306.9845657126449" RangeMax="2799.4662302696056">
          -437.59843977030783 -1903.5465831449537 0 -181.99663940481565 -2793.5440568684917 0
          34.988406382010794 -2706.6451896760045 0 -832.8281207792056 -1147.4973252587338 0
          214.9740450036848 -1069.3447334065877 0 -169.48839275941373 255.9554811009366 0
          -711.7966814968529 93.67708315799428 0 491.30896979550437 -2424.089295563868 0
          81.64224206738072 -2478.6676738405217 0 -641.0402226599386 -406.5218667987265 0
          606.6115381110412 -627.4851046843014 0 328.38864261396964 -1917.9373688063838 0
          -452.5552116446015 -171.09759103690817 0
          <InformationKey name="L2_NORM_RANGE" location="vtkDataArray" length="2">
            <Value index="0">
              306.98456571
            </Value>
            <Value index="1">
              2799.4662303
            </Value>
          </InformationKey>
        </DataArray>
        <DataArray type="Float64" Name="Sigma" NumberOfComponents="6" format="ascii" RangeMin="5372.081697080355" RangeMax="50428.509759228145">
          -31002.29442777858 31002.29442777653 0 8072.856812386021 0 0
          35249.20601281299 -35249.20601281356 0 -7617.187635148901 0 0
          -33989.389529718486 33989.38952972229 0 8204.490474778646 0 0
          32383.215382419825 -32383.215382423026 0 -11235.33335050167 0 0
          -30440.287452115466 30440.28745211789 0 7956.876989049425 0 0
          24809.625515996486 -24809.625515998814 0 -11460.650417251072 0 0
          -21797.39932237588 21797.399322380104 0 5589.234711442204 0 0
          14433.577044374088 -14433.577044370708 0 -7693.11524841744 0 0
          -16193.291631349424 16193.291631352928 0 2916.159414104219 0 0
          10365.23588979607 -10365.23588979198 0 -12501.266662630132 0 0
          -3754.9939824697785 3754.9939824624707 0 811.9742258176284 0 0
          31329.84002304547 -31329.840023042856 0 -2449.7749497600234 0 0
          -23000.57323537098 23000.573235371467 0 5835.495463989293 0 0
          <InformationKey name="L2_NORM_RANGE" location="vtkDataArray" length="2">
            <Value index="0">
              5372.0816971
            </Value>
            <Value index="1">
              50428.509759
            </Value>
          </InformationKey>
        </DataArray>
        <DataArray type="Float64" Name="Press" format="ascii" RangeMin="-38341.63521256087" RangeMax="38692.07793758626">
          -35721.27569995464 38692.07793758626 -38341.63521256087 37107.782853075 -33523.33269894903 29072.276739832378
          -23919.6999549634 19439.659992383684 -16391.730946600874 10423.550839755233 -6158.640131804342 33276.40668600663
          -26921.630638369297
        </DataArray>
        <DataArray type="Float64" Name="Dev strain" NumberOfComponents="6" format="ascii" RangeMin="0" RangeMax="0">
          0 0 0 0 0 0
          0 0 0 0 0 0
          0 0 0 0 0 0
          0 0 0 0 0 0
          0 0 0 0 0 0
          0 0 0 0 0 0
          0 0 0 0 0 0
          0 0 0 0 0 0
          0 0 0 0 0 0
          0 0 0 0 0 0
          0 0 0 0 0 0
          0 0 0 0 0 0
          0 0 0 0 0 0
          <InformationKey name="L2_NORM_RANGE" location="vtkDataArray" length="2">
            <Value index="0">
              0
            </Value>
            <Value index="1">
              0
            </Value>
          </InformationKey>
        </DataArray>
        <DataArray type="Float64" Name="J2 Stresses" format="ascii" RangeMin="14264805.344204841" RangeMax="1257011911.4010177">
          977435014.0649291 1257011911.4010177 1172107016.5907488 1080230817.3785195 942439073.0222081 648354145.2406511
          482936503.38410205 223124151.85219204 264348690.29010522 146508532.09362102 14264805.344204841 983059225.1956576
          537539620.9832349
        </DataArray>
      </PointData>
      <CellData>
        <DataArray type="UInt8" Name="vtkGhostType" format="ascii" RangeMin="0" RangeMax="1">
          1 1 0 0 0 0
          0 0 0 0 0
        </DataArray>
        <DataArray type="Float64" Name="Gauss Stress" NumberOfComponents="6" format="ascii" RangeMin="7851.093945441931" RangeMax="23998.437603977924">
          -17346.509097473798 -2231.1573374040536 0 3819.525775538432 0 0
          23941.320177239388 223.48577185278828 0 -664.7019241743028 0 0
          -21704.436973204454 -1876.118343414665 0 2886.719884005256 0 0
          -22267.88221928302 -903.5744863392486 0 1642.0113711088006 0 0
          23700.419147871577 1271.7312375286956 0 -3549.343503623976 0 0
          -18599.605724191642 -314.2315518602875 0 695.1537610801856 0 0
          19803.093446753068 1968.0578158847998 0 -4913.0355929011075 0 0
          -14809.628272843938 895.1143333939135 0 270.75962570966226 0 0
          14012.68000508246 2382.1445130877496 0 -4521.510318075437 0 0
          -7236.62332089104 -847.9235048755213 0 -2924.377674236094 0 0
          7359.000396119593 1621.9861942427617 0 -5759.407498981119 0 0
          <InformationKey name="L2_NORM_RANGE" location="vtkDataArray" length="2">
            <Value index="0">
              7851.0939454
            </Value>
            <Value index="1">
              23998.437604
            </Value>
          </InformationKey>
        </DataArray>
        <DataArray type="Float64" Name="Gauss Strain" NumberOfComponents="6" format="ascii" RangeMin="0" RangeMax="0">
          0 0 0 0 0 0
          0 0 0 0 0 0
          0 0 0 0 0 0
          0 0 0 0 0 0
          0 0 0 0 0 0
          0 0 0 0 0 0
          0 0 0 0 0 0
          0 0 0 0 0 0
          0 0 0 0 0 0
          0 0 0 0 0 0
          0 0 0 0 0 0
          <InformationKey name="L2_NORM_RANGE" location="vtkDataArray" length="2">
            <Value index="0">
              0
            </Value>
            <Value index="1">
              0
            </Value>
          </InformationKey>
        </DataArray>
      </CellData>
      <Points>
        <DataArray type="Float32" Name="Points" NumberOfComponents="3" format="ascii" RangeMin="0.4000000059604645" RangeMax="1.0012492197622458">
          0.5 0 0 0.6000000238418579 0.05000000074505806 0
          0.6000000238418579 0 0 0.699999988079071 0.05000000074505806 0
          0.699999988079071 0 0 0.800000011920929 0.05000000074505806 0
          0.800000011920929 0 0 0.8999999761581421 0.05000000074505806 0
          0.8999999761581421 0 0 1 0.05000000074505806 0
          1 0 0 0.5 0.05000000074505806 0
          0.4000000059604645 0 0
          <InformationKey name="L2_NORM_RANGE" location="vtkDataArray" length="2">
            <Value index="0">
              0.40000000596
            </Value>
            <Value index="1">
              1.0012492198
            </Value>
          </InformationKey>
        </DataArray>
      </Points>
      <Cells>
        <DataArray type="Int64" Name="connectivity" format="ascii" RangeMin="0" RangeMax="12">
          0 11 12 1 11 0
          2 1 0 4 3 2
          3 1 2 6 5 4
          5 3 4 8 7 6
          7 5 6 10 9 8
          9 7 8
        </DataArray>
        <DataArray type="Int64" Name="offsets" format="ascii" RangeMin="3" RangeMax="33">
          3 6 9 12 15 18
          21 24 27 30 33
        </DataArray>
        <DataArray type="UInt8" Name="types" format="ascii" RangeMin="5" RangeMax="5">
          5 5 5 5 5 5
          5 5 5 5 5
        </DataArray>
      </Cells>
    </Piece>
  </UnstructuredGrid>
</VTKFile>
