<?xml version="1.0"?>
<VTKFile type="UnstructuredGrid" version="0.1" byte_order="LittleEndian" header_type="UInt32" compressor="vtkZLibDataCompressor">
  <UnstructuredGrid>
    <Piece NumberOfPoints="13" NumberOfCells="11">
      <PointData>
        <DataArray type="Float64" Name="Disp" NumberOfComponents="3" format="ascii" RangeMin="0" RangeMax="0.0022994183302270667">
          0 0 0 0 0 0
          -0.000089864176856566 0.0002179067927199818 0 0.00014708368462197565 0.00022032602723470328 0
          -0.00017220315597112762 0.0009234586763072509 0 0.00022209882291397394 0.0009270010870689677 0
          -0.00014759879517741098 0.0017443140255539464 0 0.00021357267313880596 0.0017516648487579303 0
          -0.000002374472805531788 0.002295113494969983 0 0.0000710053486821802 0.0022983217568136004 0
          0.00030967237121175707 0.0019287553477196281 0 -0.00023860231865751973 0.001929548944411441 0
          0.0007287393270830618 0.000018703046798212997 0
          <InformationKey name="L2_NORM_RANGE" location="vtkDataArray" length="2">
            <Value index="0">
              0
            </Value>
            <Value index="1">
              0.0022994183302
            </Value>
          </InformationKey>
        </DataArray>
        <DataArray type="Float64" Name="Nodal Stress" NumberOfComponents="6" format="ascii" RangeMin="2418.2798926562523" RangeMax="25146.134621306977">
          -6837.267705700502 -325.4929244946962 0 3525.729806501704 0 0
          3843.4616084344398 -203.50437957720376 0 1525.5765770018204 0 0
          -2227.8236209438564 -580.9416359156088 0 1700.5071335677483 0 0
          3671.812323205511 -484.51106458633444 0 835.4155832927736 0 0
          2674.5644426558342 -578.5921852714108 0 2361.9756381224256 0 0
          -1178.0470301182622 -838.1239436233574 0 1938.512597116745 0 0
          9289.451758617832 -566.3055578373138 0 2683.491974221896 0 0
          -7431.404821106282 -1528.523342728311 0 3079.4890614864435 0 0
          16786.44074742805 -486.8018554682749 0 2360.37081128609 0 0
          -14545.230157666501 -2096.299828733112 0 3727.0854958149816 0 0
          22812.494168822876 -106.7581830239901 0 581.5353856179642 0 0
          -20399.423389799456 -2147.692627049833 0 3523.350765130732 0 0
          25034.074246686876 769.1775409852356 0 -2243.1181232173717 0 0
          <InformationKey name="L2_NORM_RANGE" location="vtkDataArray" length="2">
            <Value index="0">
              2418.2798927
            </Value>
            <Value index="1">
              25146.134621
            </Value>
          </InformationKey>
        </DataArray>
        <DataArray type="Float64" Name="Nodal Strain" NumberOfComponents="6" format="ascii" RangeMin="0" RangeMax="0">
          0 0 0 0 0 0
          0 0 0 0 0 0
          0 0 0 0 0 0
          0 0 0 0 0 0
          0 0 0 0 0 0
          0 0 0 0 0 0
          0 0 0 0 0 0
          0 0 0 0 0 0
          0 0 0 0 0 0
          0 0 0 0 0 0
          0 0 0 0 0 0
          0 0 0 0 0 0
          0 0 0 0 0 0
          <InformationKey name="L2_NORM_RANGE" location="vtkDataArray" length="2">
            <Value index="0">
              0
            </Value>
            <Value index="1">
              0
            </Value>
          </InformationKey>
        </DataArray>
        <DataArray type="Float64" Name="Sld_traction" NumberOfComponents="3" format="ascii" RangeMin="347.49886549761214" RangeMax="8248.907051248983">
          4886.692307048412 -1730.4745329827956 0 -1726.9926743085698 -871.825603447176 0
          2735.8004431808317 -812.7547433856403 0 -2.825230409927338 347.4873804834621 0
          3221.2971811882117 -552.7151338931651 0 -1338.4409513380024 1163.991049294988 0
          2687.5992404344897 27.646751883900755 0 -3684.0727561346343 2522.662232416608 0
          1090.351976196081 882.8974368923015 0 -5833.440985090687 3820.997271885165 0
          -1898.4841093221446 1970.8654256850923 0 -6956.0494575342955 4433.71666714079 0
          -5338.68252861798 3185.8631477624285 0
          <InformationKey name="L2_NORM_RANGE" location="vtkDataArray" length="2">
            <Value index="0">
              347.4988655
            </Value>
            <Value index="1">
              8248.9070512
            </Value>
          </InformationKey>
        </DataArray>
        <DataArray type="Float64" Name="Velocity" NumberOfComponents="3" format="ascii" RangeMin="0" RangeMax="1.9314454667360599">
          0 0 0 0 0 0
          -0.10295191753883505 0.26312321936318656 0 0.17469784169672958 0.2667977279219957 0
          -0.18674915678490533 1.0451927568153034 0 0.1923418858529114 1.0489100275684218 0
          -0.07922280861351932 1.6579751193369248 0 0.07196476079073416 1.6610133037418509 0
          0.14191850058628944 1.5613061733015798 0 -0.17793406180260407 1.5588962299885951 0
          0.42097371218133417 0.33647212159069995 0 -0.4662128410843347 0.3344892609351421 0
          0.5356161179624443 -1.85569312257014 0
          <InformationKey name="L2_NORM_RANGE" location="vtkDataArray" length="2">
            <Value index="0">
              0
            </Value>
            <Value index="1">
              1.9314454667
            </Value>
          </InformationKey>
        </DataArray>
        <DataArray type="Float64" Name="Acceleration" NumberOfComponents="3" format="ascii" RangeMin="0" RangeMax="2799.4662302696056">
          0 0 0 0 0 0
          -92.72065515981585 256.17325685834476 0 168.4590724334288 262.79732920675156 0
          -159.64423575783732 920.1370449737584 0 65.98597972426981 926.7483557704912 0
          69.83170583125566 956.6082391015486 0 -196.78320797367704 947.4056671914473 0
          312.65446737359804 -161.15251039694522 0 -452.5552116446015 -171.09759103690817 0
          328.38864261396964 -1917.9373688063838 0 -437.59843977030783 -1903.5465831449537 0
          -181.99663940481565 -2793.5440568684917 0
          <InformationKey name="L2_NORM_RANGE" location="vtkDataArray" length="2">
            <Value index="0">
              0
            </Value>
            <Value index="1">
              2799.4662303
            </Value>
          </InformationKey>
        </DataArray>
        <DataArray type="Float64" Name="Sigma" NumberOfComponents="6" format="ascii" RangeMin="4482.514754166694" RangeMax="50428.509759228145">
          -7837.081756795233 7837.081756795815 0 5766.807591414516 0 0
          7142.551255618739 -7142.551255618258 0 888.8074413782033 0 0
          -4491.9373044389795 4491.937304439154 0 1680.496601799583 0 0
          4424.325597489107 -4424.325597489544 0 -471.14810191530705 0 0
          1759.916330746426 -1759.9163307461931 0 3728.0460752070903 0 0
          -3292.1971000274134 3292.1971000293197 0 1148.9464807555632 0 0
          11184.747739986007 -11184.747739984203 0 2939.1447599807907 0 0
          -12603.168878237346 12603.168878235621 0 3506.7355026832884 0 0
          22038.054482592706 -22038.054482593725 0 1527.3455206716972 0 0
          -23000.57323537098 23000.573235371467 0 5835.495463989293 0 0
          31329.84002304547 -31329.840023042856 0 -2449.7749497600234 0 0
          -31002.29442777858 31002.29442777653 0 8072.856812386021 0 0
          35249.20601281299 -35249.20601281356 0 -7617.187635148901 0 0
          <InformationKey name="L2_NORM_RANGE" location="vtkDataArray" length="2">
            <Value index="0">
              4482.5147542
            </Value>
            <Value index="1">
              50428.509759
            </Value>
          </InformationKey>
        </DataArray>
        <DataArray type="Float64" Name="Press" format="ascii" RangeMin="-35721.27569995464" RangeMax="38692.07793758626">
          -8109.903950309526 7384.443683872407 -5490.157043644664 4098.044821517833 1218.999718294348 -4313.032715088142
          11179.551290617943 -15117.853930724443 22884.34834276689 -26921.630638369297 33276.40668600663 -35721.27569995464
          38692.07793758626
        </DataArray>
        <DataArray type="Float64" Name="Dev strain" NumberOfComponents="6" format="ascii" RangeMin="0" RangeMax="0">
          0 0 0 0 0 0
          0 0 0 0 0 0
          0 0 0 0 0 0
          0 0 0 0 0 0
          0 0 0 0 0 0
          0 0 0 0 0 0
          0 0 0 0 0 0
          0 0 0 0 0 0
          0 0 0 0 0 0
          0 0 0 0 0 0
          0 0 0 0 0 0
          0 0 0 0 0 0
          0 0 0 0 0 0
          <InformationKey name="L2_NORM_RANGE" location="vtkDataArray" length="2">
            <Value index="0">
              0
            </Value>
            <Value index="1">
              0
            </Value>
          </InformationKey>
        </DataArray>
        <DataArray type="Float64" Name="J2 Stresses" format="ascii" RangeMin="6571887.3759443015" RangeMax="1257011911.4010177">
          69733867.91179623 51213533.10609971 20883517.95417629 19630152.126083877 6571887.3759443015 11168581.249345332
          127258224.98713255 161914164.24479353 486259041.4626259 537539620.9832349 983059225.1956576 977435014.0649291
          1257011911.4010177
        </DataArray>
      </PointData>
      <CellData>
        <DataArray type="UInt8" Name="vtkGhostType" format="ascii" RangeMin="0" RangeMax="0">
          0 0 0 0 0 0
          0 0 0 0 0
        </DataArray>
        <DataArray type="Float64" Name="Gauss Stress" NumberOfComponents="6" format="ascii" RangeMin="1830.7736964207375" RangeMax="23951.588389234472">
          4355.757003471481 -360.8693623076906 0 699.3853137541596 0 0
          -3800.695038565753 -343.0498348216908 0 2778.7038781974343 0 0
          1298.6855509773845 -629.3443344941263 0 1468.614818015782 0 0
          506.39737332135746 -621.8057092096885 0 1645.798191697122 0 0
          -4320.651197824468 -1180.2390389713016 0 2531.608914473214 0 0
          5912.66175484306 -522.3162256256423 0 2605.3791053144814 0 0
          -10906.94128578083 -1863.1495317711626 0 3623.1921624480933 0 0
          13188.559682333927 -557.8625472273059 0 2657.741927778591 0 0
          -17346.509097473798 -2231.1573374040536 0 3819.525775538432 0 0
          19868.815220223816 -376.0656266202941 0 1637.688678300322 0 0
          23941.320177239388 223.48577185278828 0 -664.7019241743028 0 0
          <InformationKey name="L2_NORM_RANGE" location="vtkDataArray" length="2">
            <Value index="0">
              1830.7736964
            </Value>
            <Value index="1">
              23951.588389
            </Value>
          </InformationKey>
        </DataArray>
        <DataArray type="Float64" Name="Gauss Strain" NumberOfComponents="6" format="ascii" RangeMin="0" RangeMax="0">
          0 0 0 0 0 0
          0 0 0 0 0 0
          0 0 0 0 0 0
          0 0 0 0 0 0
          0 0 0 0 0 0
          0 0 0 0 0 0
          0 0 0 0 0 0
          0 0 0 0 0 0
          0 0 0 0 0 0
          0 0 0 0 0 0
          0 0 0 0 0 0
          <InformationKey name="L2_NORM_RANGE" location="vtkDataArray" length="2">
            <Value index="0">
              0
            </Value>
            <Value index="1">
              0
            </Value>
          </InformationKey>
        </DataArray>
      </CellData>
      <Points>
        <DataArray type="Float32" Name="Points" NumberOfComponents="3" format="ascii" RangeMin="0" RangeMax="0.6020797527609908">
          0 0.05000000074505806 0 0 0 0
          0.10000000149011612 0.05000000074505806 0 0.10000000149011612 0 0
          0.20000000298023224 0.05000000074505806 0 0.20000000298023224 0 0
          0.30000001192092896 0.05000000074505806 0 0.30000001192092896 0 0
          0.4000000059604645 0.05000000074505806 0 0.4000000059604645 0 0
          0.5 0.05000000074505806 0 0.5 0 0
          0.6000000238418579 0.05000000074505806 0
          <InformationKey name="L2_NORM_RANGE" location="vtkDataArray" length="2">
            <Value index="0">
              0
            </Value>
            <Value index="1">
              0.60207975276
            </Value>
          </InformationKey>
        </DataArray>
      </Points>
      <Cells>
        <DataArray type="Int64" Name="connectivity" format="ascii" RangeMin="0" RangeMax="12">
          3 2 1 2 0 1
          5 4 3 4 2 3
          7 6 5 6 4 5
          9 8 7 8 6 7
          11 10 9 10 8 9
          12 10 11
        </DataArray>
        <DataArray type="Int64" Name="offsets" format="ascii" RangeMin="3" RangeMax="33">
          3 6 9 12 15 18
          21 24 27 30 33
        </DataArray>
        <DataArray type="UInt8" Name="types" format="ascii" RangeMin="5" RangeMax="5">
          5 5 5 5 5 5
          5 5 5 5 5
        </DataArray>
      </Cells>
    </Piece>
  </UnstructuredGrid>
</VTKFile>
