<?xml version="1.0"?>
<VTKFile type="UnstructuredGrid" version="0.1" byte_order="LittleEndian" header_type="UInt32" compressor="vtkZLibDataCompressor">
  <UnstructuredGrid>
    <Piece NumberOfPoints="13" NumberOfCells="11">
      <PointData>
        <DataArray type="Float64" Name="Disp" NumberOfComponents="3" format="ascii" RangeMin="0" RangeMax="0.04537342279819762">
          0 0 0 0 0 0
          0.0006855869132213376 -0.0013489990024509234 0 -0.0007875641777318227 -0.0013173638781611352 0
          0.001237969040667835 -0.005868597949929614 0 -0.0016130044782679423 -0.005763268094246286 0
          0.0014743468549886145 -0.01278547119308474 0 -0.002541713441195629 -0.012573318971195433 0
          0.0014218362176528056 -0.02204017225476721 0 -0.0036665180871556383 -0.021699065747828112 0
          0.0009851841497564445 -0.033148428013097954 0 -0.004856777888839588 -0.03270279441207309 0
          0.00021988696543496326 -0.0453728899911217 0
          <InformationKey name="L2_NORM_RANGE" location="vtkDataArray" length="2">
            <Value index="0">
              0
            </Value>
            <Value index="1">
              0.045373422798
            </Value>
          </InformationKey>
        </DataArray>
        <DataArray type="Float64" Name="Nodal Stress" NumberOfComponents="6" format="ascii" RangeMin="11067.283887612257" RangeMax="80518.83352772114">
          77379.22042075194 -980.2280494809944 0 -22243.604759853286 0 0
          -40513.450466735674 -5509.073636096574 0 -1069.6167800630062 0 0
          55432.99143063029 4075.8540617960707 0 -8080.434266760024 0 0
          -51410.307106703774 -1213.1127805298902 0 3621.444443442902 0 0
          43952.24433016663 3892.910358382689 0 -9752.348542044432 0 0
          -45676.98061154682 -2695.513019305502 0 3992.5207595492766 0 0
          38139.70954165505 4030.94176469337 0 -9203.677594525529 0 0
          -39578.10209428952 -1648.7163334147017 0 3785.466380412517 0 0
          28419.844202789503 4738.737916753454 0 -9523.377796583398 0 0
          -31959.23584978815 -173.55442269301813 0 2345.856922493776 0 0
          18269.114371989934 4869.468341304198 0 -8207.550752350407 0 0
          -21794.027802499466 1194.0017161516846 0 439.32267088999015 0 0
          8954.455438074257 3896.1915805632802 0 -5207.897044306083 0 0
          <InformationKey name="L2_NORM_RANGE" location="vtkDataArray" length="2">
            <Value index="0">
              11067.283888
            </Value>
            <Value index="1">
              80518.833528
            </Value>
          </InformationKey>
        </DataArray>
        <DataArray type="Float64" Name="Nodal Strain" NumberOfComponents="6" format="ascii" RangeMin="0" RangeMax="0">
          0 0 0 0 0 0
          0 0 0 0 0 0
          0 0 0 0 0 0
          0 0 0 0 0 0
          0 0 0 0 0 0
          0 0 0 0 0 0
          0 0 0 0 0 0
          0 0 0 0 0 0
          0 0 0 0 0 0
          0 0 0 0 0 0
          0 0 0 0 0 0
          0 0 0 0 0 0
          0 0 0 0 0 0
          <InformationKey name="L2_NORM_RANGE" location="vtkDataArray" length="2">
            <Value index="0">
              0
            </Value>
            <Value index="1">
              0
            </Value>
          </InformationKey>
        </DataArray>
        <DataArray type="Float64" Name="Sld_traction" NumberOfComponents="3" format="ascii" RangeMin="1720.424748233745" RangeMax="38136.9422644864">
          -36569.18960540941 10822.233451944461 0 12732.708820495489 10670.28164451123 0
          -15855.692812059537 10250.718075760067 0 -10688.358923779657 7738.076294162205 0
          -14573.73543885477 8663.766862672783 0 -10092.965692693298 7662.18512066941 0
          -13264.10774634487 8453.37946663666 0 -7895.931884746606 6379.305323994213 0
          -12461.009382330083 8088.650567984856 0 -4828.529942309312 3825.97056736844 0
          -10163.096695095031 6963.711987885757 0 -1165.8103588738877 1265.2065133714268 0
          -5815.737908785787 4881.952052663109 0
          <InformationKey name="L2_NORM_RANGE" location="vtkDataArray" length="2">
            <Value index="0">
              1720.4247482
            </Value>
            <Value index="1">
              38136.942264
            </Value>
          </InformationKey>
        </DataArray>
        <DataArray type="Float64" Name="Velocity" NumberOfComponents="3" format="ascii" RangeMin="0" RangeMax="10.03728358133105">
          0 0 0 0 0 0
          0.24388829731063594 -0.6081625502450267 0 -0.36719654197432466 -0.6107562924696712 0
          0.28206995566098464 -2.266861952998147 0 -0.5654995637170204 -2.2272226134553876 0
          0.15305653211285183 -4.017967508722482 0 -0.8007705917120899 -3.95647771852253 0
          -0.010742977659294536 -6.166720134624098 0 -1.103866488289639 -6.059727016983811 0
          -0.3853336868096576 -8.30764272858489 0 -1.3339682192744302 -8.173604337997451 0
          -0.7564654734736556 -10.008737266983289 0
          <InformationKey name="L2_NORM_RANGE" location="vtkDataArray" length="2">
            <Value index="0">
              0
            </Value>
            <Value index="1">
              10.037283581
            </Value>
          </InformationKey>
        </DataArray>
        <DataArray type="Float64" Name="Acceleration" NumberOfComponents="3" format="ascii" RangeMin="0" RangeMax="2114.193368766721">
          0 0 0 0 0 0
          -257.9216427806379 899.2648189038971 0 239.71981389315704 725.8729154097449 0
          -216.82618729159708 1233.268631328212 0 -828.1885449969498 1064.6207307550962 0
          149.24557421936743 -1283.3912703584865 0 -770.4546230068282 -1561.3703824491845 0
          -176.18452971729238 -1668.9551522614106 0 325.7032858914089 -2088.9545160430653 0
          -428.60824960136915 303.8267716734331 0 671.3232281586847 210.84151576505428 0
          189.73639264200006 1766.3799059447792 0
          <InformationKey name="L2_NORM_RANGE" location="vtkDataArray" length="2">
            <Value index="0">
              0
            </Value>
            <Value index="1">
              2114.1933688
            </Value>
          </InformationKey>
        </DataArray>
        <DataArray type="Float64" Name="Sigma" NumberOfComponents="6" format="ascii" RangeMin="21911.24130453202" RangeMax="117162.12391554202">
          76890.50499173882 -76890.50499173651 0 -43619.53420925022 0 0
          -74618.3229084788 74618.32290847987 0 11982.219193880559 0 0
          77556.20986547027 -77556.20986546944 0 -13717.569814793262 0 0
          -74682.46196169672 74682.4619616981 0 15007.998525550485 0 0
          63101.578216647846 -63101.57821664685 0 -24549.655653352955 0 0
          -61096.16825399425 61096.16825398913 0 18287.297999541628 0 0
          54576.697059495185 -54576.69705950323 0 -22308.133608775144 0 0
          -52978.76059133174 52978.76059133931 0 17215.003328529678 0 0
          41395.58007374904 -41395.58007374534 0 -22733.54722714349 0 0
          -41282.636301849794 41282.63630185323 0 14216.574179532525 0 0
          27045.17422060013 -27045.17422061043 0 -18189.903399496834 0 0
          -27345.951692782408 27345.951692790353 0 7670.717056338664 0 0
          13690.025424267578 -13690.025424263142 0 -10260.063512053239 0 0
          <InformationKey name="L2_NORM_RANGE" location="vtkDataArray" length="2">
            <Value index="0">
              21911.241305
            </Value>
            <Value index="1">
              117162.12392
            </Value>
          </InformationKey>
        </DataArray>
        <DataArray type="Float64" Name="Press" format="ascii" RangeMin="-91112.0885766574" RangeMax="91789.26114509223">
          76060.4060870519 -91112.0885766574 91789.26114509223 -80452.99720518623 71831.57927769871 -70695.50646194238
          65236.29172666954 -60871.516737169295 51925.82381418126 -46623.08818370467 36424.613272153656 -29398.82248151138
          20046.998495538555
        </DataArray>
        <DataArray type="Float64" Name="Dev strain" NumberOfComponents="6" format="ascii" RangeMin="0" RangeMax="0">
          0 0 0 0 0 0
          0 0 0 0 0 0
          0 0 0 0 0 0
          0 0 0 0 0 0
          0 0 0 0 0 0
          0 0 0 0 0 0
          0 0 0 0 0 0
          0 0 0 0 0 0
          0 0 0 0 0 0
          0 0 0 0 0 0
          0 0 0 0 0 0
          0 0 0 0 0 0
          0 0 0 0 0 0
          <InformationKey name="L2_NORM_RANGE" location="vtkDataArray" length="2">
            <Value index="0">
              0
            </Value>
            <Value index="1">
              0
            </Value>
          </InformationKey>
        </DataArray>
        <DataArray type="Float64" Name="J2 Stresses" format="ascii" RangeMin="213734021.93487352" RangeMax="6387815699.042423">
          6387815699.042423 5603787507.876642 6062008619.1027355 5633780129.596111 4132480571.6062145 3816348092.3510723
          3103029068.2010913 2880838158.6943684 1842797592.0242062 1754783805.3814855 814159595.0436488 762511049.0238075
          213734021.93487352
        </DataArray>
      </PointData>
      <CellData>
        <DataArray type="UInt8" Name="vtkGhostType" format="ascii" RangeMin="0" RangeMax="0">
          0 0 0 0 0 0
          0 0 0 0 0
        </DataArray>
        <DataArray type="Float64" Name="Gauss Stress" NumberOfComponents="6" format="ascii" RangeMin="15833.133281045293" RangeMax="54344.09081237358">
          -50506.79988048557 -2677.083210680956 0 4424.215968212597 0 0
          52188.65686807234 -1030.271097746454 0 -15118.294943387638 0 0
          -50664.65879615769 -2213.2907967965048 0 2915.213623913054 0 0
          49714.38977934206 5730.839032395512 0 -7753.075647531913 0 0
          -41942.987752757654 -2277.499895538976 0 4398.055906432054 0 0
          40984.82385485824 3263.4191734216392 0 -9523.497087528827 0 0
          -36144.86597537507 -900.9880957485007 0 2899.343426972906 0 0
          33094.705115198005 4432.360753924084 0 -9275.559169129656 0 0
          -27060.23705569816 662.0387936569193 0 1232.4626121247861 0 0
          22961.822298376555 4856.410303375906 0 -8902.292149035933 0 0
          13487.345746088711 4561.1804446992055 0 -6926.416618403803 0 0
          <InformationKey name="L2_NORM_RANGE" location="vtkDataArray" length="2">
            <Value index="0">
              15833.133281
            </Value>
            <Value index="1">
              54344.090812
            </Value>
          </InformationKey>
        </DataArray>
        <DataArray type="Float64" Name="Gauss Strain" NumberOfComponents="6" format="ascii" RangeMin="0" RangeMax="0">
          0 0 0 0 0 0
          0 0 0 0 0 0
          0 0 0 0 0 0
          0 0 0 0 0 0
          0 0 0 0 0 0
          0 0 0 0 0 0
          0 0 0 0 0 0
          0 0 0 0 0 0
          0 0 0 0 0 0
          0 0 0 0 0 0
          0 0 0 0 0 0
          <InformationKey name="L2_NORM_RANGE" location="vtkDataArray" length="2">
            <Value index="0">
              0
            </Value>
            <Value index="1">
              0
            </Value>
          </InformationKey>
        </DataArray>
      </CellData>
      <Points>
        <DataArray type="Float32" Name="Points" NumberOfComponents="3" format="ascii" RangeMin="0" RangeMax="0.6020797527609908">
          0 0.05000000074505806 0 0 0 0
          0.10000000149011612 0.05000000074505806 0 0.10000000149011612 0 0
          0.20000000298023224 0.05000000074505806 0 0.20000000298023224 0 0
          0.30000001192092896 0.05000000074505806 0 0.30000001192092896 0 0
          0.4000000059604645 0.05000000074505806 0 0.4000000059604645 0 0
          0.5 0.05000000074505806 0 0.5 0 0
          0.6000000238418579 0.05000000074505806 0
          <InformationKey name="L2_NORM_RANGE" location="vtkDataArray" length="2">
            <Value index="0">
              0
            </Value>
            <Value index="1">
              0.60207975276
            </Value>
          </InformationKey>
        </DataArray>
      </Points>
      <Cells>
        <DataArray type="Int64" Name="connectivity" format="ascii" RangeMin="0" RangeMax="12">
          3 2 1 2 0 1
          5 4 3 4 2 3
          7 6 5 6 4 5
          9 8 7 8 6 7
          11 10 9 10 8 9
          12 10 11
        </DataArray>
        <DataArray type="Int64" Name="offsets" format="ascii" RangeMin="3" RangeMax="33">
          3 6 9 12 15 18
          21 24 27 30 33
        </DataArray>
        <DataArray type="UInt8" Name="types" format="ascii" RangeMin="5" RangeMax="5">
          5 5 5 5 5 5
          5 5 5 5 5
        </DataArray>
      </Cells>
    </Piece>
  </UnstructuredGrid>
</VTKFile>
