<?xml version="1.0"?>
<VTKFile type="UnstructuredGrid" version="0.1" byte_order="LittleEndian" header_type="UInt32" compressor="vtkZLibDataCompressor">
  <UnstructuredGrid>
    <Piece NumberOfPoints="13" NumberOfCells="11">
      <PointData>
        <DataArray type="Float64" Name="Disp" NumberOfComponents="3" format="ascii" RangeMin="0.0013808952216923579" RangeMax="0.04215123337840166">
          -0.0011448017225463018 -0.000905212580641291 0 0.0012702877663105763 -0.006189170574444347 0
          -0.0017866002793582138 -0.00606815873622725 0 0.0013771925627026494 -0.013259557264717288 0
          -0.002570387189014516 -0.013056843851041527 0 0.0012550479167730928 -0.02201756865755413 0
          -0.0034387510189991272 -0.021734028702625814 0 0.0008503101330659085 -0.031969808603601685 0
          -0.004215777052173286 -0.03165096300489776 0 0.00015151886590338004 -0.042150961048993386 0
          -0.004877695477971203 -0.041809027627137826 0 0.000993983278565052 -0.0009585764733321261 0
          -0.0005902548276629023 0.0023797796591239553 0
          <InformationKey name="L2_NORM_RANGE" location="vtkDataArray" length="2">
            <Value index="0">
              0.0013808952217
            </Value>
            <Value index="1">
              0.042151233378
            </Value>
          </InformationKey>
        </DataArray>
        <DataArray type="Float64" Name="Nodal Stress" NumberOfComponents="6" format="ascii" RangeMin="7553.684183593972" RangeMax="32168.51125489942">
          -31892.914052684355 -2000.4327864897348 0 3695.053213610928 0 0
          30244.4790382394 1870.230500964174 0 -5189.763611651372 0 0
          -30424.75920273031 -1657.8618267822624 0 3535.2861480864763 0 0
          26091.224537904756 2549.2484795627684 0 -6397.86116369857 0 0
          -26181.516319715156 -659.1573672911123 0 2357.9613865096317 0 0
          18775.727203622813 3037.9314302132325 0 -6894.479872864482 0 0
          -19489.270041138243 419.4118417668995 0 941.4402654541815 0 0
          10377.253673137586 3182.1660598576636 0 -5600.236155325441 0 0
          -13029.419677306305 537.9551221874376 0 -964.1156212876834 0 0
          5117.491448047692 1130.443542068796 0 -6909.144004610858 0 0
          -7409.106500099377 -828.1707976404576 0 -1215.4911540601504 0 0
          31391.414129249737 1546.9005744179876 0 -3942.062399588863 0 0
          -30434.335947296106 -2075.980177662619 0 3531.317541841797 0 0
          <InformationKey name="L2_NORM_RANGE" location="vtkDataArray" length="2">
            <Value index="0">
              7553.6841836
            </Value>
            <Value index="1">
              32168.511255
            </Value>
          </InformationKey>
        </DataArray>
        <DataArray type="Float64" Name="Nodal Strain" NumberOfComponents="6" format="ascii" RangeMin="0" RangeMax="0">
          0 0 0 0 0 0
          0 0 0 0 0 0
          0 0 0 0 0 0
          0 0 0 0 0 0
          0 0 0 0 0 0
          0 0 0 0 0 0
          0 0 0 0 0 0
          0 0 0 0 0 0
          0 0 0 0 0 0
          0 0 0 0 0 0
          0 0 0 0 0 0
          0 0 0 0 0 0
          0 0 0 0 0 0
          <InformationKey name="L2_NORM_RANGE" location="vtkDataArray" length="2">
            <Value index="0">
              0
            </Value>
            <Value index="1">
              0
            </Value>
          </InformationKey>
        </DataArray>
        <DataArray type="Float64" Name="Sld_traction" NumberOfComponents="3" format="ascii" RangeMin="240.6139955051606" RangeMax="10654.765401320044">
          -7945.420519516155 5180.494092818575 0 -8463.56180673989 4791.284190794786 0
          -7361.481081612449 4646.051782586208 0 -9425.157802833148 4968.946180918056 0
          -5600.408068077822 3226.8351804512054 0 -9415.460570659763 4785.716589158653 0
          -3006.510733341651 1702.3332799494096 0 -8027.599181288847 4163.705790991991 0
          -1334.1210757174779 779.8142505578057 0 -2766.2010080288305 -1660.9430988157708 0
          -208.03172239245768 -120.90449665494197 0 -7324.98664554817 4595.321497739554 0
          -7949.904764492431 5202.9285288731435 0
          <InformationKey name="L2_NORM_RANGE" location="vtkDataArray" length="2">
            <Value index="0">
              240.61399551
            </Value>
            <Value index="1">
              10654.765401
            </Value>
          </InformationKey>
        </DataArray>
        <DataArray type="Float64" Name="Velocity" NumberOfComponents="3" format="ascii" RangeMin="1.914096566537998" RangeMax="11.335003524327485">
          -0.31858954384710636 -2.7081389916628824 0 0.17777080326088418 -3.880497897976814 0
          -0.6018396737432676 -3.8286245430336208 0 0.16549673871649317 -5.829503471311213 0
          -0.8559762448410931 -5.735546648509587 0 -0.13221772549262306 -7.77031827187756 0
          -0.9658695331904931 -7.674105999657828 0 -0.33638044015914004 -9.319215338888243 0
          -1.2221608498382532 -9.229845450348254 0 -0.45556918864972035 -11.323131209878696 0
          -1.4954837941794832 -11.235917101770688 0 0.1227938056422318 -2.7373254952532404 0
          -0.24545813139905104 -1.8982929098963204 0
          <InformationKey name="L2_NORM_RANGE" location="vtkDataArray" length="2">
            <Value index="0">
              1.9140965665
            </Value>
            <Value index="1">
              11.335003524
            </Value>
          </InformationKey>
        </DataArray>
        <DataArray type="Float64" Name="Acceleration" NumberOfComponents="3" format="ascii" RangeMin="76.12979009764285" RangeMax="2241.968850573369">
          47.98963605905641 -59.099405844986904 0 505.3572885784404 -906.8136540860669 0
          -336.97764129989434 -897.277026878086 0 -118.10712677526766 -2238.8557420133534 0
          232.79781622886958 -2059.198625939838 0 -575.1646345721718 -18.812607024166937 0
          -120.67383567426191 -227.580129216547 0 821.2622038343445 -1049.0488075521876 0
          228.73193914010017 -1273.5469653792893 0 349.2885465194429 -834.0902474754967 0
          470.1961892108702 -1242.6108239039368 0 -233.7849155049463 27.9764207504727 0
          498.91672092910824 -1854.5159199092295 0
          <InformationKey name="L2_NORM_RANGE" location="vtkDataArray" length="2">
            <Value index="0">
              76.129790098
            </Value>
            <Value index="1">
              2241.9688506
            </Value>
          </InformationKey>
        </DataArray>
        <DataArray type="Float64" Name="Sigma" NumberOfComponents="6" format="ascii" RangeMin="4537.89633609929" RangeMax="64998.10633429127">
          -45146.761083026475 45146.761083021775 0 12177.592309997552 0 0
          43689.41364312345 -43689.413643119544 0 -14172.170158556888 0 0
          -42489.62569564528 42489.62569564959 0 13175.17825764884 0 0
          37800.2116478163 -37800.21164781754 0 -16108.576275605446 0 0
          -35982.89091081244 35982.89091081871 0 11918.659157120688 0 0
          27268.57479580035 -27268.57479580513 0 -15981.043098455964 0 0
          -25236.108247707503 25236.108247700136 0 7928.606491844919 0 0
          15181.773498781184 -15181.773498766732 0 -10326.507576282485 0 0
          -17112.30920118536 17112.309201180848 0 4491.867700469307 0 0
          9432.60114998277 -9432.60114998604 0 -14072.071665769188 0 0
          -2741.0816768612062 2741.0816768579316 0 2359.1196745296393 0 0
          45061.49924391876 -45061.49924391733 0 -11681.342944192333 0 0
          -44034.8510250817 44034.85102508215 0 9960.3693700305 0 0
          <InformationKey name="L2_NORM_RANGE" location="vtkDataArray" length="2">
            <Value index="0">
              4537.8963361
            </Value>
            <Value index="1">
              64998.106334
            </Value>
          </InformationKey>
        </DataArray>
        <DataArray type="Float64" Name="Press" format="ascii" RangeMin="-50903.437757191" RangeMax="50276.521622188535">
          -50903.437757191 49292.03258612229 -48164.189186587144 44205.318476610555 -40153.62514025904 33455.86595960747
          -27686.819403168367 21308.91122984273 -17864.17951035538 11061.107315234196 -4835.741200175658 50276.521622188535
          -49529.44357583722
        </DataArray>
        <DataArray type="Float64" Name="Dev strain" NumberOfComponents="6" format="ascii" RangeMin="0" RangeMax="0">
          0 0 0 0 0 0
          0 0 0 0 0 0
          0 0 0 0 0 0
          0 0 0 0 0 0
          0 0 0 0 0 0
          0 0 0 0 0 0
          0 0 0 0 0 0
          0 0 0 0 0 0
          0 0 0 0 0 0
          0 0 0 0 0 0
          0 0 0 0 0 0
          0 0 0 0 0 0
          0 0 0 0 0 0
          <InformationKey name="L2_NORM_RANGE" location="vtkDataArray" length="2">
            <Value index="0">
              0
            </Value>
            <Value index="1">
              0
            </Value>
          </InformationKey>
        </DataArray>
        <DataArray type="Float64" Name="J2 Stresses" format="ascii" RangeMin="8904890.168903472" RangeMax="2075303474.9047894">
          2075303474.9047894 1958977466.2305436 1848764622.2864287 1493727558.0265036 1330282047.3255587 807423606.0229652
          652576859.7154562 257145436.24883017 297875345.0565258 138479764.6963231 8904890.168903472 2064652157.354585
          1963870344.2980187
        </DataArray>
      </PointData>
      <CellData>
        <DataArray type="UInt8" Name="vtkGhostType" format="ascii" RangeMin="0" RangeMax="1">
          1 1 0 0 0 0
          0 0 0 0 0
        </DataArray>
        <DataArray type="Float64" Name="Gauss Stress" NumberOfComponents="6" format="ascii" RangeMin="7747.786278447957" RangeMax="31682.154865985463">
          -31425.49085834304 -2012.0822822176972 0 3485.539578611908 0 0
          30756.422751711863 1686.9882157015763 0 -4558.640264250557 0 0
          -31240.855831068067 -1942.8737407013423 0 3726.866803029836 0 0
          -28261.6002696257 -1146.730297194956 0 2995.08704638803 0 0
          28111.05382381339 2111.0540936193984 0 -5701.856058837833 0 0
          -22778.33431551318 -144.71807370207125 0 1288.7408501698824 0 0
          22197.818276254402 2807.2212543850114 0 -6723.653405646908 0 0
          -17136.243877930898 974.8520888110781 0 697.9888720105807 0 0
          14764.065944385296 3287.905913136706 0 -6126.3147276311765 0 0
          -7353.201041120214 -406.007889081368 0 -2407.0280969234127 0 0
          7335.968160766715 2334.59119571654 0 -6635.570513860788 0 0
          <InformationKey name="L2_NORM_RANGE" location="vtkDataArray" length="2">
            <Value index="0">
              7747.7862784
            </Value>
            <Value index="1">
              31682.154866
            </Value>
          </InformationKey>
        </DataArray>
        <DataArray type="Float64" Name="Gauss Strain" NumberOfComponents="6" format="ascii" RangeMin="0" RangeMax="0">
          0 0 0 0 0 0
          0 0 0 0 0 0
          0 0 0 0 0 0
          0 0 0 0 0 0
          0 0 0 0 0 0
          0 0 0 0 0 0
          0 0 0 0 0 0
          0 0 0 0 0 0
          0 0 0 0 0 0
          0 0 0 0 0 0
          0 0 0 0 0 0
          <InformationKey name="L2_NORM_RANGE" location="vtkDataArray" length="2">
            <Value index="0">
              0
            </Value>
            <Value index="1">
              0
            </Value>
          </InformationKey>
        </DataArray>
      </CellData>
      <Points>
        <DataArray type="Float32" Name="Points" NumberOfComponents="3" format="ascii" RangeMin="0.4000000059604645" RangeMax="1.0012492197622458">
          0.5 0 0 0.6000000238418579 0.05000000074505806 0
          0.6000000238418579 0 0 0.699999988079071 0.05000000074505806 0
          0.699999988079071 0 0 0.800000011920929 0.05000000074505806 0
          0.800000011920929 0 0 0.8999999761581421 0.05000000074505806 0
          0.8999999761581421 0 0 1 0.05000000074505806 0
          1 0 0 0.5 0.05000000074505806 0
          0.4000000059604645 0 0
          <InformationKey name="L2_NORM_RANGE" location="vtkDataArray" length="2">
            <Value index="0">
              0.40000000596
            </Value>
            <Value index="1">
              1.0012492198
            </Value>
          </InformationKey>
        </DataArray>
      </Points>
      <Cells>
        <DataArray type="Int64" Name="connectivity" format="ascii" RangeMin="0" RangeMax="12">
          0 11 12 1 11 0
          2 1 0 4 3 2
          3 1 2 6 5 4
          5 3 4 8 7 6
          7 5 6 10 9 8
          9 7 8
        </DataArray>
        <DataArray type="Int64" Name="offsets" format="ascii" RangeMin="3" RangeMax="33">
          3 6 9 12 15 18
          21 24 27 30 33
        </DataArray>
        <DataArray type="UInt8" Name="types" format="ascii" RangeMin="5" RangeMax="5">
          5 5 5 5 5 5
          5 5 5 5 5
        </DataArray>
      </Cells>
    </Piece>
  </UnstructuredGrid>
</VTKFile>
