<?xml version="1.0"?>
<VTKFile type="UnstructuredGrid" version="0.1" byte_order="LittleEndian" header_type="UInt32" compressor="vtkZLibDataCompressor">
  <UnstructuredGrid>
    <Piece NumberOfPoints="13" NumberOfCells="11">
      <PointData>
        <DataArray type="Float64" Name="Disp" NumberOfComponents="3" format="ascii" RangeMin="0.000871820989585789" RangeMax="0.013416789996094594">
          0.00003320109322661052 0.0012077694548094133 0 0.0002632244497253443 0.0008452394160264054 0
          -0.00020271912024610438 0.0008479249944240291 0 0.0006111116125652185 -0.0007700342388310064 0
          -0.0005933496714217992 -0.0007547125701798107 0 0.0009383966319757042 -0.004004698453086528 0
          -0.0010480000676497394 -0.003955952448125417 0 0.001060828634349717 -0.008579749082222712 0
          -0.0013282765293106055 -0.00851643044384938 0 0.0008739046301091975 -0.013388298790241338 0
          -0.0014697274463330023 -0.01330218944556888 0 0.00003517743443016757 0.0012053244451813404 0
          0.00011764297410006 0.0009553741713870419 0
          <InformationKey name="L2_NORM_RANGE" location="vtkDataArray" length="2">
            <Value index="0">
              0.00087182098959
            </Value>
            <Value index="1">
              0.013416789996
            </Value>
          </InformationKey>
        </DataArray>
        <DataArray type="Float64" Name="Nodal Stress" NumberOfComponents="6" format="ascii" RangeMin="6419.154286379949" RangeMax="20060.05763894216">
          -11446.589507867611 -1744.6973345589233 0 3082.395213325345 0 0
          18187.70546865852 -230.91816370989125 0 885.2008115059481 0 0
          -16369.369068858072 -1839.016777952644 0 2945.0158904776085 0 0
          19972.798447879315 598.471440761027 0 -1770.611920400618 0 0
          -17986.193469530157 -980.125257219737 0 1614.5506199683105 0 0
          16497.15384462959 1792.9764972764153 0 -4343.718294543457 0 0
          -15468.851816237886 417.62811051947654 0 -177.32025812369238 0 0
          9498.034736994357 2477.7961483662593 0 -4500.083863531872 0 0
          -11153.56293761422 284.0075816597761 0 -1509.3080284431394 0 0
          4635.17892798387 -337.9123886689864 0 -5736.354643161101 0 0
          -7021.44464637569 -1653.965310035348 0 -1947.3188851551222 0 0
          13007.379201259602 -381.13481978595746 0 1971.2480858946465 0 0
          -5931.786943921182 -1144.4750969562149 0 2170.166389179257 0 0
          <InformationKey name="L2_NORM_RANGE" location="vtkDataArray" length="2">
            <Value index="0">
              6419.1542864
            </Value>
            <Value index="1">
              20060.057639
            </Value>
          </InformationKey>
        </DataArray>
        <DataArray type="Float64" Name="Nodal Strain" NumberOfComponents="6" format="ascii" RangeMin="0" RangeMax="0">
          0 0 0 0 0 0
          0 0 0 0 0 0
          0 0 0 0 0 0
          0 0 0 0 0 0
          0 0 0 0 0 0
          0 0 0 0 0 0
          0 0 0 0 0 0
          0 0 0 0 0 0
          0 0 0 0 0 0
          0 0 0 0 0 0
          0 0 0 0 0 0
          0 0 0 0 0 0
          0 0 0 0 0 0
          <InformationKey name="L2_NORM_RANGE" location="vtkDataArray" length="2">
            <Value index="0">
              0
            </Value>
            <Value index="1">
              0
            </Value>
          </InformationKey>
        </DataArray>
        <DataArray type="Float64" Name="Sld_traction" NumberOfComponents="3" format="ascii" RangeMin="145.92017805988144" RangeMax="7902.325723277149">
          -4466.511655371571 3100.8573628946315 0 -993.7135676490818 1445.3518958157342 0
          -5643.680827338172 3653.205254497672 0 -4546.183816076023 2533.2988851824116 0
          -5022.234244861566 2943.149580287059 0 -7062.510358085089 3545.095101504126 0
          -2524.035584674642 1453.55630362489 0 -7028.245264405869 3395.9472790897844 0
          -986.9260333561567 586.8371553999978 0 -2460.9069744391168 -2110.6056551717993 0
          136.60389735188102 51.303738589933786 0 1191.832970596001 714.2299822542128 0
          -2485.501760052501 1959.3093109087563 0
          <InformationKey name="L2_NORM_RANGE" location="vtkDataArray" length="2">
            <Value index="0">
              145.92017806
            </Value>
            <Value index="1">
              7902.3257233
            </Value>
          </InformationKey>
        </DataArray>
        <DataArray type="Float64" Name="Velocity" NumberOfComponents="3" format="ascii" RangeMin="0.40810666528111544" RangeMax="7.620915694119318">
          -0.07739398268392579 1.1090697182689138 0 0.39541363675299057 0.20262038411375533 0
          -0.3558525682582445 0.19979989967686124 0 0.6154766154237451 -1.8694146090904722 0
          -0.5846318227079681 -1.8488277618210476 0 0.48806451679927937 -4.356587785910499 0
          -0.5559602402050844 -4.284741256464122 0 0.136298096121655 -6.039374244145163 0
          -0.625377546783483 -5.954982544531779 0 0.024327878051920493 -7.620876863670191 0
          -0.7795080559961572 -7.535153473264555 0 0.12801616138184485 1.1103896834858755 0
          0.08465881096684452 1.1269989408645222 0
          <InformationKey name="L2_NORM_RANGE" location="vtkDataArray" length="2">
            <Value index="0">
              0.40810666528
            </Value>
            <Value index="1">
              7.6209156941
            </Value>
          </InformationKey>
        </DataArray>
        <DataArray type="Float64" Name="Acceleration" NumberOfComponents="3" format="ascii" RangeMin="450.8830766875876" RangeMax="3119.741745951122">
          -340.03927703050994 354.3856684774106 0 462.4016018237233 -1323.0829564992994 0
          -519.4255540791163 -1339.6440720198632 0 230.57642621178155 -3111.209262184972 0
          -144.76295770954 -3085.845375717877 0 -668.7503855895684 -2386.713324834698 0
          491.55637977274847 -2246.7464765019413 0 -576.970229606529 226.30853263388917 0
          -585.3917823197557 220.74521447884354 0 550.520036839815 -2666.370688804158 0
          -1123.3741550329687 -2511.7089794144395 0 257.52645898500896 370.1022450160327 0
          -72.63053389429568 1034.8921692850538 0
          <InformationKey name="L2_NORM_RANGE" location="vtkDataArray" length="2">
            <Value index="0">
              450.88307669
            </Value>
            <Value index="1">
              3119.741746
            </Value>
          </InformationKey>
        </DataArray>
        <DataArray type="Float64" Name="Sigma" NumberOfComponents="6" format="ascii" RangeMin="3785.1692589564823" RangeMax="40652.66868833214">
          -17971.153396989757 17971.153396990354 0 4595.789584680682 0 0
          25137.62230340984 -25137.622303410964 0 -1122.5278320148082 0 0
          -24976.203829581063 24976.20382958161 0 6391.488515077517 0 0
          28420.386020667345 -28420.38602066646 0 -6099.408852984268 0 0
          -26692.51900605637 26692.51900605546 0 6879.048563939716 0 0
          23673.314875031912 -23673.314875030635 0 -10007.912981265776 0 0
          -21348.32701187393 21348.327011876783 0 3990.9408795135005 0 0
          13623.947387443433 -13623.947387442957 0 -7662.767014453451 0 0
          -15268.3050213022 15268.305021304564 0 2437.52429558995 0 0
          9867.972244037446 -9867.972244035309 0 -10854.142157244398 0 0
          -2667.3129477088223 2667.3129477048565 0 313.67116051697917 0 0
          17001.9386050909 -17001.93860509108 0 1513.7256064074681 0 0
          -9791.780976261012 9791.780976259673 0 2251.881538021378 0 0
          <InformationKey name="L2_NORM_RANGE" location="vtkDataArray" length="2">
            <Value index="0">
              3785.169259
            </Value>
            <Value index="1">
              40652.668688
            </Value>
          </InformationKey>
        </DataArray>
        <DataArray type="Float64" Name="Press" format="ascii" RangeMin="-29935.728029633035" RangeMax="31138.788425362618">
          -21156.68557455368 26491.408795284784 -28943.918352040346 31138.788425362618 -29935.728029633035 27581.256123115618
          -22966.520968426114 18669.660523542152 -15237.75276913974 8585.93671169471 -5349.501927687665 17676.895462737357
          -11715.958010007504
        </DataArray>
        <DataArray type="Float64" Name="Dev strain" NumberOfComponents="6" format="ascii" RangeMin="0" RangeMax="0">
          0 0 0 0 0 0
          0 0 0 0 0 0
          0 0 0 0 0 0
          0 0 0 0 0 0
          0 0 0 0 0 0
          0 0 0 0 0 0
          0 0 0 0 0 0
          0 0 0 0 0 0
          0 0 0 0 0 0
          0 0 0 0 0 0
          0 0 0 0 0 0
          0 0 0 0 0 0
          0 0 0 0 0 0
          <InformationKey name="L2_NORM_RANGE" location="vtkDataArray" length="2">
            <Value index="0">
              0
            </Value>
            <Value index="1">
              0
            </Value>
          </InformationKey>
        </DataArray>
        <DataArray type="Float64" Name="J2 Stresses" format="ascii" RangeMin="7139155.760239568" RangeMax="817019038.6526846">
          328242674.8948121 632215072.2523282 634023539.0963854 817019038.6526846 724320898.1749165 585465417.7325242
          459732968.48191 200291441.99526924 234606519.39645588 126829976.70148984 7139155.760239568 289638757.63415676
          97146717.30237433
        </DataArray>
      </PointData>
      <CellData>
        <DataArray type="UInt8" Name="vtkGhostType" format="ascii" RangeMin="0" RangeMax="1">
          1 1 0 0 0 0
          0 0 0 0 0
        </DataArray>
        <DataArray type="Float64" Name="Gauss Stress" NumberOfComponents="6" format="ascii" RangeMin="7332.536525570112" RangeMax="19091.399841409428">
          -8652.247963327902 -1478.2507845549594 0 2787.1322430365094 0 0
          15726.675398326483 -385.59627601441105 0 1662.3291196911139 0 0
          -13806.310018156746 -1933.1534027160828 0 3288.2500892477974 0 0
          -16996.398257093617 -1497.5070471133863 0 2390.376075344322 0 0
          19089.361121034406 34.824791370412186 0 -276.81605664052086 0 0
          -16562.841339280647 -317.82057734730677 0 287.35882072914774 0 0
          18061.83280282937 1127.7115430678546 0 -3076.0910901034445 0 0
          -14175.765953252137 1152.6904772382295 0 -411.4339464499999 0 0
          13077.776976277693 2445.1534758782836 0 -4559.913038735243 0 0
          -6689.654570035424 -1311.2240867195285 0 -2700.9822337124897 0 0
          6747.15302542527 1264.7432853078064 0 -5359.794958702634 0 0
          <InformationKey name="L2_NORM_RANGE" location="vtkDataArray" length="2">
            <Value index="0">
              7332.5365256
            </Value>
            <Value index="1">
              19091.399841
            </Value>
          </InformationKey>
        </DataArray>
        <DataArray type="Float64" Name="Gauss Strain" NumberOfComponents="6" format="ascii" RangeMin="0" RangeMax="0">
          0 0 0 0 0 0
          0 0 0 0 0 0
          0 0 0 0 0 0
          0 0 0 0 0 0
          0 0 0 0 0 0
          0 0 0 0 0 0
          0 0 0 0 0 0
          0 0 0 0 0 0
          0 0 0 0 0 0
          0 0 0 0 0 0
          0 0 0 0 0 0
          <InformationKey name="L2_NORM_RANGE" location="vtkDataArray" length="2">
            <Value index="0">
              0
            </Value>
            <Value index="1">
              0
            </Value>
          </InformationKey>
        </DataArray>
      </CellData>
      <Points>
        <DataArray type="Float32" Name="Points" NumberOfComponents="3" format="ascii" RangeMin="0.4000000059604645" RangeMax="1.0012492197622458">
          0.5 0 0 0.6000000238418579 0.05000000074505806 0
          0.6000000238418579 0 0 0.699999988079071 0.05000000074505806 0
          0.699999988079071 0 0 0.800000011920929 0.05000000074505806 0
          0.800000011920929 0 0 0.8999999761581421 0.05000000074505806 0
          0.8999999761581421 0 0 1 0.05000000074505806 0
          1 0 0 0.5 0.05000000074505806 0
          0.4000000059604645 0 0
          <InformationKey name="L2_NORM_RANGE" location="vtkDataArray" length="2">
            <Value index="0">
              0.40000000596
            </Value>
            <Value index="1">
              1.0012492198
            </Value>
          </InformationKey>
        </DataArray>
      </Points>
      <Cells>
        <DataArray type="Int64" Name="connectivity" format="ascii" RangeMin="0" RangeMax="12">
          0 11 12 1 11 0
          2 1 0 4 3 2
          3 1 2 6 5 4
          5 3 4 8 7 6
          7 5 6 10 9 8
          9 7 8
        </DataArray>
        <DataArray type="Int64" Name="offsets" format="ascii" RangeMin="3" RangeMax="33">
          3 6 9 12 15 18
          21 24 27 30 33
        </DataArray>
        <DataArray type="UInt8" Name="types" format="ascii" RangeMin="5" RangeMax="5">
          5 5 5 5 5 5
          5 5 5 5 5
        </DataArray>
      </Cells>
    </Piece>
  </UnstructuredGrid>
</VTKFile>
