<?xml version="1.0"?>
<VTKFile type="UnstructuredGrid" version="0.1" byte_order="LittleEndian" header_type="UInt32" compressor="vtkZLibDataCompressor">
  <UnstructuredGrid>
    <Piece NumberOfPoints="13" NumberOfCells="11">
      <PointData>
        <DataArray type="Float64" Name="Disp" NumberOfComponents="3" format="ascii" RangeMin="0" RangeMax="0.0012082257109340413">
          0 0 0 0 0 0
          -0.000022127536978798924 0.0000482104384627272 0 0.00003338960623584515 0.00004835288082366031 0
          -0.00004714554332699793 0.00022954597245044076 0 0.0000748761476451771 0.00023051945208695402 0
          -0.00006966836436435374 0.0005470611007948063 0 0.00011347203786293662 0.0005503780579488322 0
          -0.00005852044168676491 0.000952429220458597 0 0.00011764297410006 0.0009553741713870419 0
          0.00003517743443016757 0.0012053244451813404 0 0.00003320109322661052 0.0012077694548094133 0
          0.0002632244497253443 0.0008452394160264054 0
          <InformationKey name="L2_NORM_RANGE" location="vtkDataArray" length="2">
            <Value index="0">
              0
            </Value>
            <Value index="1">
              0.0012082257109
            </Value>
          </InformationKey>
        </DataArray>
        <DataArray type="Float64" Name="Nodal Stress" NumberOfComponents="6" format="ascii" RangeMin="724.8154335481149" RangeMax="18210.698336134534">
          -1762.2233911430799 449.4770304330322 0 795.0548248627723 0 0
          1686.0454898511314 423.67181738643234 0 77.36464477333985 0 0
          -972.9038715163747 -88.94315752478998 0 285.258616117506 0 0
          1811.234214886731 -70.72320049694457 0 21.089466691421762 0 0
          385.96519198769926 -139.3512370450014 0 597.4692594748855 0 0
          668.0724845132877 -133.23006233800248 0 450.6699006877706 0 0
          2880.6601582111407 -183.65695442010897 0 1142.466872972872 0 0
          -1689.0777242073336 -554.9756685612484 0 1217.9076662304496 0 0
          7275.51717895048 -292.1003134879979 0 1778.1468136112524 0 0
          -5931.786943921182 -1144.4750969562149 0 2170.166389179257 0 0
          13007.379201259602 -381.13481978595746 0 1971.2480858946465 0 0
          -11446.589507867611 -1744.6973345589233 0 3082.395213325345 0 0
          18187.70546865852 -230.91816370989125 0 885.2008115059481 0 0
          <InformationKey name="L2_NORM_RANGE" location="vtkDataArray" length="2">
            <Value index="0">
              724.81543355
            </Value>
            <Value index="1">
              18210.698336
            </Value>
          </InformationKey>
        </DataArray>
        <DataArray type="Float64" Name="Nodal Strain" NumberOfComponents="6" format="ascii" RangeMin="0" RangeMax="0">
          0 0 0 0 0 0
          0 0 0 0 0 0
          0 0 0 0 0 0
          0 0 0 0 0 0
          0 0 0 0 0 0
          0 0 0 0 0 0
          0 0 0 0 0 0
          0 0 0 0 0 0
          0 0 0 0 0 0
          0 0 0 0 0 0
          0 0 0 0 0 0
          0 0 0 0 0 0
          0 0 0 0 0 0
          <InformationKey name="L2_NORM_RANGE" location="vtkDataArray" length="2">
            <Value index="0">
              0
            </Value>
            <Value index="1">
              0
            </Value>
          </InformationKey>
        </DataArray>
        <DataArray type="Float64" Name="Sld_traction" NumberOfComponents="3" format="ascii" RangeMin="193.11425380695846" RangeMax="5437.374619482084">
          1075.074287629514 -130.0277751818855 0 -536.9158226963917 -521.1661768665089 0
          681.9857757930666 -291.38216606722324 0 303.00536067029896 -115.68010068680088 0
          985.1101406024299 -202.81628668274095 0 -76.93217256908433 177.12864208596812 0
          1471.8265767970909 -50.633037655597775 0 -1003.469789002876 884.6616909213861 0
          1780.672636716612 248.79053742722678 0 -2485.501760052501 1959.3093109087563 0
          1191.832970596001 714.2299822542128 0 -4466.511655371571 3100.8573628946315 0
          -993.7135676490818 1445.3518958157342 0
          <InformationKey name="L2_NORM_RANGE" location="vtkDataArray" length="2">
            <Value index="0">
              193.11425381
            </Value>
            <Value index="1">
              5437.3746195
            </Value>
          </InformationKey>
        </DataArray>
        <DataArray type="Float64" Name="Velocity" NumberOfComponents="3" format="ascii" RangeMin="0" RangeMax="1.1301742020520884">
          0 0 0 0 0 0
          -0.0325213622166991 0.07626948915132263 0 0.0526903150755314 0.07714856490009024 0
          -0.06336606850335406 0.3426326508983169 0 0.1021034646846823 0.3440532423956057 0
          -0.07663805301259514 0.7365307301813555 0 0.12823650976100454 0.7415602778763456 0
          -0.02962656282382318 1.1240623757211925 0 0.08465881096684452 1.1269989408645222 0
          0.12801616138184485 1.1103896834858755 0 -0.07739398268392579 1.1090697182689138 0
          0.39541363675299057 0.20262038411375533 0
          <InformationKey name="L2_NORM_RANGE" location="vtkDataArray" length="2">
            <Value index="0">
              0
            </Value>
            <Value index="1">
              1.1301742021
            </Value>
          </InformationKey>
        </DataArray>
        <DataArray type="Float64" Name="Acceleration" NumberOfComponents="3" format="ascii" RangeMin="0" RangeMax="1401.5576160643814">
          0 0 0 0 0 0
          -48.14045548445604 117.53420356538314 0 75.5559808089676 116.50099683705938 0
          -87.12194080526518 484.9831668602145 0 114.49086261218835 482.96521457514075 0
          -75.00121703310403 886.28053920959 0 84.23971003313628 891.5003845395631 0
          30.4356594466272 1035.6401055577198 0 -72.63053389429568 1034.8921692850538 0
          257.52645898500896 370.1022450160327 0 -340.03927703050994 354.3856684774106 0
          462.4016018237233 -1323.0829564992994 0
          <InformationKey name="L2_NORM_RANGE" location="vtkDataArray" length="2">
            <Value index="0">
              0
            </Value>
            <Value index="1">
              1401.5576161
            </Value>
          </InformationKey>
        </DataArray>
        <DataArray type="Float64" Name="Sigma" NumberOfComponents="6" format="ascii" RangeMin="303.9457916590018" RangeMax="35567.68447441413">
          -2378.878624545774 2378.878624547564 0 1571.4011581975938 0 0
          2251.9107140643973 -2251.9107140656342 0 -333.6435460766079 0 0
          -1917.5543081244832 1917.554308123319 0 371.06052913251006 0 0
          2254.5583274911187 -2254.5583274921664 0 -359.49714662047336 0 0
          -433.8541018660908 433.8541018656106 0 1012.2318810055986 0 0
          214.3293051717119 -214.32930517163186 0 -22.559746374328824 0 0
          2734.4293143069153 -2734.429314305882 0 1489.7641900632625 0 0
          -3333.273605723247 3333.273605723967 0 899.3557811160172 0 0
          8651.833638493743 -8651.833638493837 0 2005.208635946652 0 0
          -9791.780976261012 9791.780976259673 0 2251.881538021378 0 0
          17001.9386050909 -17001.93860509108 0 1513.7256064074681 0 0
          -17971.153396989757 17971.153396990354 0 4595.789584680682 0 0
          25137.62230340984 -25137.622303410964 0 -1122.5278320148082 0 0
          <InformationKey name="L2_NORM_RANGE" location="vtkDataArray" length="2">
            <Value index="0">
              303.94579166
            </Value>
            <Value index="1">
              35567.684474
            </Value>
          </InformationKey>
        </DataArray>
        <DataArray type="Float64" Name="Press" format="ascii" RangeMin="-21156.68557455368" RangeMax="26491.408795284784">
          -1679.273219921466 3228.4023605482507 -2495.3486421260022 2194.159619818951 -566.2910966775962 171.6958046608197
          2640.5696271154447 -4163.132988994315 8888.729807748576 -11715.958010007504 17676.895462737357 -21156.68557455368
          26491.408795284784
        </DataArray>
        <DataArray type="Float64" Name="Dev strain" NumberOfComponents="6" format="ascii" RangeMin="0" RangeMax="0">
          0 0 0 0 0 0
          0 0 0 0 0 0
          0 0 0 0 0 0
          0 0 0 0 0 0
          0 0 0 0 0 0
          0 0 0 0 0 0
          0 0 0 0 0 0
          0 0 0 0 0 0
          0 0 0 0 0 0
          0 0 0 0 0 0
          0 0 0 0 0 0
          0 0 0 0 0 0
          0 0 0 0 0 0
          <InformationKey name="L2_NORM_RANGE" location="vtkDataArray" length="2">
            <Value index="0">
              0
            </Value>
            <Value index="1">
              0
            </Value>
          </InformationKey>
        </DataArray>
        <DataArray type="Float64" Name="J2 Stresses" format="ascii" RangeMin="46064.28659449017" RangeMax="632215072.2523282">
          6276388.9103212375 5098931.368080454 3711436.003674558 5115342.801668977 444382.72693685704 46064.28659449017
          8031953.010436875 11312923.135870356 75859440.72659147 97146717.30237433 289638757.63415676 328242674.8948121
          632215072.2523282
        </DataArray>
      </PointData>
      <CellData>
        <DataArray type="UInt8" Name="vtkGhostType" format="ascii" RangeMin="0" RangeMax="0">
          0 0 0 0 0 0
          0 0 0 0 0
        </DataArray>
        <DataArray type="Float64" Name="Gauss Stress" NumberOfComponents="6" format="ascii" RangeMin="534.5777287035725" RangeMax="15818.986746140748">
          1838.7093572240778 112.76620160223916 0 -107.36005452152374 0 0
          -996.9139067016931 366.1009057020102 0 536.2727137511653 0 0
          1278.1992861996382 -78.48973433200453 0 210.0583293369321 0 0
          -321.4434004947009 -256.8766788292948 0 341.26508783921184 0 0
          -578.4608478208912 -322.11752365719906 0 788.8534082683169 0 0
          1586.959617570402 -89.64339417107841 0 826.4787748981774 0 0
          -3821.194044914589 -839.0467492544796 0 1718.8153183613492 0 0
          5139.718597649041 -228.94096706868194 0 1464.7762023753105 0 0
          -8652.247963327902 -1478.2507845549594 0 2787.1322430365094 0 0
          10237.219509267361 -337.4413356156039 0 1923.605260125166 0 0
          15726.675398326483 -385.59627601441105 0 1662.3291196911139 0 0
          <InformationKey name="L2_NORM_RANGE" location="vtkDataArray" length="2">
            <Value index="0">
              534.5777287
            </Value>
            <Value index="1">
              15818.986746
            </Value>
          </InformationKey>
        </DataArray>
        <DataArray type="Float64" Name="Gauss Strain" NumberOfComponents="6" format="ascii" RangeMin="0" RangeMax="0">
          0 0 0 0 0 0
          0 0 0 0 0 0
          0 0 0 0 0 0
          0 0 0 0 0 0
          0 0 0 0 0 0
          0 0 0 0 0 0
          0 0 0 0 0 0
          0 0 0 0 0 0
          0 0 0 0 0 0
          0 0 0 0 0 0
          0 0 0 0 0 0
          <InformationKey name="L2_NORM_RANGE" location="vtkDataArray" length="2">
            <Value index="0">
              0
            </Value>
            <Value index="1">
              0
            </Value>
          </InformationKey>
        </DataArray>
      </CellData>
      <Points>
        <DataArray type="Float32" Name="Points" NumberOfComponents="3" format="ascii" RangeMin="0" RangeMax="0.6020797527609908">
          0 0.05000000074505806 0 0 0 0
          0.10000000149011612 0.05000000074505806 0 0.10000000149011612 0 0
          0.20000000298023224 0.05000000074505806 0 0.20000000298023224 0 0
          0.30000001192092896 0.05000000074505806 0 0.30000001192092896 0 0
          0.4000000059604645 0.05000000074505806 0 0.4000000059604645 0 0
          0.5 0.05000000074505806 0 0.5 0 0
          0.6000000238418579 0.05000000074505806 0
          <InformationKey name="L2_NORM_RANGE" location="vtkDataArray" length="2">
            <Value index="0">
              0
            </Value>
            <Value index="1">
              0.60207975276
            </Value>
          </InformationKey>
        </DataArray>
      </Points>
      <Cells>
        <DataArray type="Int64" Name="connectivity" format="ascii" RangeMin="0" RangeMax="12">
          3 2 1 2 0 1
          5 4 3 4 2 3
          7 6 5 6 4 5
          9 8 7 8 6 7
          11 10 9 10 8 9
          12 10 11
        </DataArray>
        <DataArray type="Int64" Name="offsets" format="ascii" RangeMin="3" RangeMax="33">
          3 6 9 12 15 18
          21 24 27 30 33
        </DataArray>
        <DataArray type="UInt8" Name="types" format="ascii" RangeMin="5" RangeMax="5">
          5 5 5 5 5 5
          5 5 5 5 5
        </DataArray>
      </Cells>
    </Piece>
  </UnstructuredGrid>
</VTKFile>
