<?xml version="1.0"?>
<VTKFile type="UnstructuredGrid" version="0.1" byte_order="LittleEndian" header_type="UInt32" compressor="vtkZLibDataCompressor">
  <UnstructuredGrid>
    <Piece NumberOfPoints="13" NumberOfCells="11">
      <PointData>
        <DataArray type="Float64" Name="Disp" NumberOfComponents="3" format="ascii" RangeMin="0" RangeMax="0.07862901227857731">
          0 0 0 0 0 0
          0.0011321579472482958 -0.0020950259065419304 0 -0.0012020436125326172 -0.0020588200421810844 0
          0.002108763556661005 -0.009474450356686703 0 -0.0027126172115313593 -0.009278846204071284 0
          0.0024806698976631764 -0.021468653115375387 0 -0.004489942962252862 -0.02097887347318507 0
          0.002073723052397413 -0.037520853966328115 0 -0.006715276502340653 -0.03671181177642346 0
          0.0008270731896293489 -0.056799811784364086 0 -0.009388945244566148 -0.055678782033134484 0
          -0.001163274347658387 -0.0786204067955435 0
          <InformationKey name="L2_NORM_RANGE" location="vtkDataArray" length="2">
            <Value index="0">
              0
            </Value>
            <Value index="1">
              0.078629012279
            </Value>
          </InformationKey>
        </DataArray>
        <DataArray type="Float64" Name="Nodal Stress" NumberOfComponents="6" format="ascii" RangeMin="44569.2250439157" RangeMax="134695.6966403606">
          130583.0711716248 -1986.8062252500476 0 -32970.36271929281 0 0
          -71165.27874792942 -10931.630948087457 0 2743.1525071902347 0 0
          97926.13950603793 5483.834658908296 0 -12469.756589064216 0 0
          -89631.79009096758 -4520.8365447539945 0 8697.430137944102 0 0
          82434.89283204092 6014.231926973345 0 -18467.787550119247 0 0
          -84428.19041860286 -6480.185695999377 0 10344.535405975459 0 0
          76512.07041785518 7898.76339591915 0 -19920.975601541686 0 0
          -76238.41114061243 -5644.5957710785315 0 12728.810764628768 0 0
          64581.509137432644 9373.571813957604 0 -21010.659677009455 0 0
          -66869.5954881585 -5275.469923767409 0 13006.649592080284 0 0
          52817.14613465981 9675.43200480869 0 -19879.74830417004 0 0
          -55186.02355114192 -4417.829271656267 0 11981.771002545862 0 0
          39728.75983073134 9502.21456318859 0 -17825.526127505942 0 0
          <InformationKey name="L2_NORM_RANGE" location="vtkDataArray" length="2">
            <Value index="0">
              44569.225044
            </Value>
            <Value index="1">
              134695.69664
            </Value>
          </InformationKey>
        </DataArray>
        <DataArray type="Float64" Name="Nodal Strain" NumberOfComponents="6" format="ascii" RangeMin="0" RangeMax="0">
          0 0 0 0 0 0
          0 0 0 0 0 0
          0 0 0 0 0 0
          0 0 0 0 0 0
          0 0 0 0 0 0
          0 0 0 0 0 0
          0 0 0 0 0 0
          0 0 0 0 0 0
          0 0 0 0 0 0
          0 0 0 0 0 0
          0 0 0 0 0 0
          0 0 0 0 0 0
          0 0 0 0 0 0
          <InformationKey name="L2_NORM_RANGE" location="vtkDataArray" length="2">
            <Value index="0">
              0
            </Value>
            <Value index="1">
              0
            </Value>
          </InformationKey>
        </DataArray>
        <DataArray type="Float64" Name="Sld_traction" NumberOfComponents="3" format="ascii" RangeMin="13640.074751877359" RangeMax="58766.03178332862">
          -56561.88717119454 15943.632308612976 0 20950.32450492641 17213.434460698412 0
          -22463.372086024454 16140.635144654469 0 -19048.495653269987 15858.986539056661 0
          -20299.400768456573 13508.432438974183 0 -16540.988308176777 15039.32449013026 0
          -19222.9717712293 14233.890625586379 0 -14649.970600975503 13674.662097186701 0
          -18698.44775732808 14136.409382941252 0 -12340.883525431642 11653.211638859088 0
          -17346.57424348847 13003.963328005448 0 -9982.476916017138 9295.256524592915 0
          -15889.922550529895 11467.662591648785 0
          <InformationKey name="L2_NORM_RANGE" location="vtkDataArray" length="2">
            <Value index="0">
              13640.074752
            </Value>
            <Value index="1">
              58766.031783
            </Value>
          </InformationKey>
        </DataArray>
        <DataArray type="Float64" Name="Velocity" NumberOfComponents="3" format="ascii" RangeMin="0" RangeMax="1.7974900241159508">
          0 0 0 0 0 0
          -0.05378061994733969 0.1464370049503641 0 0.12253737459672442 0.16914073551606792 0
          -0.03471255573419778 0.573397635732318 0 0.04195995489600021 0.6204283990579632 0
          0.023128662619379188 0.34557443381566505 0 -0.26478430739005954 0.43218641491898646 0
          -0.1850828859206903 -0.2824039737661853 0 -0.3866452646265309 -0.1884020252926496 0
          -0.2426790549059787 -0.5897322944135007 0 -0.6166281191239097 -0.4959344549731195 0
          -0.3059884588452163 -1.7712542024932194 0
          <InformationKey name="L2_NORM_RANGE" location="vtkDataArray" length="2">
            <Value index="0">
              0
            </Value>
            <Value index="1">
              1.7974900241
            </Value>
          </InformationKey>
        </DataArray>
        <DataArray type="Float64" Name="Acceleration" NumberOfComponents="3" format="ascii" RangeMin="0" RangeMax="3594.1304673440513">
          0 0 0 0 0 0
          23.57463876202283 -293.4966948746192 0 59.40017820035928 0.4108401491842244 0
          145.11045590899175 -196.05955927678724 0 -201.51917167715632 245.4149192846835 0
          85.41110986136692 -1303.071885822424 0 -651.56094289673 -1503.352541768938 0
          -472.83223134370337 -1011.661874015959 0 563.597519218645 -1364.442010764971 0
          1229.7723690395324 708.4038615661063 0 344.59721557405817 956.0385068216167 0
          308.8896730909919 -3580.832443182522 0
          <InformationKey name="L2_NORM_RANGE" location="vtkDataArray" length="2">
            <Value index="0">
              0
            </Value>
            <Value index="1">
              3594.1304673
            </Value>
          </InformationKey>
        </DataArray>
        <DataArray type="Float64" Name="Sigma" NumberOfComponents="6" format="ascii" RangeMin="88417.87607186002" RangeMax="195783.0965346509">
          128570.84454828926 -128570.8445482877 0 -67239.77572549891 0 0
          -129328.40069285783 129328.40069285911 0 27375.189715849276 0 0
          137326.46639003168 -137326.46639003057 0 -24777.089142022647 0 0
          -129829.48628202238 129829.48628202273 0 30365.834300759256 0 0
          116483.95755570929 -116483.95755571188 0 -47871.04660991274 0 0
          -114035.09594196147 114035.09594196535 0 41245.91259331156 0 0
          106144.61428318123 -106144.61428318475 0 -51666.87745158262 0 0
          -102398.36173366853 102398.36173366607 0 46716.592940115515 0 0
          88227.01048448088 -88227.01048448207 0 -55768.01946338958 0 0
          -86435.88717539568 86435.887175398 0 47336.20313914867 0 0
          71256.34036609337 -71256.34036609135 0 -52808.112735496215 0 0
          -69248.12021968508 69248.12021966989 0 43534.30689237059 0 0
          53054.00844001648 -53054.00844000238 0 -46778.89680137417 0 0
          <InformationKey name="L2_NORM_RANGE" location="vtkDataArray" length="2">
            <Value index="0">
              88417.876072
            </Value>
            <Value index="1">
              195783.09653
            </Value>
          </InformationKey>
        </DataArray>
        <DataArray type="Float64" Name="Press" format="ascii" RangeMin="-159110.94715215772" RangeMax="160180.5818319678">
          128061.44760646828 -159110.94715215772 160180.5818319678 -143503.24031724595 132108.29243946416 -134137.0736178897
          128634.6867733403 -122655.9773948444 112616.61162198271 -106848.04935827889 95745.68901710918 -88039.70405858818
          75841.17186026866
        </DataArray>
        <DataArray type="Float64" Name="Dev strain" NumberOfComponents="6" format="ascii" RangeMin="0" RangeMax="0">
          0 0 0 0 0 0
          0 0 0 0 0 0
          0 0 0 0 0 0
          0 0 0 0 0 0
          0 0 0 0 0 0
          0 0 0 0 0 0
          0 0 0 0 0 0
          0 0 0 0 0 0
          0 0 0 0 0 0
          0 0 0 0 0 0
          0 0 0 0 0 0
          0 0 0 0 0 0
          0 0 0 0 0 0
          <InformationKey name="L2_NORM_RANGE" location="vtkDataArray" length="2">
            <Value index="0">
              0
            </Value>
            <Value index="1">
              0
            </Value>
          </InformationKey>
        </DataArray>
        <DataArray type="Float64" Name="J2 Stresses" format="ascii" RangeMin="3361794108.0409946" RangeMax="19012034407.76028">
          17660758927.76401 16913185478.767239 19012034407.76028 17086216481.449173 14141421643.722694 13429309432.906572
          11934045697.72491 11031034499.722088 8561523377.746054 8031341623.70562 5774640235.039622 5269111123.108683
          3361794108.0409946
        </DataArray>
      </PointData>
      <CellData>
        <DataArray type="UInt8" Name="vtkGhostType" format="ascii" RangeMin="0" RangeMax="0">
          0 0 0 0 0 0
          0 0 0 0 0
        </DataArray>
        <DataArray type="Float64" Name="Gauss Stress" NumberOfComponents="6" format="ascii" RangeMin="50734.448446534974" RangeMax="92378.8507339062">
          -88088.34207409482 -6867.3950175282 0 10987.97829152863 0 0
          88566.6641772472 -2479.2759863935917 0 -21547.225050557434 0 0
          -90970.8820546487 -6050.465609131756 0 7913.56676138603 0 0
          90922.19053930155 8268.232096822107 0 -14094.100483725384 0 0
          -79482.40254394754 -5956.506948982371 0 12098.542693948153 0 0
          78399.79383061462 6004.143232661184 0 -19430.670489394608 0 0
          -72498.217851908 -5426.725568852874 0 12761.59220529154 0 0
          70189.52801149075 8874.019322159289 0 -20239.434658285572 0 0
          -61189.91047624844 -4904.799123593784 0 12687.465765341016 0 0
          58187.23831866386 9488.9292018792 0 -20413.309686579047 0 0
          46203.12846840483 9494.976077455276 0 -18684.234214833275 0 0
          <InformationKey name="L2_NORM_RANGE" location="vtkDataArray" length="2">
            <Value index="0">
              50734.448447
            </Value>
            <Value index="1">
              92378.850734
            </Value>
          </InformationKey>
        </DataArray>
        <DataArray type="Float64" Name="Gauss Strain" NumberOfComponents="6" format="ascii" RangeMin="0" RangeMax="0">
          0 0 0 0 0 0
          0 0 0 0 0 0
          0 0 0 0 0 0
          0 0 0 0 0 0
          0 0 0 0 0 0
          0 0 0 0 0 0
          0 0 0 0 0 0
          0 0 0 0 0 0
          0 0 0 0 0 0
          0 0 0 0 0 0
          0 0 0 0 0 0
          <InformationKey name="L2_NORM_RANGE" location="vtkDataArray" length="2">
            <Value index="0">
              0
            </Value>
            <Value index="1">
              0
            </Value>
          </InformationKey>
        </DataArray>
      </CellData>
      <Points>
        <DataArray type="Float32" Name="Points" NumberOfComponents="3" format="ascii" RangeMin="0" RangeMax="0.6020797527609908">
          0 0.05000000074505806 0 0 0 0
          0.10000000149011612 0.05000000074505806 0 0.10000000149011612 0 0
          0.20000000298023224 0.05000000074505806 0 0.20000000298023224 0 0
          0.30000001192092896 0.05000000074505806 0 0.30000001192092896 0 0
          0.4000000059604645 0.05000000074505806 0 0.4000000059604645 0 0
          0.5 0.05000000074505806 0 0.5 0 0
          0.6000000238418579 0.05000000074505806 0
          <InformationKey name="L2_NORM_RANGE" location="vtkDataArray" length="2">
            <Value index="0">
              0
            </Value>
            <Value index="1">
              0.60207975276
            </Value>
          </InformationKey>
        </DataArray>
      </Points>
      <Cells>
        <DataArray type="Int64" Name="connectivity" format="ascii" RangeMin="0" RangeMax="12">
          3 2 1 2 0 1
          5 4 3 4 2 3
          7 6 5 6 4 5
          9 8 7 8 6 7
          11 10 9 10 8 9
          12 10 11
        </DataArray>
        <DataArray type="Int64" Name="offsets" format="ascii" RangeMin="3" RangeMax="33">
          3 6 9 12 15 18
          21 24 27 30 33
        </DataArray>
        <DataArray type="UInt8" Name="types" format="ascii" RangeMin="5" RangeMax="5">
          5 5 5 5 5 5
          5 5 5 5 5
        </DataArray>
      </Cells>
    </Piece>
  </UnstructuredGrid>
</VTKFile>
