<?xml version="1.0"?>
<VTKFile type="UnstructuredGrid" version="0.1" byte_order="LittleEndian" header_type="UInt32" compressor="vtkZLibDataCompressor">
  <UnstructuredGrid>
    <Piece NumberOfPoints="13" NumberOfCells="11">
      <PointData>
        <DataArray type="Float64" Name="Disp" NumberOfComponents="3" format="ascii" RangeMin="0" RangeMax="0.0621833597052485">
          0 0 0 0 0 0
          0.0011554871009400473 -0.002355606632615995 0 -0.0013912548136509795 -0.0022748363141274286 0
          0.0018839811392821503 -0.010129336700486671 0 -0.00287985880458855 -0.009846054500678731 0
          0.0017658309940183255 -0.021271997482374044 0 -0.004291654113259713 -0.020809628444741067 0
          0.0010656786319780697 -0.03432179426779083 0 -0.005667899646682501 -0.03377956491444697 0
          0.00009348349672244855 -0.048166996370440494 0 -0.006882417697603425 -0.04762179352662293 0
          -0.0009767627943888099 -0.06217568784240204 0
          <InformationKey name="L2_NORM_RANGE" location="vtkDataArray" length="2">
            <Value index="0">
              0
            </Value>
            <Value index="1">
              0.062183359705
            </Value>
          </InformationKey>
        </DataArray>
        <DataArray type="Float64" Name="Nodal Stress" NumberOfComponents="6" format="ascii" RangeMin="5903.566321642163" RangeMax="133216.3292323299">
          127009.34037131145 -4661.136730408501 0 -39918.56256131116 0 0
          -64624.362775599584 -12450.877678838266 0 -3869.46955961481 0 0
          87242.65323420527 6962.796207527335 0 -17580.397285693973 0 0
          -77662.5657757944 -41.152777740409114 0 4377.433210021235 0 0
          57493.27524358017 8929.57582971216 0 -20513.5247101162 0 0
          -60304.41055195627 -1058.2404088423982 0 3450.7665292702804 0 0
          37905.07908136137 8563.353716220287 0 -16414.58764777934 0 0
          -39105.72123464458 838.5517829589742 0 2362.933935516611 0 0
          19903.9485463793 6570.767702700161 0 -11577.129516921435 0 0
          -20598.809537691868 950.300298043501 0 498.2691056019257 0 0
          9664.393188148653 3830.7740466471528 0 -6945.177329763564 0 0
          -7265.8568200966865 868.752183086982 0 -795.5109098879444 0 0
          4531.1062265739965 1433.332096869515 0 -3502.389295554332 0 0
          <InformationKey name="L2_NORM_RANGE" location="vtkDataArray" length="2">
            <Value index="0">
              5903.5663216
            </Value>
            <Value index="1">
              133216.32923
            </Value>
          </InformationKey>
        </DataArray>
        <DataArray type="Float64" Name="Nodal Strain" NumberOfComponents="6" format="ascii" RangeMin="0" RangeMax="0">
          0 0 0 0 0 0
          0 0 0 0 0 0
          0 0 0 0 0 0
          0 0 0 0 0 0
          0 0 0 0 0 0
          0 0 0 0 0 0
          0 0 0 0 0 0
          0 0 0 0 0 0
          0 0 0 0 0 0
          0 0 0 0 0 0
          0 0 0 0 0 0
          0 0 0 0 0 0
          0 0 0 0 0 0
          <InformationKey name="L2_NORM_RANGE" location="vtkDataArray" length="2">
            <Value index="0">
              0
            </Value>
            <Value index="1">
              0
            </Value>
          </InformationKey>
        </DataArray>
        <DataArray type="Float64" Name="Sld_traction" NumberOfComponents="3" format="ascii" RangeMin="793.341931741249" RangeMax="64608.543204190544">
          -62331.02561198509 17003.149741321882 0 21375.163749714124 20563.487741467223 0
          -28105.198957040753 17166.23148328976 0 -14914.864937175866 10763.407761836843 0
          -25705.723254334724 14195.837493868386 0 -10445.614517059534 7400.318238556272 0
          -21007.610190778698 12459.799187583336 0 -5863.582222230507 4176.521587762735 0
          -14915.190851783458 8782.119562511773 0 -2664.4949357658825 1843.057470393349 0
          -9058.458097389503 4748.3440945278335 0 -675.8636133868293 415.4513169537859 0
          -4514.1690582981755 1532.0371631946748 0
          <InformationKey name="L2_NORM_RANGE" location="vtkDataArray" length="2">
            <Value index="0">
              793.34193174
            </Value>
            <Value index="1">
              64608.543204
            </Value>
          </InformationKey>
        </DataArray>
        <DataArray type="Float64" Name="Velocity" NumberOfComponents="3" format="ascii" RangeMin="0" RangeMax="6.494275371863498">
          0 0 0 0 0 0
          0.2572723100889046 -0.6844266049526817 0 -0.39026863981133125 -0.6628102554564457 0
          0.2523523711360295 -2.3362800988682073 0 -0.47663171240798063 -2.266802439610946 0
          0.014486029079932045 -3.583545481232173 0 -0.6041202308159521 -3.5138155443451033 0
          -0.11648798607627173 -4.932428266997655 0 -0.7947507270620626 -4.8608393260619485 0
          -0.34239221996403124 -6.107706447687404 0 -0.7224582929322432 -6.073177631859496 0
          -0.5110857780706803 -6.474133450358177 0
          <InformationKey name="L2_NORM_RANGE" location="vtkDataArray" length="2">
            <Value index="0">
              0
            </Value>
            <Value index="1">
              6.4942753719
            </Value>
          </InformationKey>
        </DataArray>
        <DataArray type="Float64" Name="Acceleration" NumberOfComponents="3" format="ascii" RangeMin="0" RangeMax="3149.0065233295654">
          0 0 0 0 0 0
          -132.87996405731457 -244.66128122665123 0 -375.37836957283946 -538.5035324295494 0
          -663.1852745608019 -136.34457390897478 0 70.7036557854774 -580.3338557804595 0
          -346.52073712834095 2256.6619269801085 0 609.7447751373396 1502.6944602628187 0
          739.5219580393862 3060.939293346039 0 736.7606625920515 2550.776778249324 0
          227.29073543985896 2716.703495954421 0 548.1764143873374 2899.7100945366165 0
          -93.86957424025127 3046.0884417002762 0
          <InformationKey name="L2_NORM_RANGE" location="vtkDataArray" length="2">
            <Value index="0">
              0
            </Value>
            <Value index="1">
              3149.0065233
            </Value>
          </InformationKey>
        </DataArray>
        <DataArray type="Float64" Name="Sigma" NumberOfComponents="6" format="ascii" RangeMin="8612.02132724501" RangeMax="198192.19697304838">
          129848.96135069967 -129848.96135069786 0 -74556.29693924639 0 0
          -117678.81724729572 117678.81724729744 0 19452.351672976554 0 0
          121321.84874933855 -121321.84874933939 0 -30014.008039728444 0 0
          -113628.98048163459 113628.98048163443 0 27138.017062356175 0 0
          82791.84938770966 -82791.84938770565 0 -48068.97638458188 0 0
          -77640.72417908249 77640.72417907836 0 27401.38908040066 0 0
          53321.91575562598 -53321.915755629685 0 -36028.19389945257 0 0
          -49833.99556507047 49833.99556508153 0 18721.711233253678 0 0
          27294.057737398507 -27294.05773739376 0 -24490.108335635177 0 0
          -24789.767792346145 24789.76779235329 0 9934.63843837925 0 0
          11872.857840905057 -11872.857840914807 0 -13105.83883955499 0 0
          -9213.207024154068 9213.207024178511 0 2918.137244394449 0 0
          4438.117182905844 -4438.117182926457 0 -5896.875705179118 0 0
          <InformationKey name="L2_NORM_RANGE" location="vtkDataArray" length="2">
            <Value index="0">
              8612.0213272
            </Value>
            <Value index="1">
              198192.19697
            </Value>
          </InformationKey>
        </DataArray>
        <DataArray type="Float64" Name="Press" format="ascii" RangeMin="-152641.77421689895" RangeMax="147035.02960858826">
          125151.57594505716 -152641.77421689895 147035.02960858826 -120136.62751690447 99311.01865747159 -89295.91538643476
          71524.52622884727 -55784.806086408804 39354.268389717305 -28018.699988193646 18444.306086174136 -9777.652985949186
          6494.467322866913
        </DataArray>
        <DataArray type="Float64" Name="Dev strain" NumberOfComponents="6" format="ascii" RangeMin="0" RangeMax="0">
          0 0 0 0 0 0
          0 0 0 0 0 0
          0 0 0 0 0 0
          0 0 0 0 0 0
          0 0 0 0 0 0
          0 0 0 0 0 0
          0 0 0 0 0 0
          0 0 0 0 0 0
          0 0 0 0 0 0
          0 0 0 0 0 0
          0 0 0 0 0 0
          0 0 0 0 0 0
          0 0 0 0 0 0
          <InformationKey name="L2_NORM_RANGE" location="vtkDataArray" length="2">
            <Value index="0">
              0
            </Value>
            <Value index="1">
              0
            </Value>
          </InformationKey>
        </DataArray>
        <DataArray type="Float64" Name="J2 Stresses" format="ascii" RangeMin="28390169.899878513" RangeMax="18250413117.178535">
          18250413117.178535 13942902525.124916 14944201153.609701 13095663197.814857 7432146947.70224 6215791081.935918
          3167734388.76441 2571052731.855349 894906939.3451009 639206847.42395 183905506.23255348 87012064.91442756
          28390169.899878513
        </DataArray>
      </PointData>
      <CellData>
        <DataArray type="UInt8" Name="vtkGhostType" format="ascii" RangeMin="0" RangeMax="0">
          0 0 0 0 0 0
          0 0 0 0 0
        </DataArray>
        <DataArray type="Float64" Name="Gauss Stress" NumberOfComponents="6" format="ascii" RangeMin="9540.49493854368" RangeMax="89111.18129446663">
          -78576.44036826899 -5252.474381874217 0 5525.453565201431 0 0
          84345.60806316302 -4649.053838664433 0 -28372.65110199942 0 0
          -72866.45983962502 -547.8896576201673 0 2156.8099193916514 0 0
          72231.37946818973 11908.2343645816 0 -16981.655787318057 0 0
          -49236.33307750777 198.8695815113033 0 3364.968804733925 0 0
          46670.89015471244 7688.862845209049 0 -18898.5937345446 0 0
          -30592.98110163442 960.1559783853049 0 1388.7471119992515 0 0
          28625.322153369932 8104.003534737952 0 -13932.197000611357 0 0
          -13827.387954521284 926.0233625494341 0 -84.35438559376144 0 0
          14719.007424551739 5134.242233914172 0 -9220.43624560364 0 0
          7419.629474249567 2687.784141143038 0 -5361.525766779886 0 0
          <InformationKey name="L2_NORM_RANGE" location="vtkDataArray" length="2">
            <Value index="0">
              9540.4949385
            </Value>
            <Value index="1">
              89111.181294
            </Value>
          </InformationKey>
        </DataArray>
        <DataArray type="Float64" Name="Gauss Strain" NumberOfComponents="6" format="ascii" RangeMin="0" RangeMax="0">
          0 0 0 0 0 0
          0 0 0 0 0 0
          0 0 0 0 0 0
          0 0 0 0 0 0
          0 0 0 0 0 0
          0 0 0 0 0 0
          0 0 0 0 0 0
          0 0 0 0 0 0
          0 0 0 0 0 0
          0 0 0 0 0 0
          0 0 0 0 0 0
          <InformationKey name="L2_NORM_RANGE" location="vtkDataArray" length="2">
            <Value index="0">
              0
            </Value>
            <Value index="1">
              0
            </Value>
          </InformationKey>
        </DataArray>
      </CellData>
      <Points>
        <DataArray type="Float32" Name="Points" NumberOfComponents="3" format="ascii" RangeMin="0" RangeMax="0.6020797527609908">
          0 0.05000000074505806 0 0 0 0
          0.10000000149011612 0.05000000074505806 0 0.10000000149011612 0 0
          0.20000000298023224 0.05000000074505806 0 0.20000000298023224 0 0
          0.30000001192092896 0.05000000074505806 0 0.30000001192092896 0 0
          0.4000000059604645 0.05000000074505806 0 0.4000000059604645 0 0
          0.5 0.05000000074505806 0 0.5 0 0
          0.6000000238418579 0.05000000074505806 0
          <InformationKey name="L2_NORM_RANGE" location="vtkDataArray" length="2">
            <Value index="0">
              0
            </Value>
            <Value index="1">
              0.60207975276
            </Value>
          </InformationKey>
        </DataArray>
      </Points>
      <Cells>
        <DataArray type="Int64" Name="connectivity" format="ascii" RangeMin="0" RangeMax="12">
          3 2 1 2 0 1
          5 4 3 4 2 3
          7 6 5 6 4 5
          9 8 7 8 6 7
          11 10 9 10 8 9
          12 10 11
        </DataArray>
        <DataArray type="Int64" Name="offsets" format="ascii" RangeMin="3" RangeMax="33">
          3 6 9 12 15 18
          21 24 27 30 33
        </DataArray>
        <DataArray type="UInt8" Name="types" format="ascii" RangeMin="5" RangeMax="5">
          5 5 5 5 5 5
          5 5 5 5 5
        </DataArray>
      </Cells>
    </Piece>
  </UnstructuredGrid>
</VTKFile>
