<?xml version="1.0"?>
<VTKFile type="UnstructuredGrid" version="0.1" byte_order="LittleEndian" header_type="UInt32" compressor="vtkZLibDataCompressor">
  <UnstructuredGrid>
    <Piece NumberOfPoints="13" NumberOfCells="11">
      <PointData>
        <DataArray type="Float64" Name="Disp" NumberOfComponents="3" format="ascii" RangeMin="0" RangeMax="0.06790296999603453">
          0 0 0 0 0 0
          0.001336724413454886 -0.002803661160276062 0 -0.0016548877617611618 -0.002712663240968813 0
          0.0020889083871514593 -0.011766399604902784 0 -0.0032409677391625025 -0.011445643110479424 0
          0.001856499254656546 -0.023932924675515353 0 -0.004680031847736613 -0.02344025473461088 0
          0.0010945944727021768 -0.03795962546423106 0 -0.0061329397006634825 -0.037373184277609994 0
          -0.000015335874676309248 -0.05282374523173891 0 -0.007486815548079833 -0.052185590743958635 0
          -0.0012771369897430765 -0.0678909585688094 0
          <InformationKey name="L2_NORM_RANGE" location="vtkDataArray" length="2">
            <Value index="0">
              0
            </Value>
            <Value index="1">
              0.067902969996
            </Value>
          </InformationKey>
        </DataArray>
        <DataArray type="Float64" Name="Nodal Stress" NumberOfComponents="6" format="ascii" RangeMin="8095.669180791339" RangeMax="151710.32645658904">
          143628.65208507693 -5681.3916866297295 0 -48523.75956468994 0 0
          -73060.04112361191 -14045.868773907316 0 -7530.489308852594 0 0
          95028.92056937677 8426.211463076776 0 -21948.720749470554 0 0
          -86868.82102641927 1114.353057065415 0 3851.0324156078564 0 0
          60793.931292075424 10384.049596728375 0 -23575.071370244095 0 0
          -64950.9209830719 -1274.1842809410057 0 3913.6037901994437 0 0
          40625.175243087004 8776.443095394927 0 -17616.08091707674 0 0
          -41016.65652115967 146.32728705221155 0 3137.3919691678966 0 0
          22728.088535935607 6758.0225110873325 0 -12709.691395166348 0 0
          -23397.939834587207 392.0582242027326 0 1329.9054948461646 0 0
          12723.020820630347 4157.985883507497 0 -7775.6496730000945 0 0
          -10470.381927588682 384.4220732230584 0 728.0800965506651 0 0
          6625.090724180537 2168.4568873202593 0 -4116.530955674335 0 0
          <InformationKey name="L2_NORM_RANGE" location="vtkDataArray" length="2">
            <Value index="0">
              8095.6691808
            </Value>
            <Value index="1">
              151710.32646
            </Value>
          </InformationKey>
        </DataArray>
        <DataArray type="Float64" Name="Nodal Strain" NumberOfComponents="6" format="ascii" RangeMin="0" RangeMax="0">
          0 0 0 0 0 0
          0 0 0 0 0 0
          0 0 0 0 0 0
          0 0 0 0 0 0
          0 0 0 0 0 0
          0 0 0 0 0 0
          0 0 0 0 0 0
          0 0 0 0 0 0
          0 0 0 0 0 0
          0 0 0 0 0 0
          0 0 0 0 0 0
          0 0 0 0 0 0
          0 0 0 0 0 0
          <InformationKey name="L2_NORM_RANGE" location="vtkDataArray" length="2">
            <Value index="0">
              0
            </Value>
            <Value index="1">
              0
            </Value>
          </InformationKey>
        </DataArray>
        <DataArray type="Float64" Name="Sld_traction" NumberOfComponents="3" format="ascii" RangeMin="2760.947714867195" RangeMax="75379.75372626258">
          -72672.50391661291 20020.350804166213 0 26298.298487229957 24395.913246666383 0
          -31891.127131520658 19291.521357123584 0 -14000.092347089565 10609.803975669442 0
          -28020.28738368659 15316.729367017784 0 -10297.389765913027 7749.615043987781 0
          -21991.214669795318 12740.634135112876 0 -6444.871828257452 5119.9118410799065 0
          -15959.388123010885 9090.93349431145 0 -3685.9517905700986 2727.098116110855 0
          -10206.680964874793 5388.478792351438 0 -2477.906618610677 1217.7073021361848 0
          -5527.945047551543 2652.4206186563856 0
          <InformationKey name="L2_NORM_RANGE" location="vtkDataArray" length="2">
            <Value index="0">
              2760.9477149
            </Value>
            <Value index="1">
              75379.753726
            </Value>
          </InformationKey>
        </DataArray>
        <DataArray type="Float64" Name="Velocity" NumberOfComponents="3" format="ascii" RangeMin="0" RangeMax="4.957218945227297">
          0 0 0 0 0 0
          0.10520231494077298 -0.21168245036745303 0 -0.13699725640903343 -0.21284359822632326 0
          0.15750212460258847 -0.9378457099640185 0 -0.24558615673992387 -0.93237477999044 0
          0.16685049219650913 -1.738308905050445 0 -0.1726352381378477 -1.7474370353945223 0
          0.17431966752448594 -2.343234125882812 0 -0.1353293808999011 -2.3263994002641044 0
          0.12475347716651569 -3.2057912749094304 0 -0.4863374080205739 -3.054416802811917 0
          -0.0896626126378528 -4.9564080024565556 0
          <InformationKey name="L2_NORM_RANGE" location="vtkDataArray" length="2">
            <Value index="0">
              0
            </Value>
            <Value index="1">
              4.9572189452
            </Value>
          </InformationKey>
        </DataArray>
        <DataArray type="Float64" Name="Acceleration" NumberOfComponents="3" format="ascii" RangeMin="0" RangeMax="3272.6769525022037">
          0 0 0 0 0 0
          -171.26002623894868 1190.1495903971086 0 881.9211363774351 1438.4368468897942 0
          473.48478149391985 2933.2133517173525 0 391.3874555506361 3249.1891750214713 0
          651.2496633614951 1433.8112253833478 0 253.22521021886917 2030.0625576383432 0
          -157.90665083787087 2117.4489888836465 0 582.0820297322715 2518.103073346364 0
          707.0006588212349 3087.126849601526 0 -75.93464456399897 3137.81156355854 0
          936.7159051059064 -10.637545897034215 0
          <InformationKey name="L2_NORM_RANGE" location="vtkDataArray" length="2">
            <Value index="0">
              0
            </Value>
            <Value index="1">
              3272.6769525
            </Value>
          </InformationKey>
        </DataArray>
        <DataArray type="Float64" Name="Sigma" NumberOfComponents="6" format="ascii" RangeMin="13106.00608408078" RangeMax="228498.33216098274">
          149087.9565538419 -149087.95655383647 0 -88074.11777333857 0 0
          -131919.1408994091 131919.140899409 0 17744.24316516639 0 0
          132363.31533514312 -132363.3153351448 0 -35691.04587724903 0 0
          -126344.56731189784 126344.56731189767 0 30014.526462749654 0 0
          88047.55379826 -88047.55379826063 0 -54795.92196492314 0 0
          -82512.99372489341 82512.99372489139 0 30570.11308703731 0 0
          56698.91057254698 -56698.910572552675 0 -38689.768218060766 0 0
          -51839.024049759864 51839.02404976702 0 21205.355745293407 0 0
          30581.30989161625 -30581.30989161101 0 -27486.988431144622 0 0
          -28565.380336241964 28565.380336240545 0 12505.693553457379 0 0
          16126.344504493809 -16126.344504503544 0 -16139.894819278306 0 0
          -13088.21217842412 13088.212178436013 0 7066.28533555267 0 0
          7298.042014786031 -7298.042014801376 0 -8077.410536587458 0 0
          <InformationKey name="L2_NORM_RANGE" location="vtkDataArray" length="2">
            <Value index="0">
              13106.006084
            </Value>
            <Value index="1">
              228498.33216
            </Value>
          </InformationKey>
        </DataArray>
        <DataArray type="Float64" Name="Press" format="ascii" RangeMin="-172066.80081542523" RangeMax="162182.71125288797">
          142889.30517971358 -172066.80081542523 162182.71125288797 -131545.99342442164 106656.1089390455 -95551.96039997919
          75795.63655378378 -59352.147183771966 43621.97111309698 -33104.79900556379 23902.446749559393 -15305.858371048234
          10989.47919500497
        </DataArray>
        <DataArray type="Float64" Name="Dev strain" NumberOfComponents="6" format="ascii" RangeMin="0" RangeMax="0">
          0 0 0 0 0 0
          0 0 0 0 0 0
          0 0 0 0 0 0
          0 0 0 0 0 0
          0 0 0 0 0 0
          0 0 0 0 0 0
          0 0 0 0 0 0
          0 0 0 0 0 0
          0 0 0 0 0 0
          0 0 0 0 0 0
          0 0 0 0 0 0
          0 0 0 0 0 0
          0 0 0 0 0 0
          <InformationKey name="L2_NORM_RANGE" location="vtkDataArray" length="2">
            <Value index="0">
              0
            </Value>
            <Value index="1">
              0
            </Value>
          </InformationKey>
        </DataArray>
        <DataArray type="Float64" Name="J2 Stresses" format="ascii" RangeMin="69572557.49383768" RangeMax="24166481344.78742">
          24166481344.78742 17481374277.014275 17838509935.463734 16188167638.926437 8503019995.85403 7042027086.982698
          3588991001.305819 2799701192.503064 1124100147.9403753 855079046.5673649 325183038.2721163 183784395.1384668
          69572557.49383768
        </DataArray>
      </PointData>
      <CellData>
        <DataArray type="UInt8" Name="vtkGhostType" format="ascii" RangeMin="0" RangeMax="0">
          0 0 0 0 0 0
          0 0 0 0 0
        </DataArray>
        <DataArray type="Float64" Name="Gauss Stress" NumberOfComponents="6" format="ascii" RangeMin="11902.654109878862" RangeMax="100742.20495893163">
          -89110.15862104093 -5176.563370265689 0 4022.5745835556736 0 0
          94179.11553558413 -5508.9717907986615 0 -35340.30682847373 0 0
          -80417.28404129553 122.72078439103052 0 1929.5725282879448 0 0
          77119.70952967239 14408.841648668022 0 -20157.48045980751 0 0
          -52253.859410691235 -485.1212759538821 0 4361.90020475665 0 0
          49711.08524625457 8222.104815642728 0 -20971.859031982203 0 0
          -32886.023190208114 329.3731393859275 0 2074.686955868722 0 0
          31835.552299170733 8208.088022904045 0 -14990.466967970662 0 0
          -16678.4862124083 339.6791277067921 0 1144.0280232439154 0 0
          17520.63097232023 5425.781599072856 0 -10373.729898988517 0 0
          9974.080638123953 3083.2977442157407 0 -5717.0066734377 0 0
          <InformationKey name="L2_NORM_RANGE" location="vtkDataArray" length="2">
            <Value index="0">
              11902.65411
            </Value>
            <Value index="1">
              100742.20496
            </Value>
          </InformationKey>
        </DataArray>
        <DataArray type="Float64" Name="Gauss Strain" NumberOfComponents="6" format="ascii" RangeMin="0" RangeMax="0">
          0 0 0 0 0 0
          0 0 0 0 0 0
          0 0 0 0 0 0
          0 0 0 0 0 0
          0 0 0 0 0 0
          0 0 0 0 0 0
          0 0 0 0 0 0
          0 0 0 0 0 0
          0 0 0 0 0 0
          0 0 0 0 0 0
          0 0 0 0 0 0
          <InformationKey name="L2_NORM_RANGE" location="vtkDataArray" length="2">
            <Value index="0">
              0
            </Value>
            <Value index="1">
              0
            </Value>
          </InformationKey>
        </DataArray>
      </CellData>
      <Points>
        <DataArray type="Float32" Name="Points" NumberOfComponents="3" format="ascii" RangeMin="0" RangeMax="0.6020797527609908">
          0 0.05000000074505806 0 0 0 0
          0.10000000149011612 0.05000000074505806 0 0.10000000149011612 0 0
          0.20000000298023224 0.05000000074505806 0 0.20000000298023224 0 0
          0.30000001192092896 0.05000000074505806 0 0.30000001192092896 0 0
          0.4000000059604645 0.05000000074505806 0 0.4000000059604645 0 0
          0.5 0.05000000074505806 0 0.5 0 0
          0.6000000238418579 0.05000000074505806 0
          <InformationKey name="L2_NORM_RANGE" location="vtkDataArray" length="2">
            <Value index="0">
              0
            </Value>
            <Value index="1">
              0.60207975276
            </Value>
          </InformationKey>
        </DataArray>
      </Points>
      <Cells>
        <DataArray type="Int64" Name="connectivity" format="ascii" RangeMin="0" RangeMax="12">
          3 2 1 2 0 1
          5 4 3 4 2 3
          7 6 5 6 4 5
          9 8 7 8 6 7
          11 10 9 10 8 9
          12 10 11
        </DataArray>
        <DataArray type="Int64" Name="offsets" format="ascii" RangeMin="3" RangeMax="33">
          3 6 9 12 15 18
          21 24 27 30 33
        </DataArray>
        <DataArray type="UInt8" Name="types" format="ascii" RangeMin="5" RangeMax="5">
          5 5 5 5 5 5
          5 5 5 5 5
        </DataArray>
      </Cells>
    </Piece>
  </UnstructuredGrid>
</VTKFile>
