<?xml version="1.0"?>
<VTKFile type="UnstructuredGrid" version="0.1" byte_order="LittleEndian" header_type="UInt32" compressor="vtkZLibDataCompressor">
  <UnstructuredGrid>
    <Piece NumberOfPoints="13" NumberOfCells="11">
      <PointData>
        <DataArray type="Float64" Name="Disp" NumberOfComponents="3" format="ascii" RangeMin="0.016169725620809143" RangeMax="0.08782678254629547">
          -0.0034524037255700976 -0.024546324684553165 0 0.0009588619888815529 -0.035046828273031704 0
          -0.004489881248759714 -0.03468247243293557 0 0.000526199462549415 -0.04670036236889551 0
          -0.005634335408270108 -0.0462837844755709 0 -0.000032359406133348556 -0.059746163908710216 0
          -0.006843530249510138 -0.05928678423498214 0 -0.0008267926138597276 -0.07382494950079066 0
          -0.007876376288258406 -0.07335658071265776 0 -0.0018458068161725976 -0.08780738425458101 0
          -0.00878465129779124 -0.08734458774240472 0 0.0012402377237108004 -0.024839650554382142 0
          -0.002567780162772808 -0.015964539820737776 0
          <InformationKey name="L2_NORM_RANGE" location="vtkDataArray" length="2">
            <Value index="0">
              0.016169725621
            </Value>
            <Value index="1">
              0.087826782546
            </Value>
          </InformationKey>
        </DataArray>
        <DataArray type="Float64" Name="Nodal Stress" NumberOfComponents="6" format="ascii" RangeMin="2025.9239967040203" RangeMax="30141.197831974918">
          -27317.056013264035 -1507.936776091451 0 3763.6903800767514 0 0
          26115.52383927166 2833.991847693936 0 -5678.376793716411 0 0
          -24802.43284290515 -1101.4956912182151 0 3143.045353150024 0 0
          21263.13248618049 2681.173917087316 0 -5609.845856502837 0 0
          -20293.64820272183 -465.4198992857889 0 1854.9637317758315 0 0
          13561.5323034773 2970.9178819259255 0 -5655.061985823264 0 0
          -14701.97029207804 624.0971331138285 0 -328.6398730793474 0 0
          5909.326953592006 2502.8686392695113 0 -4381.982296656651 0 0
          -8123.5164082674455 886.9884611521363 0 -912.3722723489321 0 0
          2838.4775597183334 2400.030391360188 0 -3024.123005863234 0 0
          -1939.02443030494 574.0764156010797 0 -122.42780792128127 0 0
          29232.215103476956 2782.427851137972 0 -5757.785449912581 0 0
          -29826.648643175267 -1781.3506424071925 0 3961.013424821472 0 0
          <InformationKey name="L2_NORM_RANGE" location="vtkDataArray" length="2">
            <Value index="0">
              2025.9239967
            </Value>
            <Value index="1">
              30141.197832
            </Value>
          </InformationKey>
        </DataArray>
        <DataArray type="Float64" Name="Nodal Strain" NumberOfComponents="6" format="ascii" RangeMin="0" RangeMax="0">
          0 0 0 0 0 0
          0 0 0 0 0 0
          0 0 0 0 0 0
          0 0 0 0 0 0
          0 0 0 0 0 0
          0 0 0 0 0 0
          0 0 0 0 0 0
          0 0 0 0 0 0
          0 0 0 0 0 0
          0 0 0 0 0 0
          0 0 0 0 0 0
          0 0 0 0 0 0
          0 0 0 0 0 0
          <InformationKey name="L2_NORM_RANGE" location="vtkDataArray" length="2">
            <Value index="0">
              0
            </Value>
            <Value index="1">
              0
            </Value>
          </InformationKey>
        </DataArray>
        <DataArray type="Float64" Name="Sld_traction" NumberOfComponents="3" format="ascii" RangeMin="971.7873571049237" RangeMax="9303.082216429175">
          -5423.732518462662 4561.702507867094 0 -6230.600394586358 5269.932715833278 0
          -3848.2289097129433 3627.370351344547 0 -5791.140717364831 4526.766253117668 0
          -2024.9224693357799 2517.5557940094313 0 -5726.022797282683 4037.448642688887 0
          647.10925988478 994.4798529977105 0 -4620.887474927337 3165.2643510242497 0
          849.6481494104455 471.66586651185355 0 -159.81638470800456 1081.2828986023806 0
          981.3137280884297 23.31732403758576 0 -7288.660063072016 5781.243223617202 0
          -6749.8122932753495 5249.931100239849 0
          <InformationKey name="L2_NORM_RANGE" location="vtkDataArray" length="2">
            <Value index="0">
              971.7873571
            </Value>
            <Value index="1">
              9303.0822164
            </Value>
          </InformationKey>
        </DataArray>
        <DataArray type="Float64" Name="Velocity" NumberOfComponents="3" format="ascii" RangeMin="5.518765860918148" RangeMax="11.65261433924222">
          -1.4747801072645514 -8.139335117042402 0 -0.7214845734195235 -10.6433861691967 0
          -1.4898654904292425 -10.519959754638373 0 -1.2083576860226861 -11.37112606320316 0
          -1.4231784401992718 -11.35442050647001 0 -1.3217538429104696 -11.470893104240863 0
          -1.1237428999309305 -11.59830258417016 0 -1.2801609715956814 -10.379754759660441 0
          -0.5907525774978271 -10.600052658881836 0 -0.8072353958196445 -8.818169969843385 0
          -0.0985486464589943 -9.106600118481163 0 -0.12477346109905421 -8.309912188846733 0
          -1.093609360476022 -5.409324837196861 0
          <InformationKey name="L2_NORM_RANGE" location="vtkDataArray" length="2">
            <Value index="0">
              5.5187658609
            </Value>
            <Value index="1">
              11.652614339
            </Value>
          </InformationKey>
        </DataArray>
        <DataArray type="Float64" Name="Acceleration" NumberOfComponents="3" format="ascii" RangeMin="313.2598367671596" RangeMax="4211.124815965807">
          -389.69945217844224 -279.3799576751535 0 -259.69819275026407 -497.0821015179554 0
          -200.80903450768767 -593.2060949830193 0 -187.36385695554236 -661.5157024498244 0
          -811.9050540075905 -517.048998716562 0 -1180.0672811054328 -1599.8660677681 0
          -272.30169717211106 -2028.4280309450824 0 -778.5269808736774 2489.4499883016674 0
          498.21193644954155 1788.5454607578217 0 521.0795806398783 4178.761573275415 0
          705.5435521631377 3055.646102001776 0 -92.51220181983763 -299.287851149747 0
          -346.21754151864286 788.1501564691653 0
          <InformationKey name="L2_NORM_RANGE" location="vtkDataArray" length="2">
            <Value index="0">
              313.25983677
            </Value>
            <Value index="1">
              4211.124816
            </Value>
          </InformationKey>
        </DataArray>
        <DataArray type="Float64" Name="Sigma" NumberOfComponents="6" format="ascii" RangeMin="2258.3632939565055" RangeMax="60630.78615794687">
          -38400.93917855611 38400.93917855798 0 13268.616549996079 0 0
          35966.199827290795 -35966.19982729014 0 -14890.790430384764 0 0
          -34788.278891441485 34788.27889143656 0 12078.869652725662 0 0
          30057.597134034317 -30057.5971340285 0 -13951.02284539535 0 0
          -27437.88591886848 27437.885918864336 0 9782.734598180254 0 0
          19361.007871789738 -19361.00787178715 0 -12329.204971968255 0 0
          -18623.838606886377 18623.838606869176 0 4144.912318076723 0 0
          9283.143046700861 -9283.143046696594 0 -7723.12409232191 0 0
          -10159.442902416995 10159.442902410146 0 1554.4863789613378 0 0
          2921.8887382880894 -2921.8887382983594 0 -5303.132951581014 0 0
          1105.6762361591261 -1105.6762361491803 0 1629.4676704672752 0 0
          39852.44463975165 -39852.4446397554 0 -15401.757138756253 0 0
          -41679.929704872906 41679.929704877475 0 14200.674270048168 0 0
          <InformationKey name="L2_NORM_RANGE" location="vtkDataArray" length="2">
            <Value index="0">
              2258.363294
            </Value>
            <Value index="1">
              60630.786158
            </Value>
          </InformationKey>
        </DataArray>
        <DataArray type="Float64" Name="Press" format="ascii" RangeMin="-48200.83382001953" RangeMax="47087.98480913704">
          -44270.62433609209 43007.367665030455 -39762.568849313015 36209.789604086254 -31382.22968681825 25366.411716822076
          -19927.925770485053 13217.718550184492 -10801.703387429689 7231.316100593463 420.24562871355965 47087.98480913704
          -48200.83382001953
        </DataArray>
        <DataArray type="Float64" Name="Dev strain" NumberOfComponents="6" format="ascii" RangeMin="0" RangeMax="0">
          0 0 0 0 0 0
          0 0 0 0 0 0
          0 0 0 0 0 0
          0 0 0 0 0 0
          0 0 0 0 0 0
          0 0 0 0 0 0
          0 0 0 0 0 0
          0 0 0 0 0 0
          0 0 0 0 0 0
          0 0 0 0 0 0
          0 0 0 0 0 0
          0 0 0 0 0 0
          0 0 0 0 0 0
          <InformationKey name="L2_NORM_RANGE" location="vtkDataArray" length="2">
            <Value index="0">
              0
            </Value>
            <Value index="1">
              0
            </Value>
          </InformationKey>
        </DataArray>
        <DataArray type="Float64" Name="J2 Stresses" format="ascii" RangeMin="1886311.1614705268" RangeMax="1787631327.6343389">
          1518646176.0829449 1349001439.9269989 1246699121.2504263 952116905.0799189 776763057.7513356 412850949.6216558
          351142438.98616725 101088406.2618217 103818387.06299558 15568238.574500859 1886311.1614705268 1647520874.5049267
          1787631327.6343389
        </DataArray>
      </PointData>
      <CellData>
        <DataArray type="UInt8" Name="vtkGhostType" format="ascii" RangeMin="0" RangeMax="1">
          1 1 0 0 0 0
          0 0 0 0 0
        </DataArray>
        <DataArray type="Float64" Name="Gauss Stress" NumberOfComponents="6" format="ascii" RangeMin="3325.617035458911" RangeMax="28870.586549633066">
          -28537.299196883996 -1718.3497010981796 0 4022.511227096 0 0
          27747.47780885391 2802.3409498626106 0 -5674.643673048314 0 0
          -26082.947921027153 -1267.602425890086 0 3485.565257445661 0 0
          -22367.85886944022 -922.147085257541 0 2636.8604685035234 0 0
          23563.368829895775 2739.6901166405414 0 -5587.647874351484 0 0
          -17548.153464815452 252.32430448837727 0 532.8139814295746 0 0
          17391.563573681888 2737.750849046254 0 -5499.164406394451 0 0
          -12337.349690110921 662.7426182841597 0 -674.575131761283 0 0
          9558.838936041915 2878.6307283023148 0 -5302.472248737815 0 0
          -3094.006528697482 993.9120899466466 0 -706.3929673841335 0 0
          3897.6400486400744 2533.9141269211536 0 -3823.9235549805303 0 0
          <InformationKey name="L2_NORM_RANGE" location="vtkDataArray" length="2">
            <Value index="0">
              3325.6170355
            </Value>
            <Value index="1">
              28870.58655
            </Value>
          </InformationKey>
        </DataArray>
        <DataArray type="Float64" Name="Gauss Strain" NumberOfComponents="6" format="ascii" RangeMin="0" RangeMax="0">
          0 0 0 0 0 0
          0 0 0 0 0 0
          0 0 0 0 0 0
          0 0 0 0 0 0
          0 0 0 0 0 0
          0 0 0 0 0 0
          0 0 0 0 0 0
          0 0 0 0 0 0
          0 0 0 0 0 0
          0 0 0 0 0 0
          0 0 0 0 0 0
          <InformationKey name="L2_NORM_RANGE" location="vtkDataArray" length="2">
            <Value index="0">
              0
            </Value>
            <Value index="1">
              0
            </Value>
          </InformationKey>
        </DataArray>
      </CellData>
      <Points>
        <DataArray type="Float32" Name="Points" NumberOfComponents="3" format="ascii" RangeMin="0.4000000059604645" RangeMax="1.0012492197622458">
          0.5 0 0 0.6000000238418579 0.05000000074505806 0
          0.6000000238418579 0 0 0.699999988079071 0.05000000074505806 0
          0.699999988079071 0 0 0.800000011920929 0.05000000074505806 0
          0.800000011920929 0 0 0.8999999761581421 0.05000000074505806 0
          0.8999999761581421 0 0 1 0.05000000074505806 0
          1 0 0 0.5 0.05000000074505806 0
          0.4000000059604645 0 0
          <InformationKey name="L2_NORM_RANGE" location="vtkDataArray" length="2">
            <Value index="0">
              0.40000000596
            </Value>
            <Value index="1">
              1.0012492198
            </Value>
          </InformationKey>
        </DataArray>
      </Points>
      <Cells>
        <DataArray type="Int64" Name="connectivity" format="ascii" RangeMin="0" RangeMax="12">
          0 11 12 1 11 0
          2 1 0 4 3 2
          3 1 2 6 5 4
          5 3 4 8 7 6
          7 5 6 10 9 8
          9 7 8
        </DataArray>
        <DataArray type="Int64" Name="offsets" format="ascii" RangeMin="3" RangeMax="33">
          3 6 9 12 15 18
          21 24 27 30 33
        </DataArray>
        <DataArray type="UInt8" Name="types" format="ascii" RangeMin="5" RangeMax="5">
          5 5 5 5 5 5
          5 5 5 5 5
        </DataArray>
      </Cells>
    </Piece>
  </UnstructuredGrid>
</VTKFile>
