<?xml version="1.0"?>
<VTKFile type="UnstructuredGrid" version="0.1" byte_order="LittleEndian" header_type="UInt32" compressor="vtkZLibDataCompressor">
  <UnstructuredGrid>
    <Piece NumberOfPoints="13" NumberOfCells="11">
      <PointData>
        <DataArray type="Float64" Name="Disp" NumberOfComponents="3" format="ascii" RangeMin="0.00022160643443270368" RangeMax="0.006433226172247451">
          0.00004234535644751392 0.0003734413362524412 0 0.00002861161903149566 0.0004499266851817202 0
          -0.000006577153185400794 0.00045231604147834975 0 0.00016500642835027765 0.00016273104653542064 0
          -0.00016174402706921158 0.00016551411729329862 0 0.0004179683164827904 -0.0009743995296618152 0
          -0.00047729765689896557 -0.0009650153626433733 0 0.0006914117883510523 -0.003400980406304835 0
          -0.0007201056099861974 -0.0033960349847162175 0 0.0006776720358584263 -0.006397433828896168 0
          -0.0007827524414412337 -0.006366047158757784 0 -0.000021529601181733684 0.00037192988245656963 0
          0.000041363416723229265 0.00021771191868833611 0
          <InformationKey name="L2_NORM_RANGE" location="vtkDataArray" length="2">
            <Value index="0">
              0.00022160643443
            </Value>
            <Value index="1">
              0.0064332261722
            </Value>
          </InformationKey>
        </DataArray>
        <DataArray type="Float64" Name="Nodal Stress" NumberOfComponents="6" format="ascii" RangeMin="1782.5154735329213" RangeMax="12955.562456754902">
          -4175.151740286129 -680.5639754541061 0 1308.170750268628 0 0
          8200.696917138584 -210.77359003112272 0 1350.570101447097 0 0
          -7898.41270502085 -1149.589276994107 0 1997.5888711999196 0 0
          11911.855464862288 -217.64321794353637 0 853.0138602172656 0 0
          -10977.737538500065 -1247.8120994622739 0 2180.4923363760167 0 0
          12902.055102935607 392.97631513201867 0 -1108.666905538206 0 0
          -11940.590537389631 -227.20398550284472 0 639.7840738397393 0 0
          9292.45890654681 1799.490603078034 0 -3014.2696847153275 0 0
          -10950.573814241512 277.65033227920065 0 -1785.3099103251332 0 0
          5565.6322748353095 -320.4843381412687 0 -6020.731150564926 0 0
          -8500.445920701306 -1703.2634330814246 0 -2976.511644852464 0 0
          4365.138973852472 -121.90710400488777 0 1063.0607480687763 0 0
          -1639.0162669991378 -306.6072629823766 0 630.0627557497438 0 0
          <InformationKey name="L2_NORM_RANGE" location="vtkDataArray" length="2">
            <Value index="0">
              1782.5154735
            </Value>
            <Value index="1">
              12955.562457
            </Value>
          </InformationKey>
        </DataArray>
        <DataArray type="Float64" Name="Nodal Strain" NumberOfComponents="6" format="ascii" RangeMin="0" RangeMax="0">
          0 0 0 0 0 0
          0 0 0 0 0 0
          0 0 0 0 0 0
          0 0 0 0 0 0
          0 0 0 0 0 0
          0 0 0 0 0 0
          0 0 0 0 0 0
          0 0 0 0 0 0
          0 0 0 0 0 0
          0 0 0 0 0 0
          0 0 0 0 0 0
          0 0 0 0 0 0
          0 0 0 0 0 0
          <InformationKey name="L2_NORM_RANGE" location="vtkDataArray" length="2">
            <Value index="0">
              0
            </Value>
            <Value index="1">
              0
            </Value>
          </InformationKey>
        </DataArray>
        <DataArray type="Float64" Name="Sld_traction" NumberOfComponents="3" format="ascii" RangeMin="348.016518110441" RangeMax="5719.9600976025085">
          -1381.5969408058584 1212.6122092046417 0 1000.6348298608942 503.26037789056016 0
          -2769.234098466428 2025.7683576670368 0 -434.58990478231203 852.8771707055215 0
          -3949.8442963727016 2365.520365923304 0 -2918.778740312043 1726.189117340696 0
          -2600.680618738216 1599.5487147588349 0 -5096.297633382631 2597.2473794660937 0
          -594.3689620878815 529.1238301568495 0 -1971.9109387762894 -2372.217835900953 0
          290.7754288943024 -191.22015277958903 0 1149.994305646024 235.551088275951 0
          -468.49311417439145 540.9584882206002 0
          <InformationKey name="L2_NORM_RANGE" location="vtkDataArray" length="2">
            <Value index="0">
              348.01651811
            </Value>
            <Value index="1">
              5719.9600976
            </Value>
          </InformationKey>
        </DataArray>
        <DataArray type="Float64" Name="Velocity" NumberOfComponents="3" format="ascii" RangeMin="0.2767610084654716" RangeMax="6.371497211628603">
          0.059105456242119006 0.5595865188450303 0 0.07381202463470675 0.5880050775756152 0
          -0.03643136586316265 0.5914180062144975 0 0.27673375300613656 0.003884038357618358 0
          -0.27857946599720707 0.008374386874829276 0 0.5527921141865482 -1.7040100609389266 0
          -0.5854445812964633 -1.697132914499966 0 0.6025355958756746 -4.318163107690593 0
          -0.5909642918653333 -4.285808373734545 0 0.36813731044962184 -6.360853059020149 0
          -0.5944419537873801 -6.3371311003576345 0 -0.014602090158042334 0.5563994419636661 0
          0.06790030378681697 0.3483255645328892 0
          <InformationKey name="L2_NORM_RANGE" location="vtkDataArray" length="2">
            <Value index="0">
              0.27676100847
            </Value>
            <Value index="1">
              6.3714972116
            </Value>
          </InformationKey>
        </DataArray>
        <DataArray type="Float64" Name="Acceleration" NumberOfComponents="3" format="ascii" RangeMin="533.1285902043815" RangeMax="3685.914996980145">
          67.04039917842033 744.5807303703563 0 180.80162241284432 552.3135695755798 0
          -119.41685071104742 556.4078589445908 0 446.9092986234355 -635.3880327112092 0
          -467.3417557119821 -628.5589216738774 0 539.2951908150308 -2918.442125108445 0
          -432.5876975899908 -2928.4702074263705 0 -355.50476990151026 -3668.730805543031 0
          516.5652724834563 -3559.093556073312 0 -1238.1389016352177 146.32307950407449 0
          753.2419506154143 115.66423360059889 0 27.7100440947654 737.8782380283859 0
          106.14754825435078 522.4545833782124 0
          <InformationKey name="L2_NORM_RANGE" location="vtkDataArray" length="2">
            <Value index="0">
              533.1285902
            </Value>
            <Value index="1">
              3685.914997
            </Value>
          </InformationKey>
        </DataArray>
        <DataArray type="Float64" Name="Sigma" NumberOfComponents="6" format="ascii" RangeMin="3663.664682948654" RangeMax="26730.598781832316">
          -6474.087735470537 6474.087735470475 0 1287.2592452873614 0 0
          10912.08833488747 -10912.088334887027 0 1228.0097743345214 0 0
          -12127.246329554331 12127.246329554611 0 2678.411575705173 0 0
          16802.62402102242 -16802.624021022104 0 -327.99049111254135 0 0
          -16727.516631216353 16727.516631217728 0 4818.470353208543 0 0
          18688.16709540788 -18688.167095407938 0 -4003.714832942196 0 0
          -16976.940949417767 16976.940949418273 0 3254.498851450463 0 0
          13406.853169825594 -13406.853169827828 0 -5071.8023835680115 0 0
          -15996.526892055277 15996.5268920553 0 1513.9413526670987 0 0
          11691.59944675957 -11691.599446758642 0 -11259.985144492759 0 0
          -4644.71876497209 4644.71876497149 0 -1080.0013937920999 0 0
          5374.42939779392 -5374.429397794018 0 1236.964055772114 0 0
          -2577.5802716458275 2577.580271645631 0 366.8770850444562 0 0
          <InformationKey name="L2_NORM_RANGE" location="vtkDataArray" length="2">
            <Value index="0">
              3663.6646829
            </Value>
            <Value index="1">
              26730.598782
            </Value>
          </InformationKey>
        </DataArray>
        <DataArray type="Float64" Name="Press" format="ascii" RangeMin="-19310.377454951245" RangeMax="20170.613677201905">
          -7641.392305659676 11413.05669574143 -14234.544164769184 17598.798164344735 -19310.377454951245 20170.613677201905
          -18913.1591418833 17450.625830666842 -15592.91270308861 10603.00492473571 -7708.755464606217 5590.4726037412765
          -3068.4204514195226
        </DataArray>
        <DataArray type="Float64" Name="Dev strain" NumberOfComponents="6" format="ascii" RangeMin="0" RangeMax="0">
          0 0 0 0 0 0
          0 0 0 0 0 0
          0 0 0 0 0 0
          0 0 0 0 0 0
          0 0 0 0 0 0
          0 0 0 0 0 0
          0 0 0 0 0 0
          0 0 0 0 0 0
          0 0 0 0 0 0
          0 0 0 0 0 0
          0 0 0 0 0 0
          0 0 0 0 0 0
          0 0 0 0 0 0
          <InformationKey name="L2_NORM_RANGE" location="vtkDataArray" length="2">
            <Value index="0">
              0
            </Value>
            <Value index="1">
              0
            </Value>
          </InformationKey>
        </DataArray>
        <DataArray type="Float64" Name="J2 Stresses" format="ascii" RangeMin="6677569.755659951" RangeMax="353255022.50176716">
          42328071.097714074 119450673.8298476 148863575.67991024 282355068.4323993 285614226.78383017 353255022.50176716
          290864464.69354963 186174506.77178407 256461877.2130769 168390313.9870073 21865013.15832929 29267011.370690092
          6677569.755659951
        </DataArray>
      </PointData>
      <CellData>
        <DataArray type="UInt8" Name="vtkGhostType" format="ascii" RangeMin="0" RangeMax="1">
          1 1 0 0 0 0
          0 0 0 0 0
        </DataArray>
        <DataArray type="Float64" Name="Gauss Stress" NumberOfComponents="6" format="ascii" RangeMin="3123.707132265027" RangeMax="12408.911582584464">
          -2932.19292088679 -480.7005146719447 0 963.7001287013106 0 0
          6391.522330344632 -150.09766779584663 0 1250.7443584646658 0 0
          -6050.708501608277 -924.5446815164569 0 1731.226865109019 0 0
          -9332.75413170799 -1297.9948385418197 0 2389.630479267059 0 0
          10121.592240557518 -270.05177701251205 0 1192.810286309051 0 0
          -11023.071134952961 -1012.2108114681923 0 1356.418123905604 0 0
          12407.436290603113 -101.41336620563857 0 162.25500971793463 0 0
          -12207.353561984177 837.0562191135583 0 -101.12072648348294 0 0
          11275.386560600386 1196.6670167226512 0 -1940.3394550199148 0 0
          -7216.103151075638 -1249.6723442303237 0 -3608.681728539253 0 0
          7187.547925614612 1119.597442594256 0 -4939.282058464558 0 0
          <InformationKey name="L2_NORM_RANGE" location="vtkDataArray" length="2">
            <Value index="0">
              3123.7071323
            </Value>
            <Value index="1">
              12408.911583
            </Value>
          </InformationKey>
        </DataArray>
        <DataArray type="Float64" Name="Gauss Strain" NumberOfComponents="6" format="ascii" RangeMin="0" RangeMax="0">
          0 0 0 0 0 0
          0 0 0 0 0 0
          0 0 0 0 0 0
          0 0 0 0 0 0
          0 0 0 0 0 0
          0 0 0 0 0 0
          0 0 0 0 0 0
          0 0 0 0 0 0
          0 0 0 0 0 0
          0 0 0 0 0 0
          0 0 0 0 0 0
          <InformationKey name="L2_NORM_RANGE" location="vtkDataArray" length="2">
            <Value index="0">
              0
            </Value>
            <Value index="1">
              0
            </Value>
          </InformationKey>
        </DataArray>
      </CellData>
      <Points>
        <DataArray type="Float32" Name="Points" NumberOfComponents="3" format="ascii" RangeMin="0.4000000059604645" RangeMax="1.0012492197622458">
          0.5 0 0 0.6000000238418579 0.05000000074505806 0
          0.6000000238418579 0 0 0.699999988079071 0.05000000074505806 0
          0.699999988079071 0 0 0.800000011920929 0.05000000074505806 0
          0.800000011920929 0 0 0.8999999761581421 0.05000000074505806 0
          0.8999999761581421 0 0 1 0.05000000074505806 0
          1 0 0 0.5 0.05000000074505806 0
          0.4000000059604645 0 0
          <InformationKey name="L2_NORM_RANGE" location="vtkDataArray" length="2">
            <Value index="0">
              0.40000000596
            </Value>
            <Value index="1">
              1.0012492198
            </Value>
          </InformationKey>
        </DataArray>
      </Points>
      <Cells>
        <DataArray type="Int64" Name="connectivity" format="ascii" RangeMin="0" RangeMax="12">
          0 11 12 1 11 0
          2 1 0 4 3 2
          3 1 2 6 5 4
          5 3 4 8 7 6
          7 5 6 10 9 8
          9 7 8
        </DataArray>
        <DataArray type="Int64" Name="offsets" format="ascii" RangeMin="3" RangeMax="33">
          3 6 9 12 15 18
          21 24 27 30 33
        </DataArray>
        <DataArray type="UInt8" Name="types" format="ascii" RangeMin="5" RangeMax="5">
          5 5 5 5 5 5
          5 5 5 5 5
        </DataArray>
      </Cells>
    </Piece>
  </UnstructuredGrid>
</VTKFile>
