<?xml version="1.0"?>
<VTKFile type="UnstructuredGrid" version="0.1" byte_order="LittleEndian" header_type="UInt32" compressor="vtkZLibDataCompressor">
  <UnstructuredGrid>
    <Piece NumberOfPoints="13" NumberOfCells="11">
      <PointData>
        <DataArray type="Float64" Name="Disp" NumberOfComponents="3" format="ascii" RangeMin="0.0007705006599869262" RangeMax="0.0537562051597031">
          -0.0014448877787642308 -0.004257271635976546 0 0.0015104233790260756 -0.010863344654756024 0
          -0.0023116943689360687 -0.01068471641924438 0 0.0015208762957077408 -0.01963186442806105 0
          -0.0032728262129504853 -0.019341224967362326 0 0.0012028626694827252 -0.03007824741158442 0
          -0.004348511016232334 -0.02968828095920431 0 0.0006024741311467536 -0.04181294382809812 0
          -0.0053540891359074045 -0.041382673445912094 0 -0.000329623066796657 -0.05375519455648845 0
          -0.0062327102644700715 -0.05330337599791432 0 0.0011912436084097339 -0.004340403556849167 0
          -0.0007304490051571852 -0.00024518466082764506 0
          <InformationKey name="L2_NORM_RANGE" location="vtkDataArray" length="2">
            <Value index="0">
              0.00077050065999
            </Value>
            <Value index="1">
              0.05375620516
            </Value>
          </InformationKey>
        </DataArray>
        <DataArray type="Float64" Name="Nodal Stress" NumberOfComponents="6" format="ascii" RangeMin="7447.519065632254" RangeMax="37849.65774643831">
          -37450.18870175486 -2524.5920337695443 0 4868.921111344692 0 0
          34551.025855950036 2694.351289730549 0 -7101.454853258234 0 0
          -35800.85159423204 -1608.151328128372 0 3927.6408070192015 0 0
          29003.71998580462 3453.212373054006 0 -8285.004733658534 0 0
          -29191.088678585205 -713.0213206072153 0 3037.721452542496 0 0
          20866.665410389094 3644.2836177006047 0 -7895.304982294591 0 0
          -20761.466942313935 408.4103389231013 0 1265.653412059185 0 0
          11340.266039951448 3732.5562678636834 0 -6381.046587940777 0 0
          -14046.08819067105 649.6639043387728 0 -891.6932124937854 0 0
          5057.184595194492 1410.124564543701 0 -7413.251672805785 0 0
          -7335.991106817778 -831.7809433798171 0 -978.2204127274081 0 0
          36184.112990483074 1535.5164456052898 0 -4279.126915540263 0 0
          -34743.80121678861 -2991.806571674397 0 5192.338299703747 0 0
          <InformationKey name="L2_NORM_RANGE" location="vtkDataArray" length="2">
            <Value index="0">
              7447.5190656
            </Value>
            <Value index="1">
              37849.657746
            </Value>
          </InformationKey>
        </DataArray>
        <DataArray type="Float64" Name="Nodal Strain" NumberOfComponents="6" format="ascii" RangeMin="0" RangeMax="0">
          0 0 0 0 0 0
          0 0 0 0 0 0
          0 0 0 0 0 0
          0 0 0 0 0 0
          0 0 0 0 0 0
          0 0 0 0 0 0
          0 0 0 0 0 0
          0 0 0 0 0 0
          0 0 0 0 0 0
          0 0 0 0 0 0
          0 0 0 0 0 0
          0 0 0 0 0 0
          0 0 0 0 0 0
          <InformationKey name="L2_NORM_RANGE" location="vtkDataArray" length="2">
            <Value index="0">
              0
            </Value>
            <Value index="1">
              0
            </Value>
          </InformationKey>
        </DataArray>
        <DataArray type="Float64" Name="Sld_traction" NumberOfComponents="3" format="ascii" RangeMin="156.4195808295296" RangeMax="12779.14351817406">
          -9624.204182224945 6309.641566903274 0 -10373.003039775913 5984.1036221285985 0
          -7949.425236496134 5144.903435423095 0 -11261.606071314562 6040.094184085302 0
          -6182.971993812668 3600.0353889663575 0 -10299.1391570089 5522.224889150868 0
          -3134.0751855568597 1974.6872739043813 0 -8672.429333762362 4726.7077291282985 0
          -1302.0224258724925 814.6167077537837 0 -2976.496434714554 -1687.346337220454 0
          -124.10740494546954 -95.20733850175091 0 -7842.041249231888 5154.906843260461 0
          -9893.29153650366 6573.309263568639 0
          <InformationKey name="L2_NORM_RANGE" location="vtkDataArray" length="2">
            <Value index="0">
              156.41958083
            </Value>
            <Value index="1">
              12779.143518
            </Value>
          </InformationKey>
        </DataArray>
        <DataArray type="Float64" Name="Velocity" NumberOfComponents="3" format="ascii" RangeMin="3.3518177437293284" RangeMax="11.896132437220851">
          -0.2815825685887515 -3.995979119007628 0 0.30250042217011436 -5.46785026264654 0
          -0.4483485054124421 -5.404490823000638 0 0.12187072729368967 -6.915110855376314 0
          -0.548901803030845 -6.833215584132012 0 0.0278472309118879 -8.351039236183023 0
          -0.8536504612759211 -8.234398513499166 0 -0.15929156367916975 -10.367055110104634 0
          -1.0544633176299838 -10.233575431680412 0 -0.5067146767503538 -11.885335805111435 0
          -1.214545778818254 -11.752779639782299 0 0.2717268540471318 -4.026328671780842 0
          -0.034930223589514725 -3.35163573000688 0
          <InformationKey name="L2_NORM_RANGE" location="vtkDataArray" length="2">
            <Value index="0">
              3.3518177437
            </Value>
            <Value index="1">
              11.896132437
            </Value>
          </InformationKey>
        </DataArray>
        <DataArray type="Float64" Name="Acceleration" NumberOfComponents="3" format="ascii" RangeMin="74.34607445165769" RangeMax="2659.661447678486">
          26.024314457653247 -2516.5808488445036 0 -255.89805075998004 -2267.8910752533866 0
          643.9599779615454 -2254.4555330559488 0 30.85510392966063 67.64097388315213 0
          381.35106739162666 -136.13924530501208 0 895.2945473811938 -1142.629321586759 0
          345.1119795034058 -893.004898466128 0 -467.08445087440396 -1046.6307348805917 0
          106.66312527643868 -733.9129972850283 0 -451.57952272070975 -290.3189429899812 0
          91.67984151158817 208.88574788071674 0 531.6510123147464 -2605.982773805676 0
          -77.8609053100356 -1052.1697203118902 0
          <InformationKey name="L2_NORM_RANGE" location="vtkDataArray" length="2">
            <Value index="0">
              74.346074452
            </Value>
            <Value index="1">
              2659.6614477
            </Value>
          </InformationKey>
        </DataArray>
        <DataArray type="Float64" Name="Sigma" NumberOfComponents="6" format="ascii" RangeMin="4097.830221220772" RangeMax="76163.30006291092">
          -52670.300434624485 52670.300434620556 0 15891.103823404186 0 0
          50109.60752260828 -50109.60752260708 0 -19046.128528259058 0 0
          -49587.084096450286 49587.08409645149 0 15975.624493276207 0 0
          41922.120618176705 -41922.12061817525 0 -20578.508378931554 0 0
          -39669.992992511776 39669.99299251569 0 14881.758862430808 0 0
          29644.134477975036 -29644.134477981766 0 -18408.310408140445 0 0
          -26793.906477760596 26793.906477753277 0 9333.96405040049 0 0
          16166.616580426695 -16166.616580423115 0 -12008.548408057744 0 0
          -18393.328829814094 18393.32882982009 0 5225.8518869033305 0 0
          9290.105899209973 -9290.10589921533 0 -15194.120947393792 0 0
          -1952.5986981389906 1952.598698132491 0 3027.6937047904134 0 0
          52322.56864186545 -52322.568641864615 0 -13849.6401092299 0 0
          -49615.38959299994 49615.38959300003 0 13143.403773692127 0 0
          <InformationKey name="L2_NORM_RANGE" location="vtkDataArray" length="2">
            <Value index="0">
              4097.8302212
            </Value>
            <Value index="1">
              76163.300063
            </Value>
          </InformationKey>
        </DataArray>
        <DataArray type="Float64" Name="Press" format="ascii" RangeMin="-59973.76373756211" RangeMax="58239.02823001027">
          -59973.76373756211 57706.92303290596 -56033.20480320297 50149.97011701418 -44736.54725924567 37063.448800555634
          -29867.12429235239 23378.444060300593 -19288.54235266552 11311.624045818451 -4179.312896770969 58239.02823001027
          -56778.778313355426
        </DataArray>
        <DataArray type="Float64" Name="Dev strain" NumberOfComponents="6" format="ascii" RangeMin="0" RangeMax="0">
          0 0 0 0 0 0
          0 0 0 0 0 0
          0 0 0 0 0 0
          0 0 0 0 0 0
          0 0 0 0 0 0
          0 0 0 0 0 0
          0 0 0 0 0 0
          0 0 0 0 0 0
          0 0 0 0 0 0
          0 0 0 0 0 0
          0 0 0 0 0 0
          0 0 0 0 0 0
          0 0 0 0 0 0
          <InformationKey name="L2_NORM_RANGE" location="vtkDataArray" length="2">
            <Value index="0">
              0
            </Value>
            <Value index="1">
              0
            </Value>
          </InformationKey>
        </DataArray>
        <DataArray type="Float64" Name="J2 Stresses" format="ascii" RangeMin="6104373.968468266" RangeMax="2837292343.05495">
          2837292343.05495 2601661519.0485206 2522684053.6760335 1863332948.9003344 1629075030.7359731 963491181.9690807
          739694145.5623273 297410800.375636 345141927.42774326 144021395.45959342 6104373.968468266 2785604322.071475
          2504874150.1547475
        </DataArray>
      </PointData>
      <CellData>
        <DataArray type="UInt8" Name="vtkGhostType" format="ascii" RangeMin="0" RangeMax="1">
          1 1 0 0 0 0
          0 0 0 0 0
        </DataArray>
        <DataArray type="Float64" Name="Gauss Stress" NumberOfComponents="6" format="ascii" RangeMin="8084.153801611352" RangeMax="37119.83549595562">
          -36158.878402222086 -2850.130811717101 0 5061.622495955473 0 0
          35244.68775173447 2070.1039318343223 0 -5668.221604694925 0 0
          -36815.9408387752 -2050.7561664647283 0 4273.533262807114 0 0
          -32651.57947207328 -1094.94182488085 0 3426.2916589251554 0 0
          31422.77746368396 3126.348100795444 0 -7883.00413797147 0 0
          -24786.662581113258 -240.1525862517417 0 1935.8041682302842 0 0
          24791.044587321372 3526.869851560936 0 -8035.0199748804 0 0
          -18265.947103955106 1081.132047477645 0 850.4225097486924 0 0
          16530.53771638167 3852.6413292840807 0 -7027.631588599233 0 0
          -7737.350944120383 -366.8031916269304 0 -2313.5251185666807 0 0
          7488.306467758701 2779.3773678783887 0 -7325.605822849404 0 0
          <InformationKey name="L2_NORM_RANGE" location="vtkDataArray" length="2">
            <Value index="0">
              8084.1538016
            </Value>
            <Value index="1">
              37119.835496
            </Value>
          </InformationKey>
        </DataArray>
        <DataArray type="Float64" Name="Gauss Strain" NumberOfComponents="6" format="ascii" RangeMin="0" RangeMax="0">
          0 0 0 0 0 0
          0 0 0 0 0 0
          0 0 0 0 0 0
          0 0 0 0 0 0
          0 0 0 0 0 0
          0 0 0 0 0 0
          0 0 0 0 0 0
          0 0 0 0 0 0
          0 0 0 0 0 0
          0 0 0 0 0 0
          0 0 0 0 0 0
          <InformationKey name="L2_NORM_RANGE" location="vtkDataArray" length="2">
            <Value index="0">
              0
            </Value>
            <Value index="1">
              0
            </Value>
          </InformationKey>
        </DataArray>
      </CellData>
      <Points>
        <DataArray type="Float32" Name="Points" NumberOfComponents="3" format="ascii" RangeMin="0.4000000059604645" RangeMax="1.0012492197622458">
          0.5 0 0 0.6000000238418579 0.05000000074505806 0
          0.6000000238418579 0 0 0.699999988079071 0.05000000074505806 0
          0.699999988079071 0 0 0.800000011920929 0.05000000074505806 0
          0.800000011920929 0 0 0.8999999761581421 0.05000000074505806 0
          0.8999999761581421 0 0 1 0.05000000074505806 0
          1 0 0 0.5 0.05000000074505806 0
          0.4000000059604645 0 0
          <InformationKey name="L2_NORM_RANGE" location="vtkDataArray" length="2">
            <Value index="0">
              0.40000000596
            </Value>
            <Value index="1">
              1.0012492198
            </Value>
          </InformationKey>
        </DataArray>
      </Points>
      <Cells>
        <DataArray type="Int64" Name="connectivity" format="ascii" RangeMin="0" RangeMax="12">
          0 11 12 1 11 0
          2 1 0 4 3 2
          3 1 2 6 5 4
          5 3 4 8 7 6
          7 5 6 10 9 8
          9 7 8
        </DataArray>
        <DataArray type="Int64" Name="offsets" format="ascii" RangeMin="3" RangeMax="33">
          3 6 9 12 15 18
          21 24 27 30 33
        </DataArray>
        <DataArray type="UInt8" Name="types" format="ascii" RangeMin="5" RangeMax="5">
          5 5 5 5 5 5
          5 5 5 5 5
        </DataArray>
      </Cells>
    </Piece>
  </UnstructuredGrid>
</VTKFile>
