<?xml version="1.0"?>
<VTKFile type="UnstructuredGrid" version="0.1" byte_order="LittleEndian" header_type="UInt32" compressor="vtkZLibDataCompressor">
  <UnstructuredGrid>
    <Piece NumberOfPoints="13" NumberOfCells="11">
      <PointData>
        <DataArray type="Float64" Name="Disp" NumberOfComponents="3" format="ascii" RangeMin="0" RangeMax="0.08029917933832216">
          0 0 0 0 0 0
          0.0011114568246883558 -0.0020219664788796708 0 -0.001173623574791391 -0.0019896152714163795 0
          0.002060350478960012 -0.009339002059405419 0 -0.002811005184518774 -0.00912985103430522 0
          0.0024198761805826075 -0.021607116119548134 0 -0.004725877357531301 -0.021089678180579406 0
          0.0019236130964593364 -0.03803237921427593 0 -0.007078477066381636 -0.037189983217543826 0
          0.000599858674677628 -0.05781622224861305 0 -0.00992359896384689 -0.05664596088430879 0
          -0.0015216632610127012 -0.08028476034296989 0
          <InformationKey name="L2_NORM_RANGE" location="vtkDataArray" length="2">
            <Value index="0">
              0
            </Value>
            <Value index="1">
              0.080299179338
            </Value>
          </InformationKey>
        </DataArray>
        <DataArray type="Float64" Name="Nodal Stress" NumberOfComponents="6" format="ascii" RangeMin="38483.12221833926" RangeMax="130665.38215555531">
          126624.7638073281 -6709.328042922978 0 -31537.219310017437 0 0
          -76200.63997953062 -14878.032138416726 0 5056.364922343691 0 0
          97326.30595828708 4644.029345103473 0 -11393.220520829469 0 0
          -94987.81239226191 -4652.402577926787 0 9830.95234616571 0 0
          81343.41744773478 6171.913142909813 0 -18320.353746839643 0 0
          -91120.03161638115 -6488.921023266887 0 11111.70243465857 0 0
          74973.87596074662 8329.639477901927 0 -20240.924464127223 0 0
          -82409.76455463722 -5538.713448912674 0 13498.16768674048 0 0
          62292.54756689471 9763.591354301081 0 -21064.8826992591 0 0
          -71695.91766487407 -5417.9854768933255 0 13645.883443560684 0 0
          48133.273782259705 10839.29835778417 0 -19739.778647909276 0 0
          -58930.441389019514 -3869.3360933016 0 11826.372496425909 0 0
          32942.710445578094 10677.949078431879 0 -16784.216623031658 0 0
          <InformationKey name="L2_NORM_RANGE" location="vtkDataArray" length="2">
            <Value index="0">
              38483.122218
            </Value>
            <Value index="1">
              130665.38216
            </Value>
          </InformationKey>
        </DataArray>
        <DataArray type="Float64" Name="Nodal Strain" NumberOfComponents="6" format="ascii" RangeMin="0" RangeMax="0">
          0 0 0 0 0 0
          0 0 0 0 0 0
          0 0 0 0 0 0
          0 0 0 0 0 0
          0 0 0 0 0 0
          0 0 0 0 0 0
          0 0 0 0 0 0
          0 0 0 0 0 0
          0 0 0 0 0 0
          0 0 0 0 0 0
          0 0 0 0 0 0
          0 0 0 0 0 0
          0 0 0 0 0 0
          <InformationKey name="L2_NORM_RANGE" location="vtkDataArray" length="2">
            <Value index="0">
              0
            </Value>
            <Value index="1">
              0
            </Value>
          </InformationKey>
        </DataArray>
        <DataArray type="Float64" Name="Sld_traction" NumberOfComponents="3" format="ascii" RangeMin="12493.901554891012" RangeMax="55447.426407382314">
          -53957.14013281999 12768.873242745542 0 21544.72094618289 19294.37363802768 0
          -22186.094435301464 16157.138874635348 0 -20612.514721476287 16749.1164271565 0
          -20203.788795605382 13709.591841626463 0 -16816.4624212236 14980.640092209242 0
          -19261.79746763625 14550.280186509739 0 -14184.072588019877 13561.632058485922 0
          -18566.217658510228 14690.523448207186 0 -11451.314564924505 12090.13500487482 0
          -17288.295670243482 14680.674576882064 0 -8107.926513345893 9505.740566494058 0
          -15549.943826017832 13458.352505307479 0
          <InformationKey name="L2_NORM_RANGE" location="vtkDataArray" length="2">
            <Value index="0">
              12493.901555
            </Value>
            <Value index="1">
              55447.426407
            </Value>
          </InformationKey>
        </DataArray>
        <DataArray type="Float64" Name="Velocity" NumberOfComponents="3" format="ascii" RangeMin="0" RangeMax="1.6107164296265115">
          0 0 0 0 0 0
          0.01237837482745973 -0.00031814962584478246 0 -0.06569729911427225 -0.03073119398665819 0
          -0.06211359966778815 -0.30250104116974896 0 -0.23873590087082966 -0.3224380595258337 0
          -0.14471609678051703 -0.6225004421611597 0 -0.20708448316681938 -0.6537958297076598 0
          -0.11513702595546325 -0.7406465221294425 0 -0.33975586345543574 -0.7679408569480882 0
          -0.2117499749974631 -1.4430886340844213 0 -0.4526793194375747 -1.438423247375488 0
          -0.4107893678634119 -1.5574528923595587 0
          <InformationKey name="L2_NORM_RANGE" location="vtkDataArray" length="2">
            <Value index="0">
              0
            </Value>
            <Value index="1">
              1.6107164296
            </Value>
          </InformationKey>
        </DataArray>
        <DataArray type="Float64" Name="Acceleration" NumberOfComponents="3" format="ascii" RangeMin="0" RangeMax="4041.829422955111">
          0 0 0 0 0 0
          108.74335078757599 -0.013614277798581043 0 -435.8695256223526 -400.15469915463643 0
          -199.9125437761725 -1555.7377945273465 0 -359.8725398565034 -2131.1478364522773 0
          -421.10062866115936 -633.0778661312254 0 766.9605913432104 -668.6119474843545 0
          612.7239512741575 95.17677728944477 0 -469.8187168764546 205.36434745409383 0
          -1167.914209222501 -2415.1165409079476 0 -16.699616201388267 -2841.016091626354 0
          -518.4914911273831 4008.4350634498433 0
          <InformationKey name="L2_NORM_RANGE" location="vtkDataArray" length="2">
            <Value index="0">
              0
            </Value>
            <Value index="1">
              4041.829423
            </Value>
          </InformationKey>
        </DataArray>
        <DataArray type="Float64" Name="Sigma" NumberOfComponents="6" format="ascii" RangeMin="79013.45787433744" RangeMax="198471.83579376017">
          128736.04672701695 -128736.0467270209 0 -66505.51506496653 0 0
          -130077.6043521181 130077.60435212226 0 31290.52960764253 0 0
          139273.69459858566 -139273.69459858333 0 -24428.376717779203 0 0
          -135244.4391111349 135244.43911113468 0 31760.73722936364 0 0
          118434.73493050857 -118434.73493050653 0 -48389.65737206585 0 0
          -120092.21860691582 120092.21860691663 0 42954.76668646718 0 0
          107592.79749224162 -107592.79749223724 0 -53235.594545959175 0 0
          -107860.55405668428 107860.55405668079 0 48569.64211831971 0 0
          88571.58918729697 -88571.58918729839 0 -56703.30432820065 0 0
          -88996.7460413719 88996.74604137483 0 48820.58183617717 0 0
          67612.93122571075 -67612.9312257083 0 -52884.6754905665 0 0
          -70034.6702687633 70034.6702687603 0 42535.23802690358 0 0
          46106.95740780074 -46106.95740778925 0 -44625.36814919574 0 0
          <InformationKey name="L2_NORM_RANGE" location="vtkDataArray" length="2">
            <Value index="0">
              79013.457874
            </Value>
            <Value index="1">
              198471.83579
            </Value>
          </InformationKey>
        </DataArray>
        <DataArray type="Float64" Name="Press" format="ascii" RangeMin="-167019.1687147374" RangeMax="163829.07207613598">
          121510.4840837062 -167019.1687147374 163829.07207613598 -148455.21890859152 133888.4251399236 -140529.84658441658
          130985.82787294619 -128172.11001241641 113634.79264913188 -110668.19603706547 94420.50294067396 -88952.73663129556
          71008.30105267251
        </DataArray>
        <DataArray type="Float64" Name="Dev strain" NumberOfComponents="6" format="ascii" RangeMin="0" RangeMax="0">
          0 0 0 0 0 0
          0 0 0 0 0 0
          0 0 0 0 0 0
          0 0 0 0 0 0
          0 0 0 0 0 0
          0 0 0 0 0 0
          0 0 0 0 0 0
          0 0 0 0 0 0
          0 0 0 0 0 0
          0 0 0 0 0 0
          0 0 0 0 0 0
          0 0 0 0 0 0
          0 0 0 0 0 0
          <InformationKey name="L2_NORM_RANGE" location="vtkDataArray" length="2">
            <Value index="0">
              0
            </Value>
            <Value index="1">
              0
            </Value>
          </InformationKey>
        </DataArray>
        <DataArray type="Float64" Name="J2 Stresses" format="ascii" RangeMin="2623707392.0170355" RangeMax="19546348404.40621">
          17678715610.415318 17164957464.768404 19546348404.40621 18543244417.82362 14612176173.206066 14883418965.203566
          12284717203.871483 12223651655.28995 8648742591.597565 8516283108.658424 5270705694.368158 5357166658.155522
          2623707392.0170355
        </DataArray>
      </PointData>
      <CellData>
        <DataArray type="UInt8" Name="vtkGhostType" format="ascii" RangeMin="0" RangeMax="0">
          0 0 0 0 0 0
          0 0 0 0 0
        </DataArray>
        <DataArray type="Float64" Name="Gauss Stress" NumberOfComponents="6" format="ascii" RangeMin="45382.57572834864" RangeMax="97915.64329662448">
          -92564.55480395345 -8532.322227506447 0 12874.29670640899 0 0
          85417.50813952977 -6537.249842792396 0 -19881.1207250344 0 0
          -97332.85438020893 -6064.905855179904 0 8775.282181254996 0 0
          90575.42290847583 8932.762629837624 0 -13685.76562016048 0 0
          -86025.36796508176 -5785.384517508878 0 12762.938086275912 0 0
          76759.90674809588 6136.364204208699 0 -19556.82841051929 0 0
          -77830.40810370307 -5639.934163197588 0 13562.306542098746 0 0
          68250.781044172 9381.559295602274 0 -20456.41891861337 0 0
          -65539.63827070384 -4593.9815477534175 0 12823.714790838088 0 0
          54858.291308125394 10066.441727036176 0 -20255.799327529992 0 0
          40053.76190893305 10930.282999104562 0 -18324.935204286223 0 0
          <InformationKey name="L2_NORM_RANGE" location="vtkDataArray" length="2">
            <Value index="0">
              45382.575728
            </Value>
            <Value index="1">
              97915.643297
            </Value>
          </InformationKey>
        </DataArray>
        <DataArray type="Float64" Name="Gauss Strain" NumberOfComponents="6" format="ascii" RangeMin="0" RangeMax="0">
          0 0 0 0 0 0
          0 0 0 0 0 0
          0 0 0 0 0 0
          0 0 0 0 0 0
          0 0 0 0 0 0
          0 0 0 0 0 0
          0 0 0 0 0 0
          0 0 0 0 0 0
          0 0 0 0 0 0
          0 0 0 0 0 0
          0 0 0 0 0 0
          <InformationKey name="L2_NORM_RANGE" location="vtkDataArray" length="2">
            <Value index="0">
              0
            </Value>
            <Value index="1">
              0
            </Value>
          </InformationKey>
        </DataArray>
      </CellData>
      <Points>
        <DataArray type="Float32" Name="Points" NumberOfComponents="3" format="ascii" RangeMin="0" RangeMax="0.6020797527609908">
          0 0.05000000074505806 0 0 0 0
          0.10000000149011612 0.05000000074505806 0 0.10000000149011612 0 0
          0.20000000298023224 0.05000000074505806 0 0.20000000298023224 0 0
          0.30000001192092896 0.05000000074505806 0 0.30000001192092896 0 0
          0.4000000059604645 0.05000000074505806 0 0.4000000059604645 0 0
          0.5 0.05000000074505806 0 0.5 0 0
          0.6000000238418579 0.05000000074505806 0
          <InformationKey name="L2_NORM_RANGE" location="vtkDataArray" length="2">
            <Value index="0">
              0
            </Value>
            <Value index="1">
              0.60207975276
            </Value>
          </InformationKey>
        </DataArray>
      </Points>
      <Cells>
        <DataArray type="Int64" Name="connectivity" format="ascii" RangeMin="0" RangeMax="12">
          3 2 1 2 0 1
          5 4 3 4 2 3
          7 6 5 6 4 5
          9 8 7 8 6 7
          11 10 9 10 8 9
          12 10 11
        </DataArray>
        <DataArray type="Int64" Name="offsets" format="ascii" RangeMin="3" RangeMax="33">
          3 6 9 12 15 18
          21 24 27 30 33
        </DataArray>
        <DataArray type="UInt8" Name="types" format="ascii" RangeMin="5" RangeMax="5">
          5 5 5 5 5 5
          5 5 5 5 5
        </DataArray>
      </Cells>
    </Piece>
  </UnstructuredGrid>
</VTKFile>
