<?xml version="1.0"?>
<VTKFile type="UnstructuredGrid" version="0.1" byte_order="LittleEndian" header_type="UInt32" compressor="vtkZLibDataCompressor">
  <UnstructuredGrid>
    <Piece NumberOfPoints="13" NumberOfCells="11">
      <PointData>
        <DataArray type="Float64" Name="Disp" NumberOfComponents="3" format="ascii" RangeMin="0" RangeMax="0.025263660598718686">
          0 0 0 0 0 0
          0.0002767768826830901 -0.00046409370508073236 0 -0.0002642286451406767 -0.0004538698994845489 0
          0.0006144880122728685 -0.0022346295080396456 0 -0.0006314137726417634 -0.0022177874347871713 0
          0.0009413581720918004 -0.005482859371367809 0 -0.001065714592288044 -0.005429347083211067 0
          0.001197870438241983 -0.01028789199267997 0 -0.0015968801519550622 -0.010184448767403704 0
          0.0013857538146027756 -0.016748044292580457 0 -0.0023062600234910924 -0.016578136194047195 0
          0.0015008949634505836 -0.025219037673074277 0
          <InformationKey name="L2_NORM_RANGE" location="vtkDataArray" length="2">
            <Value index="0">
              0
            </Value>
            <Value index="1">
              0.025263660599
            </Value>
          </InformationKey>
        </DataArray>
        <DataArray type="Float64" Name="Nodal Stress" NumberOfComponents="6" format="ascii" RangeMin="17390.90659516087" RangeMax="38619.636367509054">
          34982.77229368581 1254.3122949604444 0 -6627.698826462127 0 0
          -17222.731068419234 -1167.5379778258432 0 2111.4028078154824 0 0
          28647.029849009636 1536.9782988935256 0 -1147.9445894058322 0 0
          -23848.87464684115 -1718.7728164544192 0 2835.720103309144 0 0
          28014.128260226353 991.2380580921756 0 -2245.928122214947 0 0
          -25579.759419401107 -2091.247103542106 0 3129.1857906102236 0 0
          31029.76704665846 1373.257415567248 0 -2599.272147261686 0 0
          -28039.91647609091 -2347.4790179687393 0 4148.241909453946 0 0
          34099.729623811654 1406.730703801515 0 -3187.3453157160657 0 0
          -31033.50873050374 -2975.1218508768898 0 5401.547071163162 0 0
          37524.978322795934 1397.3437140326264 0 -4162.855385403112 0 0
          -33664.56072362098 -3237.7955786017787 0 6055.778223627336 0 0
          38022.2355138267 2136.566502471992 0 -6420.358500133613 0 0
          <InformationKey name="L2_NORM_RANGE" location="vtkDataArray" length="2">
            <Value index="0">
              17390.906595
            </Value>
            <Value index="1">
              38619.636368
            </Value>
          </InformationKey>
        </DataArray>
        <DataArray type="Float64" Name="Nodal Strain" NumberOfComponents="6" format="ascii" RangeMin="0" RangeMax="0">
          0 0 0 0 0 0
          0 0 0 0 0 0
          0 0 0 0 0 0
          0 0 0 0 0 0
          0 0 0 0 0 0
          0 0 0 0 0 0
          0 0 0 0 0 0
          0 0 0 0 0 0
          0 0 0 0 0 0
          0 0 0 0 0 0
          0 0 0 0 0 0
          0 0 0 0 0 0
          0 0 0 0 0 0
          <InformationKey name="L2_NORM_RANGE" location="vtkDataArray" length="2">
            <Value index="0">
              0
            </Value>
            <Value index="1">
              0
            </Value>
          </InformationKey>
        </DataArray>
        <DataArray type="Float64" Name="Sld_traction" NumberOfComponents="3" format="ascii" RangeMin="5070.839657036596" RangeMax="14556.56348052946">
          -13812.794656977061 4593.5002042962715 0 4203.249440114879 2836.5664052775105 0
          -5173.976881273529 4303.666750213964 0 -6285.379734938759 4687.668120550148 0
          -4993.182755234236 3926.1465064126214 0 -6731.969695156053 5091.697122734674 0
          -5307.306089859584 4488.299338298726 0 -7633.733834366507 5702.877379899434 0
          -5614.853443733132 4818.867186723108 0 -8835.453732344027 6473.966341531844 0
          -6268.037381882094 4946.465081309467 0 -9290.946174920036 6776.3896779935485 0
          -7929.590162322757 5418.465940894749 0
          <InformationKey name="L2_NORM_RANGE" location="vtkDataArray" length="2">
            <Value index="0">
              5070.839657
            </Value>
            <Value index="1">
              14556.563481
            </Value>
          </InformationKey>
        </DataArray>
        <DataArray type="Float64" Name="Velocity" NumberOfComponents="3" format="ascii" RangeMin="0" RangeMax="9.019485823799432">
          0 0 0 0 0 0
          0.1143838077487552 -0.1243300482830847 0 -0.10109701300071114 -0.11017209999075112 0
          0.310421553375871 -1.0953320211767004 0 -0.5606632451393476 -1.0685494611120863 0
          0.48854993105953926 -3.578668215248837 0 -0.8727331666317311 -3.5287884146687127 0
          0.22763464965625144 -6.217600790574596 0 -0.8481906611594692 -6.150857269471285 0
          -0.16625872068489622 -7.873300334756639 0 -0.8175072968934589 -7.797041863969539 0
          -0.36258137571853805 -9.012195030718152 0
          <InformationKey name="L2_NORM_RANGE" location="vtkDataArray" length="2">
            <Value index="0">
              0
            </Value>
            <Value index="1">
              9.0194858238
            </Value>
          </InformationKey>
        </DataArray>
        <DataArray type="Float64" Name="Acceleration" NumberOfComponents="3" format="ascii" RangeMin="0" RangeMax="2802.989151891339">
          0 0 0 0 0 0
          -55.76994086521239 289.61402353557855 0 19.551903428716287 155.61057054508876 0
          -92.86810985915395 146.17076046772854 0 -249.9001320761934 65.78639118853198 0
          -285.22554688294076 -107.29566134093147 0 19.565014738114655 -196.1934016216769 0
          -147.8881000618298 859.2075001844046 0 -144.6198571144629 694.914708079682 0
          175.48272099152166 -573.9358570304398 0 -924.8461685637426 -405.20654847057267 0
          -458.10820265170696 -2765.3001754391425 0
          <InformationKey name="L2_NORM_RANGE" location="vtkDataArray" length="2">
            <Value index="0">
              0
            </Value>
            <Value index="1">
              2802.9891519
            </Value>
          </InformationKey>
        </DataArray>
        <DataArray type="Float64" Name="Sigma" NumberOfComponents="6" format="ascii" RangeMin="47238.46197775906" RangeMax="76713.94306518591">
          31502.66138893117 -31502.66138892917 0 -15704.678947785134 0 0
          -34491.19244072441 34491.192440724924 0 8192.949113157822 0 0
          38942.7896603144 -38942.78966031573 0 -3294.3865234360674 0 0
          -35831.599662590364 35831.599662589724 0 6474.5914199153085 0 0
          37872.2961753906 -37872.29617539044 0 -7567.26698681155 0 0
          -37255.96110072057 37255.961100721455 0 8770.8012948756 0 0
          41771.052022821765 -41771.052022822965 0 -8678.832959304575 0 0
          -41247.530711850755 41247.53071185277 0 11029.411755026853 0 0
          46031.67472289857 -46031.67472289674 0 -11053.109999567729 0 0
          -45466.34880662462 45466.348806625865 0 14408.779660454788 0 0
          51138.19079761412 -51138.19079761459 0 -13996.731472284519 0 0
          -49187.86095175101 49187.86095175247 0 17593.086959757795 0 0
          52603.5722890477 -52603.57228905065 0 -18728.519041027816 0 0
          <InformationKey name="L2_NORM_RANGE" location="vtkDataArray" length="2">
            <Value index="0">
              47238.461978
            </Value>
            <Value index="1">
              76713.943065
            </Value>
          </InformationKey>
        </DataArray>
        <DataArray type="Float64" Name="Press" format="ascii" RangeMin="-57510.51895066065" RangeMax="59807.4339712534">
          33560.12253063417 -38710.27289092423 44064.19700694679 -40614.89179060019 41505.89181567963 -42513.20296355922
          46776.30101025847 -47342.82944026308 51498.47139609241 -52812.02121700707 57028.96013816552 -57510.51895066065
          59807.4339712534
        </DataArray>
        <DataArray type="Float64" Name="Dev strain" NumberOfComponents="6" format="ascii" RangeMin="0" RangeMax="0">
          0 0 0 0 0 0
          0 0 0 0 0 0
          0 0 0 0 0 0
          0 0 0 0 0 0
          0 0 0 0 0 0
          0 0 0 0 0 0
          0 0 0 0 0 0
          0 0 0 0 0 0
          0 0 0 0 0 0
          0 0 0 0 0 0
          0 0 0 0 0 0
          0 0 0 0 0 0
          0 0 0 0 0 0
          <InformationKey name="L2_NORM_RANGE" location="vtkDataArray" length="2">
            <Value index="0">
              0
            </Value>
            <Value index="1">
              0
            </Value>
          </InformationKey>
        </DataArray>
        <DataArray type="Float64" Name="J2 Stresses" format="ascii" RangeMin="1054076909.7988431" RangeMax="2854825173.9367576">
          1054076909.7988431 1206423459.775801 1519254112.168991 1294383617.8938332 1448626700.0089211 1407238376.3769848
          1763651322.4772098 1731770770.7406359 2149457887.960291 2119092106.6315966 2664091681.0300198 2496824842.202263
          2854825173.9367576
        </DataArray>
      </PointData>
      <CellData>
        <DataArray type="UInt8" Name="vtkGhostType" format="ascii" RangeMin="0" RangeMax="0">
          0 0 0 0 0 0
          0 0 0 0 0
        </DataArray>
        <DataArray type="Float64" Name="Gauss Stress" NumberOfComponents="6" format="ascii" RangeMin="22571.932968641417" RangeMax="38326.60488312917">
          -22213.65670585934 -1293.655077192902 0 3791.051336545688 0 0
          24956.10175172599 986.596012712258 0 -3602.0387860211267 0 0
          -25612.48917546671 -2135.646116853013 0 2559.3752426597875 0 0
          28646.227735046967 1323.9036196365994 0 -1462.35403011077 0 0
          -26604.05706110447 -2115.763867937526 0 3707.126696865962 0 0
          29385.45898662357 1127.2009216289778 0 -2491.766217080175 0 0
          -29779.528018918194 -2658.0581551986165 0 4795.027138637972 0 0
          32495.71299998581 1458.9156440736228 0 -2900.8437346151522 0 0
          -32269.86633008792 -3259.1870229128203 0 6001.711715976024 0 0
          35806.309010379664 1337.297867788463 0 -3547.0206037991557 0 0
          37959.92576455636 1590.657674615165 0 -5044.054517851516 0 0
          <InformationKey name="L2_NORM_RANGE" location="vtkDataArray" length="2">
            <Value index="0">
              22571.932969
            </Value>
            <Value index="1">
              38326.604883
            </Value>
          </InformationKey>
        </DataArray>
        <DataArray type="Float64" Name="Gauss Strain" NumberOfComponents="6" format="ascii" RangeMin="0" RangeMax="0">
          0 0 0 0 0 0
          0 0 0 0 0 0
          0 0 0 0 0 0
          0 0 0 0 0 0
          0 0 0 0 0 0
          0 0 0 0 0 0
          0 0 0 0 0 0
          0 0 0 0 0 0
          0 0 0 0 0 0
          0 0 0 0 0 0
          0 0 0 0 0 0
          <InformationKey name="L2_NORM_RANGE" location="vtkDataArray" length="2">
            <Value index="0">
              0
            </Value>
            <Value index="1">
              0
            </Value>
          </InformationKey>
        </DataArray>
      </CellData>
      <Points>
        <DataArray type="Float32" Name="Points" NumberOfComponents="3" format="ascii" RangeMin="0" RangeMax="0.6020797527609908">
          0 0.05000000074505806 0 0 0 0
          0.10000000149011612 0.05000000074505806 0 0.10000000149011612 0 0
          0.20000000298023224 0.05000000074505806 0 0.20000000298023224 0 0
          0.30000001192092896 0.05000000074505806 0 0.30000001192092896 0 0
          0.4000000059604645 0.05000000074505806 0 0.4000000059604645 0 0
          0.5 0.05000000074505806 0 0.5 0 0
          0.6000000238418579 0.05000000074505806 0
          <InformationKey name="L2_NORM_RANGE" location="vtkDataArray" length="2">
            <Value index="0">
              0
            </Value>
            <Value index="1">
              0.60207975276
            </Value>
          </InformationKey>
        </DataArray>
      </Points>
      <Cells>
        <DataArray type="Int64" Name="connectivity" format="ascii" RangeMin="0" RangeMax="12">
          3 2 1 2 0 1
          5 4 3 4 2 3
          7 6 5 6 4 5
          9 8 7 8 6 7
          11 10 9 10 8 9
          12 10 11
        </DataArray>
        <DataArray type="Int64" Name="offsets" format="ascii" RangeMin="3" RangeMax="33">
          3 6 9 12 15 18
          21 24 27 30 33
        </DataArray>
        <DataArray type="UInt8" Name="types" format="ascii" RangeMin="5" RangeMax="5">
          5 5 5 5 5 5
          5 5 5 5 5
        </DataArray>
      </Cells>
    </Piece>
  </UnstructuredGrid>
</VTKFile>
