<?xml version="1.0"?>
<VTKFile type="UnstructuredGrid" version="0.1" byte_order="LittleEndian" header_type="UInt32" compressor="vtkZLibDataCompressor">
  <UnstructuredGrid>
    <Piece NumberOfPoints="13" NumberOfCells="11">
      <PointData>
        <DataArray type="Float64" Name="Disp" NumberOfComponents="3" format="ascii" RangeMin="0.010308880778997245" RangeMax="0.07762261116601195">
          -0.0023062600234910924 -0.016578136194047195 0 0.0015008949634505836 -0.025219037673074277 0
          -0.0032847919759764256 -0.02495215510969618 0 0.0013997333986096442 -0.03601356973646481 0
          -0.004496503964261775 -0.0356200625065681 0 0.0009264865460961117 -0.04885290400318877 0
          -0.005866765963898496 -0.048329196310415594 0 0.00005293095278568593 -0.06313365827697465 0
          -0.007176239349471364 -0.06255555689548348 0 -0.0011854780964864306 -0.0776135581320212 0
          -0.008351201698831344 -0.07701514641636946 0 0.0013857538146027756 -0.016748044292580457 0
          -0.0015968801519550622 -0.010184448767403704 0
          <InformationKey name="L2_NORM_RANGE" location="vtkDataArray" length="2">
            <Value index="0">
              0.010308880779
            </Value>
            <Value index="1">
              0.077622611166
            </Value>
          </InformationKey>
        </DataArray>
        <DataArray type="Float64" Name="Nodal Stress" NumberOfComponents="6" format="ascii" RangeMin="7667.580396008341" RangeMax="38619.636367509054">
          -33664.56072362098 -3237.7955786017787 0 6055.778223627336 0 0
          38022.2355138267 2136.566502471992 0 -6420.358500133613 0 0
          -34950.679434147416 -2466.2821770580767 0 5211.016367939866 0 0
          32930.94204720186 3396.7650004986594 0 -8661.150173314798 0 0
          -31708.19725386123 -1083.638812221803 0 3651.311523384468 0 0
          23265.09314336051 4286.0895848845785 0 -9180.539442741876 0 0
          -23383.86670273487 535.2071524272448 0 1684.898496307745 0 0
          12459.854302193698 4414.032760597855 0 -7144.148067668657 0 0
          -16247.952986677186 711.7486205989859 0 -636.6303416779024 0 0
          4944.2566606824985 1924.312615884136 0 -8185.242667764922 0 0
          -7596.756176067023 -735.3882836990414 0 -735.0434020091176 0 0
          37524.978322795934 1397.3437140326264 0 -4162.855385403112 0 0
          -31033.50873050374 -2975.1218508768898 0 5401.547071163162 0 0
          <InformationKey name="L2_NORM_RANGE" location="vtkDataArray" length="2">
            <Value index="0">
              7667.580396
            </Value>
            <Value index="1">
              38619.636368
            </Value>
          </InformationKey>
        </DataArray>
        <DataArray type="Float64" Name="Nodal Strain" NumberOfComponents="6" format="ascii" RangeMin="0" RangeMax="0">
          0 0 0 0 0 0
          0 0 0 0 0 0
          0 0 0 0 0 0
          0 0 0 0 0 0
          0 0 0 0 0 0
          0 0 0 0 0 0
          0 0 0 0 0 0
          0 0 0 0 0 0
          0 0 0 0 0 0
          0 0 0 0 0 0
          0 0 0 0 0 0
          0 0 0 0 0 0
          0 0 0 0 0 0
          <InformationKey name="L2_NORM_RANGE" location="vtkDataArray" length="2">
            <Value index="0">
              0
            </Value>
            <Value index="1">
              0
            </Value>
          </InformationKey>
        </DataArray>
        <DataArray type="Float64" Name="Sld_traction" NumberOfComponents="3" format="ascii" RangeMin="184.783641169893" RangeMax="11990.673218440621">
          -9290.946174920036 6776.3896779935485 0 -7929.590162322757 5418.465940894749 0
          -7869.638793471529 5895.345806709598 0 -9918.65743623108 5919.901226788741 0
          -5601.224425660272 4059.624905043651 0 -10404.510709435495 5960.0672084022035 0
          -2589.385151667809 2008.615665921115 0 -8915.918784483265 5311.64513360294 0
          -1030.8375200853393 919.3321180205767 0 -3024.2167468458433 -1764.8309945348483 0
          93.3851135467659 -159.4497244019613 0 -6268.037381882094 4946.465081309467 0
          -8835.453732344027 6473.966341531844 0
          <InformationKey name="L2_NORM_RANGE" location="vtkDataArray" length="2">
            <Value index="0">
              184.78364117
            </Value>
            <Value index="1">
              11990.673218
            </Value>
          </InformationKey>
        </DataArray>
        <DataArray type="Float64" Name="Velocity" NumberOfComponents="3" format="ascii" RangeMin="6.20906374158664" RangeMax="11.580868806472896">
          -0.8175072968934589 -7.797041863969539 0 -0.36258137571853805 -9.012195030718152 0
          -0.9203130551373336 -8.940674891840404 0 -0.5387101860977725 -10.002459201658237 0
          -0.8524844478173932 -9.973023431535584 0 -0.595938061548451 -10.315626706802028 0
          -0.829785671292353 -10.316873264962931 0 -0.47928616169514554 -11.002827687971585 0
          -0.8095213000762563 -11.001994975466726 0 -0.5134220435526895 -11.569482275276242 0
          -0.7683505514607982 -11.552282533589363 0 -0.16625872068489622 -7.873300334756639 0
          -0.8481906611594692 -6.150857269471285 0
          <InformationKey name="L2_NORM_RANGE" location="vtkDataArray" length="2">
            <Value index="0">
              6.2090637416
            </Value>
            <Value index="1">
              11.580868806
            </Value>
          </InformationKey>
        </DataArray>
        <DataArray type="Float64" Name="Acceleration" NumberOfComponents="3" format="ascii" RangeMin="600.1637721087917" RangeMax="2802.989151891339">
          -924.8461685637426 -405.20654847057267 0 -458.10820265170696 -2765.3001754391425 0
          -938.2958360761303 -2565.363630612919 0 -1151.9311428942847 -2075.8180206400225 0
          -329.48293075616675 -2245.7451511522904 0 -271.5642816186047 -710.6667271095685 0
          -315.61276010504366 -534.4306074693759 0 -823.2226389273943 -1243.304131679381 0
          -60.67449129268289 -984.660827588043 0 -1108.7062851737883 1323.8630375902994 0
          634.0602578404701 1835.7187282146242 0 175.48272099152166 -573.9358570304398 0
          -144.6198571144629 694.914708079682 0
          <InformationKey name="L2_NORM_RANGE" location="vtkDataArray" length="2">
            <Value index="0">
              600.16377211
            </Value>
            <Value index="1">
              2802.9891519
            </Value>
          </InformationKey>
        </DataArray>
        <DataArray type="Float64" Name="Sigma" NumberOfComponents="6" format="ascii" RangeMin="4129.075791711655" RangeMax="76713.94306518591">
          -49187.86095175101 49187.86095175247 0 17593.086959757795 0 0
          52603.5722890477 -52603.57228905065 0 -18728.519041027816 0 0
          -50146.20923146633 50146.20923147323 0 18379.9434440753 0 0
          46497.0876063755 -46497.08760637662 0 -22356.217703849004 0 0
          -43760.32848133897 43760.32848133325 0 17111.60652853138 0 0
          32789.2600509252 -32789.26005091844 0 -21785.677144072222 0 0
          -30126.912513927527 30126.912513927287 0 11289.188542054275 0 0
          18020.222819573268 -18020.22281956998 0 -13718.180830217887 0 0
          -20840.73228321045 20840.732283210164 0 6494.805659058771 0 0
          9194.897849673958 -9194.897849681145 0 -17153.14155675575 0 0
          -1038.4506755939044 1038.450675609303 0 3859.081144830254 0 0
          51138.19079761412 -51138.19079761459 0 -13996.731472284519 0 0
          -45466.34880662462 45466.348806625865 0 14408.779660454788 0 0
          <InformationKey name="L2_NORM_RANGE" location="vtkDataArray" length="2">
            <Value index="0">
              4129.0757917
            </Value>
            <Value index="1">
              76713.943065
            </Value>
          </InformationKey>
        </DataArray>
        <DataArray type="Float64" Name="Press" format="ascii" RangeMin="-58005.31851516634" RangeMax="59807.4339712534">
          -57510.51895066065 59807.4339712534 -58005.31851516634 55271.90385473599 -49949.21748600091 41689.55724131611
          -33582.86657217033 26495.604197355337 -22298.272263112543 12216.69076682976 -3291.3537116305033 57028.96013816552
          -52812.02121700707
        </DataArray>
        <DataArray type="Float64" Name="Dev strain" NumberOfComponents="6" format="ascii" RangeMin="0" RangeMax="0">
          0 0 0 0 0 0
          0 0 0 0 0 0
          0 0 0 0 0 0
          0 0 0 0 0 0
          0 0 0 0 0 0
          0 0 0 0 0 0
          0 0 0 0 0 0
          0 0 0 0 0 0
          0 0 0 0 0 0
          0 0 0 0 0 0
          0 0 0 0 0 0
          0 0 0 0 0 0
          0 0 0 0 0 0
          <InformationKey name="L2_NORM_RANGE" location="vtkDataArray" length="2">
            <Value index="0">
              0
            </Value>
            <Value index="1">
              0
            </Value>
          </InformationKey>
        </DataArray>
        <DataArray type="Float64" Name="J2 Stresses" format="ascii" RangeMin="4801506.626253523" RangeMax="2854825173.9367576">
          2496824842.202263 2854825173.9367576 2599097880.5381966 2286929273.380483 1988168118.2912557 1193789506.8434148
          939492302.1063483 371775551.78964925 444881747.23767984 158103712.78253013 4801506.626253523 2664091681.0300198
          2119092106.6315966
        </DataArray>
      </PointData>
      <CellData>
        <DataArray type="UInt8" Name="vtkGhostType" format="ascii" RangeMin="0" RangeMax="1">
          1 1 0 0 0 0
          0 0 0 0 0
        </DataArray>
        <DataArray type="Float64" Name="Gauss Stress" NumberOfComponents="6" format="ascii" RangeMin="8979.500325147257" RangeMax="38326.60488312917">
          -32269.86633008792 -3259.1870229128203 0 6001.711715976024 0 0
          37959.92576455636 1590.657674615165 0 -5044.054517851516 0 0
          -34146.300462914405 -2992.6352001328487 0 5748.170454268428 0 0
          -33364.02741762037 -1757.7273466671359 0 4378.444089585893 0 0
          35342.82332492665 2706.5228822896684 0 -7568.2644336005105 0 0
          -27646.835920398815 -248.1819575043446 0 2205.0393088378123 0 0
          27512.754262004313 3828.7414780297936 0 -9010.096106463285 0 0
          -20777.652205164086 1187.2957798799764 0 1355.2711236317214 0 0
          18428.28840769069 4639.908169979997 0 -8071.556477411946 0 0
          -8685.740105681227 -229.5500329249884 0 -2266.4182509555735 0 0
          7596.13702903645 3346.5447716771982 0 -8125.5055759716215 0 0
          <InformationKey name="L2_NORM_RANGE" location="vtkDataArray" length="2">
            <Value index="0">
              8979.5003251
            </Value>
            <Value index="1">
              38326.604883
            </Value>
          </InformationKey>
        </DataArray>
        <DataArray type="Float64" Name="Gauss Strain" NumberOfComponents="6" format="ascii" RangeMin="0" RangeMax="0">
          0 0 0 0 0 0
          0 0 0 0 0 0
          0 0 0 0 0 0
          0 0 0 0 0 0
          0 0 0 0 0 0
          0 0 0 0 0 0
          0 0 0 0 0 0
          0 0 0 0 0 0
          0 0 0 0 0 0
          0 0 0 0 0 0
          0 0 0 0 0 0
          <InformationKey name="L2_NORM_RANGE" location="vtkDataArray" length="2">
            <Value index="0">
              0
            </Value>
            <Value index="1">
              0
            </Value>
          </InformationKey>
        </DataArray>
      </CellData>
      <Points>
        <DataArray type="Float32" Name="Points" NumberOfComponents="3" format="ascii" RangeMin="0.4000000059604645" RangeMax="1.0012492197622458">
          0.5 0 0 0.6000000238418579 0.05000000074505806 0
          0.6000000238418579 0 0 0.699999988079071 0.05000000074505806 0
          0.699999988079071 0 0 0.800000011920929 0.05000000074505806 0
          0.800000011920929 0 0 0.8999999761581421 0.05000000074505806 0
          0.8999999761581421 0 0 1 0.05000000074505806 0
          1 0 0 0.5 0.05000000074505806 0
          0.4000000059604645 0 0
          <InformationKey name="L2_NORM_RANGE" location="vtkDataArray" length="2">
            <Value index="0">
              0.40000000596
            </Value>
            <Value index="1">
              1.0012492198
            </Value>
          </InformationKey>
        </DataArray>
      </Points>
      <Cells>
        <DataArray type="Int64" Name="connectivity" format="ascii" RangeMin="0" RangeMax="12">
          0 11 12 1 11 0
          2 1 0 4 3 2
          3 1 2 6 5 4
          5 3 4 8 7 6
          7 5 6 10 9 8
          9 7 8
        </DataArray>
        <DataArray type="Int64" Name="offsets" format="ascii" RangeMin="3" RangeMax="33">
          3 6 9 12 15 18
          21 24 27 30 33
        </DataArray>
        <DataArray type="UInt8" Name="types" format="ascii" RangeMin="5" RangeMax="5">
          5 5 5 5 5 5
          5 5 5 5 5
        </DataArray>
      </Cells>
    </Piece>
  </UnstructuredGrid>
</VTKFile>
