<?xml version="1.0"?>
<VTKFile type="UnstructuredGrid" version="0.1" byte_order="LittleEndian" header_type="UInt32" compressor="vtkZLibDataCompressor">
  <UnstructuredGrid>
    <Piece NumberOfPoints="13" NumberOfCells="11">
      <PointData>
        <DataArray type="Float64" Name="Disp" NumberOfComponents="3" format="ascii" RangeMin="0" RangeMax="0.05465970910897524">
          0 0 0 0 0 0
          0.0009171910038861253 -0.0018332368038565454 0 -0.0010836414712321494 -0.0017830866053975883 0
          0.0015684044861062315 -0.007981612788740627 0 -0.002268648604255506 -0.007794766340923619 0
          0.0016547315502617 -0.01713733984460197 0 -0.0034658463674517056 -0.016802139251512607 0
          0.001270193676919682 -0.02848955622818563 0 -0.0047444878072259635 -0.028039037253868006 0
          0.0005285984565280399 -0.041207696261993595 0 -0.006022475274807053 -0.0406874006458825 0
          -0.00043978283832766716 -0.054657939870918146 0
          <InformationKey name="L2_NORM_RANGE" location="vtkDataArray" length="2">
            <Value index="0">
              0
            </Value>
            <Value index="1">
              0.054659709109
            </Value>
          </InformationKey>
        </DataArray>
        <DataArray type="Float64" Name="Nodal Stress" NumberOfComponents="6" format="ascii" RangeMin="5821.796592220284" RangeMax="105506.53199249526">
          100907.55484817417 -3931.1060814196817 0 -30558.796976039037 0 0
          -54461.642119034404 -9824.207369056216 0 -1796.0614275467767 0 0
          70850.48965784955 5243.500798812452 0 -12417.900787528155 0 0
          -66604.99057688583 -765.4874869701019 0 4315.705901257173 0 0
          50627.19468330482 6302.096953789202 0 -15130.996652346183 0 0
          -55462.034280609005 -2027.8465583395714 0 3898.3080724386614 0 0
          38011.13307752396 6364.521585611226 0 -13176.722031415218 0 0
          -41617.77749120406 -432.26545404583135 0 3214.2055112204466 0 0
          23455.98915959781 5861.393041575132 0 -10959.597871326065 0 0
          -27934.639443296808 444.6081718029984 0 1482.840536216135 0 0
          11280.141237750498 4795.965786412825 0 -7853.278519418637 0 0
          -14508.83519334682 1657.0025156254057 0 -764.2416740651831 0 0
          1045.254518124363 3457.3745906541462 0 -4565.886495898402 0 0
          <InformationKey name="L2_NORM_RANGE" location="vtkDataArray" length="2">
            <Value index="0">
              5821.7965922
            </Value>
            <Value index="1">
              105506.53199
            </Value>
          </InformationKey>
        </DataArray>
        <DataArray type="Float64" Name="Nodal Strain" NumberOfComponents="6" format="ascii" RangeMin="0" RangeMax="0">
          0 0 0 0 0 0
          0 0 0 0 0 0
          0 0 0 0 0 0
          0 0 0 0 0 0
          0 0 0 0 0 0
          0 0 0 0 0 0
          0 0 0 0 0 0
          0 0 0 0 0 0
          0 0 0 0 0 0
          0 0 0 0 0 0
          0 0 0 0 0 0
          0 0 0 0 0 0
          0 0 0 0 0 0
          <InformationKey name="L2_NORM_RANGE" location="vtkDataArray" length="2">
            <Value index="0">
              0
            </Value>
            <Value index="1">
              0
            </Value>
          </InformationKey>
        </DataArray>
        <DataArray type="Float64" Name="Sld_traction" NumberOfComponents="3" format="ascii" RangeMin="372.1406203503819" RangeMax="50428.108566508636">
          -48697.47466805026 13097.71333287554 0 17252.430536067368 15978.687425180664 0
          -22135.800059184345 13664.738318543888 0 -13485.747006102256 9574.089259891458 0
          -20558.384354278114 11531.061229388168 0 -10680.377424677077 7775.27324819439 0
          -17642.64861042715 10670.535553430098 0 -6926.4975500168475 5417.087433898556 0
          -14205.489231618274 8725.62770711685 0 -3573.6386709610765 2867.282137082869 0
          -10271.721293426895 6344.810782906149 0 -165.99437572460786 333.06832413570163 0
          -5822.989614630866 3815.2063304293592 0
          <InformationKey name="L2_NORM_RANGE" location="vtkDataArray" length="2">
            <Value index="0">
              372.14062035
            </Value>
            <Value index="1">
              50428.108567
            </Value>
          </InformationKey>
        </DataArray>
        <DataArray type="Float64" Name="Velocity" NumberOfComponents="3" format="ascii" RangeMin="0" RangeMax="8.57984586228954">
          0 0 0 0 0 0
          0.21931988401893943 -0.36031305256621715 0 -0.22495804502632882 -0.3206891620032349 0
          0.37880093521580827 -1.9591677246238806 0 -0.7457886882581073 -1.8357738798992778 0
          0.20771285843331905 -4.685769794311977 0 -1.047495260800063 -4.5011628421118175 0
          -0.2925421038069528 -6.732047812212739 0 -1.0520729518510115 -6.620215995095977 0
          -0.5278376996471514 -7.810893769206394 0 -0.9974265526604998 -7.795608129621364 0
          -0.5628741340516051 -8.561362492609607 0
          <InformationKey name="L2_NORM_RANGE" location="vtkDataArray" length="2">
            <Value index="0">
              0
            </Value>
            <Value index="1">
              8.5798458623
            </Value>
          </InformationKey>
        </DataArray>
        <DataArray type="Float64" Name="Acceleration" NumberOfComponents="3" format="ascii" RangeMin="0" RangeMax="1145.5143328363183">
          0 0 0 0 0 0
          208.78481619724488 -403.5658235462779 0 44.757180002834616 -145.73865447687228 0
          410.2881464012444 -617.8801745796791 0 467.61029591477586 -281.72326364287665 0
          -39.932921578433024 -52.2133008205019 0 277.00528483088203 472.0001352706099 0
          -387.4137225780241 538.2997970841293 0 -222.1162130141537 967.9765598187341 0
          143.60022392638143 689.6711470835585 0 1.7601050691760065 545.1509009871206 0
          197.44628620210074 1128.369642802585 0
          <InformationKey name="L2_NORM_RANGE" location="vtkDataArray" length="2">
            <Value index="0">
              0
            </Value>
            <Value index="1">
              1145.5143328
            </Value>
          </InformationKey>
        </DataArray>
        <DataArray type="Float64" Name="Sigma" NumberOfComponents="6" format="ascii" RangeMin="7828.377786315567" RangeMax="157466.34578988535">
          103317.16255492737 -103317.16255492395 0 -58709.265875310346 0 0
          -96930.85200788769 96930.85200788766 0 16699.36571209441 0 0
          99973.84875722374 -99973.84875722427 0 -21516.02186562984 0 0
          -96116.10251695421 96116.10251695455 0 21388.61544914679 0 0
          74132.57852165894 -74132.57852165871 0 -36496.381589532204 0 0
          -71802.1882395523 71802.18823954734 0 23406.85095936845 0 0
          55150.46982562921 -55150.46982563546 0 -30135.314935620874 0 0
          -53597.46566831333 53597.46566832164 0 18722.017315725174 0 0
          34673.27966390509 -34673.279663900044 0 -24645.65006781736 0 0
          -34031.345839186244 34031.34583918574 0 12697.270154426118 0 0
          17177.476961484525 -17177.47696149601 0 -16123.358931651299 0 0
          -16463.891500221034 16463.891500235317 0 4565.647756669125 0 0
          2008.5008064593349 -2008.5008064667163 0 -7294.885042696271 0 0
          <InformationKey name="L2_NORM_RANGE" location="vtkDataArray" length="2">
            <Value index="0">
              7828.3777863
            </Value>
            <Value index="1">
              157466.34579
            </Value>
          </InformationKey>
        </DataArray>
        <DataArray type="Float64" Name="Press" format="ascii" RangeMin="-124044.87365178746" RangeMax="120167.24316892742">
          98915.26400818292 -124044.87365178746 120167.24316892742 -102256.21381576387 86556.92342736403 -82718.81162727338
          69836.10158106095 -60706.150435075746 46395.87978383147 -38606.92565606258 25761.991628827152 -17242.52248925785
          7001.714271262255
        </DataArray>
        <DataArray type="Float64" Name="Dev strain" NumberOfComponents="6" format="ascii" RangeMin="0" RangeMax="0">
          0 0 0 0 0 0
          0 0 0 0 0 0
          0 0 0 0 0 0
          0 0 0 0 0 0
          0 0 0 0 0 0
          0 0 0 0 0 0
          0 0 0 0 0 0
          0 0 0 0 0 0
          0 0 0 0 0 0
          0 0 0 0 0 0
          0 0 0 0 0 0
          0 0 0 0 0 0
          0 0 0 0 0 0
          <InformationKey name="L2_NORM_RANGE" location="vtkDataArray" length="2">
            <Value index="0">
              0
            </Value>
            <Value index="1">
              0
            </Value>
          </InformationKey>
        </DataArray>
        <DataArray type="Float64" Name="J2 Stresses" format="ascii" RangeMin="17337912.43610107" RangeMax="11536130553.3054">
          11536130553.3054 9465307274.771587 10110505234.562866 9352673380.757553 5828635665.552097 5292524403.946266
          3268608623.5552454 2960316809.15905 1354088339.4675255 1198437666.9699016 360056390.57224387 276271008.19078
          17337912.43610107
        </DataArray>
      </PointData>
      <CellData>
        <DataArray type="UInt8" Name="vtkGhostType" format="ascii" RangeMin="0" RangeMax="0">
          0 0 0 0 0 0
          0 0 0 0 0
        </DataArray>
        <DataArray type="Float64" Name="Gauss Stress" NumberOfComponents="6" format="ascii" RangeMin="9729.988925367126" RangeMax="70494.13948553824">
          -66402.31668874738 -4353.5795103353175 0 5523.986431870457 0 0
          67132.59760986213 -3774.1752596458928 0 -21175.30734294859 0 0
          -64067.93808350693 -1544.1299269433448 0 2766.3616063276804 0 0
          60819.4258474854 8825.876006199729 0 -12207.929335338424 0 0
          -47946.01485450821 -1113.225466351555 0 3997.851113157586 0 0
          43718.357829629174 5397.784424468259 0 -14408.281855261544 0 0
          -35290.909383633785 12.778512100156604 0 2257.879134111313 0 0
          30584.03825034589 6433.182369534274 0 -12019.649229237688 0 0
          -21135.07229813868 1076.7679538105892 0 379.8529931479816 0 0
          17123.45218093314 5243.844990128578 0 -9357.246281680844 0 0
          6081.089892851462 4266.365714368049 0 -6284.198739226149 0 0
          <InformationKey name="L2_NORM_RANGE" location="vtkDataArray" length="2">
            <Value index="0">
              9729.9889254
            </Value>
            <Value index="1">
              70494.139486
            </Value>
          </InformationKey>
        </DataArray>
        <DataArray type="Float64" Name="Gauss Strain" NumberOfComponents="6" format="ascii" RangeMin="0" RangeMax="0">
          0 0 0 0 0 0
          0 0 0 0 0 0
          0 0 0 0 0 0
          0 0 0 0 0 0
          0 0 0 0 0 0
          0 0 0 0 0 0
          0 0 0 0 0 0
          0 0 0 0 0 0
          0 0 0 0 0 0
          0 0 0 0 0 0
          0 0 0 0 0 0
          <InformationKey name="L2_NORM_RANGE" location="vtkDataArray" length="2">
            <Value index="0">
              0
            </Value>
            <Value index="1">
              0
            </Value>
          </InformationKey>
        </DataArray>
      </CellData>
      <Points>
        <DataArray type="Float32" Name="Points" NumberOfComponents="3" format="ascii" RangeMin="0" RangeMax="0.6020797527609908">
          0 0.05000000074505806 0 0 0 0
          0.10000000149011612 0.05000000074505806 0 0.10000000149011612 0 0
          0.20000000298023224 0.05000000074505806 0 0.20000000298023224 0 0
          0.30000001192092896 0.05000000074505806 0 0.30000001192092896 0 0
          0.4000000059604645 0.05000000074505806 0 0.4000000059604645 0 0
          0.5 0.05000000074505806 0 0.5 0 0
          0.6000000238418579 0.05000000074505806 0
          <InformationKey name="L2_NORM_RANGE" location="vtkDataArray" length="2">
            <Value index="0">
              0
            </Value>
            <Value index="1">
              0.60207975276
            </Value>
          </InformationKey>
        </DataArray>
      </Points>
      <Cells>
        <DataArray type="Int64" Name="connectivity" format="ascii" RangeMin="0" RangeMax="12">
          3 2 1 2 0 1
          5 4 3 4 2 3
          7 6 5 6 4 5
          9 8 7 8 6 7
          11 10 9 10 8 9
          12 10 11
        </DataArray>
        <DataArray type="Int64" Name="offsets" format="ascii" RangeMin="3" RangeMax="33">
          3 6 9 12 15 18
          21 24 27 30 33
        </DataArray>
        <DataArray type="UInt8" Name="types" format="ascii" RangeMin="5" RangeMax="5">
          5 5 5 5 5 5
          5 5 5 5 5
        </DataArray>
      </Cells>
    </Piece>
  </UnstructuredGrid>
</VTKFile>
