<?xml version="1.0"?>
<VTKFile type="UnstructuredGrid" version="0.1" byte_order="LittleEndian" header_type="UInt32" compressor="vtkZLibDataCompressor">
  <UnstructuredGrid>
    <Piece NumberOfPoints="13" NumberOfCells="11">
      <PointData>
        <DataArray type="Float64" Name="Disp" NumberOfComponents="3" format="ascii" RangeMin="0.039021453621394836" RangeMax="0.15119954638955668">
          -0.008661417032565477 -0.05573518337303347 0 -0.001533146920926437 -0.07491721824154488 0
          -0.010778971975599273 -0.07391419407505197 0 -0.0035204666429536485 -0.09373879370886876 0
          -0.012991388189608738 -0.09265358335622068 0 -0.005693351439563378 -0.11283418206470827 0
          -0.01522558341501715 -0.11171744239390226 0 -0.007926297327457876 -0.131878309280347 0
          -0.017426370262536857 -0.13076794993325755 0 -0.010152847665481125 -0.15085828619167474 0
          -0.019635141077256384 -0.1497520056633475 0 0.00024659890788048065 -0.05664789660183346 0
          -0.006617196494087982 -0.038456294065930194 0
          <InformationKey name="L2_NORM_RANGE" location="vtkDataArray" length="2">
            <Value index="0">
              0.039021453621
            </Value>
            <Value index="1">
              0.15119954639
            </Value>
          </InformationKey>
        </DataArray>
        <DataArray type="Float64" Name="Nodal Stress" NumberOfComponents="6" format="ascii" RangeMin="566.860819283784" RangeMax="43401.58928695668">
          -27401.928408857395 -566.3345992628892 0 4320.937299633249 0 0
          14708.797676035296 4620.602010452304 0 -8440.06381531263 0 0
          -16092.71581501674 -253.0882149577314 0 2635.1924418138938 0 0
          8528.698861883518 3321.7703397889422 0 -5536.1394750931295 0 0
          -8255.386940705239 678.1440654287283 0 1155.5252726643382 0 0
          4466.626632334626 2106.2142091522587 0 -3260.8801927607255 0 0
          -2937.12192448763 516.4849122431442 0 241.85736793534056 0 0
          2080.6027063297297 772.9887551030624 0 -1573.2891916506967 0 0
          -511.67151204718334 195.0054626029062 0 -146.61623973304754 0 0
          898.3503602717075 500.042502335748 0 -967.4095023208226 0 0
          -463.023788170441 245.8371265369854 0 360.40622154105233 0 0
          23825.568014786884 7299.077245929364 0 -12736.204027107231 0 0
          -42972.517268700416 -953.1910574806938 0 6012.664886126277 0 0
          <InformationKey name="L2_NORM_RANGE" location="vtkDataArray" length="2">
            <Value index="0">
              566.86081928
            </Value>
            <Value index="1">
              43401.589287
            </Value>
          </InformationKey>
        </DataArray>
        <DataArray type="Float64" Name="Nodal Strain" NumberOfComponents="6" format="ascii" RangeMin="0" RangeMax="0">
          0 0 0 0 0 0
          0 0 0 0 0 0
          0 0 0 0 0 0
          0 0 0 0 0 0
          0 0 0 0 0 0
          0 0 0 0 0 0
          0 0 0 0 0 0
          0 0 0 0 0 0
          0 0 0 0 0 0
          0 0 0 0 0 0
          0 0 0 0 0 0
          0 0 0 0 0 0
          0 0 0 0 0 0
          <InformationKey name="L2_NORM_RANGE" location="vtkDataArray" length="2">
            <Value index="0">
              0
            </Value>
            <Value index="1">
              0
            </Value>
          </InformationKey>
        </DataArray>
        <DataArray type="Float64" Name="Sld_traction" NumberOfComponents="3" format="ascii" RangeMin="526.7856926576674" RangeMax="18144.415784825655">
          -5682.446483972591 3576.859412746237 0 -10691.873410163513 5922.392476274073 0
          -3866.1189500756363 1961.0451343946736 0 -7195.756860024522 3797.50554692954 0
          -2232.6534563531677 229.8823139067092 0 -4302.361320724389 2072.703078367044 0
          -1026.6649981192406 -186.4178468776031 0 -2117.7442855774602 707.7317673141443 0
          -522.9179351350577 -63.71812224874377 0 -757.126932004547 -11.587206825709575 0
          -612.2331139237034 -111.82180736929821 0 -15463.495105449003 9492.109528254776 0
          -7899.547881154946 5748.9588939578025 0
          <InformationKey name="L2_NORM_RANGE" location="vtkDataArray" length="2">
            <Value index="0">
              526.78569266
            </Value>
            <Value index="1">
              18144.415785
            </Value>
          </InformationKey>
        </DataArray>
        <DataArray type="Float64" Name="Velocity" NumberOfComponents="3" format="ascii" RangeMin="0.6585010312253338" RangeMax="12.343310370198555">
          -0.37176208764557606 -0.569643989678166 0 0.0539133980373695 -1.8027394133911216 0
          -0.8120341679523047 -1.6494359562809202 0 -0.11069995592947918 -4.217279294766969 0
          -1.2414585067049446 -3.9311733423436612 0 -0.6708025430368825 -6.337088052026765 0
          -1.8317620584776992 -5.967721888571695 0 -1.1195228319710686 -9.17209407243162 0
          -2.626432183855973 -8.750653327333099 0 -1.9716264376798331 -12.18482663337042 0
          -3.454222101138451 -11.794484775783346 0 0.17908485076422007 -0.6603196211267142 0
          -0.1718757363192689 0.6356747119317687 0
          <InformationKey name="L2_NORM_RANGE" location="vtkDataArray" length="2">
            <Value index="0">
              0.65850103123
            </Value>
            <Value index="1">
              12.34331037
            </Value>
          </InformationKey>
        </DataArray>
        <DataArray type="Float64" Name="Acceleration" NumberOfComponents="3" format="ascii" RangeMin="407.6978157483526" RangeMax="3366.48890086838">
          1190.0733107139781 2839.93890989756 0 1817.7587714374156 1057.8114816541438 0
          637.3575357756531 999.757325783019 0 1081.9118628154015 -300.78705065469876 0
          1540.8697695281749 -39.34535210932336 0 186.01340931564846 2124.157567147766 0
          548.427459927296 2467.2579414288757 0 -187.3868161288906 -362.0824355130403 0
          -1187.944222225025 340.99062881976033 0 -2790.6379734036955 1882.9729740671555 0
          -2285.505518871805 719.0541173368565 0 874.6148403170182 2919.2887458351493 0
          1290.2887345535896 87.64347329782004 0
          <InformationKey name="L2_NORM_RANGE" location="vtkDataArray" length="2">
            <Value index="0">
              407.69781575
            </Value>
            <Value index="1">
              3366.4889009
            </Value>
          </InformationKey>
        </DataArray>
        <DataArray type="Float64" Name="Sigma" NumberOfComponents="6" format="ascii" RangeMin="1226.2015839150222" RangeMax="78876.076356106">
          -32515.433656310837 32515.433656294488 0 18917.425650314184 0 0
          19994.46842777554 -19994.468427762775 0 -19961.196916520097 0 0
          -18971.03657631961 18971.036576325838 0 11942.250214116992 0 0
          10822.719927787412 -10822.719927796252 0 -12713.558010391025 0 0
          -10395.30247786062 10395.302477884054 0 6453.565808361092 0 0
          4998.664109888801 -4998.6641099199205 0 -6943.169639580328 0 0
          -3914.861516973422 3914.861516968316 0 2528.201719426085 0 0
          1962.1911680564408 -1962.1911680370913 0 -2714.0864718592716 0 0
          -758.8112908604844 758.811290866729 0 593.2800132412374 0 0
          422.38932405995 -422.3893240635766 0 -1896.0917795634714 0 0
          -540.6499313227251 540.649931290284 0 1372.2183262432216 0 0
          32603.10958179774 -32603.109581795103 0 -30430.64905168836 0 0
          -52322.70404568016 52322.704045683604 0 27314.91724370097 0 0
          <InformationKey name="L2_NORM_RANGE" location="vtkDataArray" length="2">
            <Value index="0">
              1226.2015839
            </Value>
            <Value index="1">
              78876.076356
            </Value>
          </InformationKey>
        </DataArray>
        <DataArray type="Float64" Name="Press" format="ascii" RangeMin="-62615.69029942516" RangeMax="48013.46069787582">
          -39476.33375758941 29392.157142402742 -23380.223854120224 17172.586660195928 -11532.87804109354 8440.861234559665
          -4131.724425540397 2938.711953009424 -959.0989311241556 1231.718912546261 -353.4966523289422 48013.46069787582
          -62615.69029942516
        </DataArray>
        <DataArray type="Float64" Name="Dev strain" NumberOfComponents="6" format="ascii" RangeMin="0" RangeMax="0">
          0 0 0 0 0 0
          0 0 0 0 0 0
          0 0 0 0 0 0
          0 0 0 0 0 0
          0 0 0 0 0 0
          0 0 0 0 0 0
          0 0 0 0 0 0
          0 0 0 0 0 0
          0 0 0 0 0 0
          0 0 0 0 0 0
          0 0 0 0 0 0
          0 0 0 0 0 0
          0 0 0 0 0 0
          <InformationKey name="L2_NORM_RANGE" location="vtkDataArray" length="2">
            <Value index="0">
              0
            </Value>
            <Value index="1">
              0
            </Value>
          </InformationKey>
        </DataArray>
        <DataArray type="Float64" Name="J2 Stresses" format="ascii" RangeMin="663789.8686699738" RangeMax="2924191534.6595726">
          1146720674.166211 499391113.2940805 395554563.824319 157539905.9563169 118474441.51717058 37038544.04464346
          16924091.680586703 5691760.524143108 663789.8686699738 1077203.7502133963 763048.1319411653 1294468854.8293815
          2924191534.6595726
        </DataArray>
      </PointData>
      <CellData>
        <DataArray type="UInt8" Name="vtkGhostType" format="ascii" RangeMin="0" RangeMax="1">
          1 1 0 0 0 0
          0 0 0 0 0
        </DataArray>
        <DataArray type="Float64" Name="Gauss Stress" NumberOfComponents="6" format="ascii" RangeMin="415.85381663133023" RangeMax="35832.43701777948">
          -35437.86382644401 -614.5117463185893 0 5267.231280775602 0 0
          19337.14281198387 5949.0465764752535 0 -10491.473439298095 0 0
          -21652.13409138727 -657.4662214831137 0 3632.82631597036 0 0
          -12094.711453803553 267.7012971319348 0 1894.0860040290204 0 0
          11676.890575907262 3779.4560564150847 0 -6910.834904264711 0 0
          -5511.747039006505 695.9195509527257 0 679.532629402283 0 0
          6502.217137825883 2884.829431276644 0 -4401.053947203422 0 0
          -1621.1976811441978 186.45674538094204 0 135.79842026935023 0 0
          3431.280841000172 1400.618333679999 0 -2376.351464004505 0 0
          -319.3161896766988 265.3984090621999 0 23.135519973662724 0 0
          1612.3670452291449 528.5209110658634 0 -1338.9660793938353 0 0
          <InformationKey name="L2_NORM_RANGE" location="vtkDataArray" length="2">
            <Value index="0">
              415.85381663
            </Value>
            <Value index="1">
              35832.437018
            </Value>
          </InformationKey>
        </DataArray>
        <DataArray type="Float64" Name="Gauss Strain" NumberOfComponents="6" format="ascii" RangeMin="0" RangeMax="0">
          0 0 0 0 0 0
          0 0 0 0 0 0
          0 0 0 0 0 0
          0 0 0 0 0 0
          0 0 0 0 0 0
          0 0 0 0 0 0
          0 0 0 0 0 0
          0 0 0 0 0 0
          0 0 0 0 0 0
          0 0 0 0 0 0
          0 0 0 0 0 0
          <InformationKey name="L2_NORM_RANGE" location="vtkDataArray" length="2">
            <Value index="0">
              0
            </Value>
            <Value index="1">
              0
            </Value>
          </InformationKey>
        </DataArray>
      </CellData>
      <Points>
        <DataArray type="Float32" Name="Points" NumberOfComponents="3" format="ascii" RangeMin="0.4000000059604645" RangeMax="1.0012492197622458">
          0.5 0 0 0.6000000238418579 0.05000000074505806 0
          0.6000000238418579 0 0 0.699999988079071 0.05000000074505806 0
          0.699999988079071 0 0 0.800000011920929 0.05000000074505806 0
          0.800000011920929 0 0 0.8999999761581421 0.05000000074505806 0
          0.8999999761581421 0 0 1 0.05000000074505806 0
          1 0 0 0.5 0.05000000074505806 0
          0.4000000059604645 0 0
          <InformationKey name="L2_NORM_RANGE" location="vtkDataArray" length="2">
            <Value index="0">
              0.40000000596
            </Value>
            <Value index="1">
              1.0012492198
            </Value>
          </InformationKey>
        </DataArray>
      </Points>
      <Cells>
        <DataArray type="Int64" Name="connectivity" format="ascii" RangeMin="0" RangeMax="12">
          0 11 12 1 11 0
          2 1 0 4 3 2
          3 1 2 6 5 4
          5 3 4 8 7 6
          7 5 6 10 9 8
          9 7 8
        </DataArray>
        <DataArray type="Int64" Name="offsets" format="ascii" RangeMin="3" RangeMax="33">
          3 6 9 12 15 18
          21 24 27 30 33
        </DataArray>
        <DataArray type="UInt8" Name="types" format="ascii" RangeMin="5" RangeMax="5">
          5 5 5 5 5 5
          5 5 5 5 5
        </DataArray>
      </Cells>
    </Piece>
  </UnstructuredGrid>
</VTKFile>
