<?xml version="1.0"?>
<VTKFile type="UnstructuredGrid" version="0.1" byte_order="LittleEndian" header_type="UInt32" compressor="vtkZLibDataCompressor">
  <UnstructuredGrid>
    <Piece NumberOfPoints="13" NumberOfCells="11">
      <PointData>
        <DataArray type="Float64" Name="Disp" NumberOfComponents="3" format="ascii" RangeMin="0.03785762392570989" RangeMax="0.18195388157585837">
          -0.00992359896384689 -0.05664596088430879 0 -0.0015216632610127012 -0.08028476034296989 0
          -0.013163244912096961 -0.07885149016454529 0 -0.004274292026969059 -0.10449135157074926 0
          -0.016660509932877616 -0.10289043788156388 0 -0.007402414919115674 -0.12990787500554 0
          -0.02024769353273868 -0.1282093203970871 0 -0.01084977150721274 -0.15579613737798376 0
          -0.023725248537287816 -0.15408363274458575 0 -0.014348420304966542 -0.18138725935212077 0
          -0.027105166577860856 -0.17969118334080703 0 0.000599858674677628 -0.05781622224861305 0
          -0.007078477066381636 -0.037189983217543826 0
          <InformationKey name="L2_NORM_RANGE" location="vtkDataArray" length="2">
            <Value index="0">
              0.037857623926
            </Value>
            <Value index="1">
              0.18195388158
            </Value>
          </InformationKey>
        </DataArray>
        <DataArray type="Float64" Name="Nodal Stress" NumberOfComponents="6" format="ascii" RangeMin="1761.4624319402405" RangeMax="73183.80498027874">
          -58930.441389019514 -3869.3360933016 0 11826.372496425909 0 0
          32942.710445578094 10677.949078431879 0 -16784.216623031658 0 0
          -44225.693727617574 -2509.022455053114 0 9298.4833079024 0 0
          19637.931230574057 8808.237173376598 0 -12492.17332507742 0 0
          -29739.561072789773 -1093.3866318897612 0 5756.458477871225 0 0
          7806.251373975526 6589.228969834321 0 -8349.14318791167 0 0
          -17477.5683703925 377.9742643162923 0 2471.035511595463 0 0
          1072.9984988059073 3742.1410161595045 0 -4170.975314453951 0 0
          -7653.560332516614 407.9962241453992 0 725.0406922980668 0 0
          -289.81843807551064 2138.6398812798475 0 -2116.6402242716604 0 0
          1541.4818407224957 249.34230985913803 0 815.1147442990605 0 0
          48133.273782259705 10839.29835778417 0 -19739.778647909276 0 0
          -71695.91766487407 -5417.9854768933255 0 13645.883443560684 0 0
          <InformationKey name="L2_NORM_RANGE" location="vtkDataArray" length="2">
            <Value index="0">
              1761.4624319
            </Value>
            <Value index="1">
              73183.80498
            </Value>
          </InformationKey>
        </DataArray>
        <DataArray type="Float64" Name="Nodal Strain" NumberOfComponents="6" format="ascii" RangeMin="0" RangeMax="0">
          0 0 0 0 0 0
          0 0 0 0 0 0
          0 0 0 0 0 0
          0 0 0 0 0 0
          0 0 0 0 0 0
          0 0 0 0 0 0
          0 0 0 0 0 0
          0 0 0 0 0 0
          0 0 0 0 0 0
          0 0 0 0 0 0
          0 0 0 0 0 0
          0 0 0 0 0 0
          0 0 0 0 0 0
          <InformationKey name="L2_NORM_RANGE" location="vtkDataArray" length="2">
            <Value index="0">
              0
            </Value>
            <Value index="1">
              0
            </Value>
          </InformationKey>
        </DataArray>
        <DataArray type="Float64" Name="Sld_traction" NumberOfComponents="3" format="ascii" RangeMin="452.64856878518077" RangeMax="22680.550549183565">
          -8107.926513345893 9505.740566494058 0 -15549.943826017832 13458.352505307479 0
          -5709.648173559595 6761.77334355479 0 -12831.447101994303 10786.794469304954 0
          -3226.5923134371906 4140.586837349037 0 -9831.243917301617 7618.507628558612 0
          -830.071079495818 1572.9266758909898 0 -5830.137818209556 4375.6516255005145 0
          -595.9581340882453 712.522720597505 0 -1295.4842893014888 1042.113596412552 0
          452.63920119663896 -2.9121063409685446 0 -17288.295670243482 14680.674576882064 0
          -11451.314564924505 12090.13500487482 0
          <InformationKey name="L2_NORM_RANGE" location="vtkDataArray" length="2">
            <Value index="0">
              452.64856879
            </Value>
            <Value index="1">
              22680.550549
            </Value>
          </InformationKey>
        </DataArray>
        <DataArray type="Float64" Name="Velocity" NumberOfComponents="3" format="ascii" RangeMin="0.8397423453193918" RangeMax="2.2256839118559015">
          -0.4526793194375747 -1.438423247375488 0 -0.4107893678634119 -1.5574528923595587 0
          -0.4954976724209879 -1.558150449301215 0 -0.31158699533152 -1.9362611662152764 0
          -0.4950300616561683 -1.9197699901813952 0 -0.2686926846925485 -2.0948907441191196 0
          -0.17862258062699754 -2.2185046425879618 0 0.2571580445587608 -1.5719837105128502 0
          0.4331151316793569 -1.8237208755170728 0 0.8808093542068769 -1.4115223808722455 0
          0.9222857540845137 -1.6827016483983104 0 -0.2117499749974631 -1.4430886340844213 0
          -0.33975586345543574 -0.7679408569480882 0
          <InformationKey name="L2_NORM_RANGE" location="vtkDataArray" length="2">
            <Value index="0">
              0.83974234532
            </Value>
            <Value index="1">
              2.2256839119
            </Value>
          </InformationKey>
        </DataArray>
        <DataArray type="Float64" Name="Acceleration" NumberOfComponents="3" format="ascii" RangeMin="512.7417887520812" RangeMax="4041.829422955111">
          -16.699616201388267 -2841.016091626354 0 -518.4914911273831 4008.4350634498433 0
          -230.28993264049973 3406.080750542626 0 2356.806385717323 -2807.9047522128503 0
          1118.8041923021187 -1317.063376386739 0 -672.5408632451633 332.8624652169383 0
          1818.6871231120488 1531.8382762737747 0 2562.5333544914447 2253.3136798393575 0
          2097.516847348293 2886.7241457924433 0 1557.3326922870842 3077.227772821112 0
          1061.240427264619 1422.7188263428943 0 -1167.914209222501 -2415.1165409079476 0
          -469.8187168764546 205.36434745409383 0
          <InformationKey name="L2_NORM_RANGE" location="vtkDataArray" length="2">
            <Value index="0">
              512.74178875
            </Value>
            <Value index="1">
              4041.829423
            </Value>
          </InformationKey>
        </DataArray>
        <DataArray type="Float64" Name="Sigma" NumberOfComponents="6" format="ascii" RangeMin="4677.408841672359" RangeMax="134997.37339196005">
          -70034.6702687633 70034.6702687603 0 42535.23802690358 0 0
          46106.95740780074 -46106.95740778925 0 -44625.36814919574 0 0
          -49675.12699252041 49675.12699251335 0 33664.828745421706 0 0
          27978.018639214777 -27978.018639213296 0 -32594.889541205863 0 0
          -30895.2762150426 30895.27621504973 0 21902.580631824298 0 0
          11811.859581182436 -11811.85958118556 0 -20556.86299188569 0 0
          -16632.41253895347 16632.41253895236 0 10498.694898203967 0 0
          3408.0237052080747 -3408.0237051750228 0 -8960.350426708454 0 0
          -6930.590619580098 6930.590619556069 0 3829.8215096973313 0 0
          -1148.2788689764175 1148.278868988692 0 -4386.463809294572 0 0
          5331.574275142862 -5331.574275134491 0 1908.5506383967406 0 0
          67612.93122571075 -67612.9312257083 0 -52884.6754905665 0 0
          -88996.7460413719 88996.74604137483 0 48820.58183617717 0 0
          <InformationKey name="L2_NORM_RANGE" location="vtkDataArray" length="2">
            <Value index="0">
              4677.4088417
            </Value>
            <Value index="1">
              134997.37339
            </Value>
          </InformationKey>
        </DataArray>
        <DataArray type="Float64" Name="Press" format="ascii" RangeMin="-110668.19603706547" RangeMax="94420.50294067396">
          -88952.73663129556 71008.30105267251 -64719.85297228489 47538.24456144853 -40948.94414775484 25292.693330053113
          -20573.02084829425 9969.922840572224 -8801.9191782063 2525.6244597152095 4928.971509825932 94420.50294067396
          -110668.19603706547
        </DataArray>
        <DataArray type="Float64" Name="Dev strain" NumberOfComponents="6" format="ascii" RangeMin="0" RangeMax="0">
          0 0 0 0 0 0
          0 0 0 0 0 0
          0 0 0 0 0 0
          0 0 0 0 0 0
          0 0 0 0 0 0
          0 0 0 0 0 0
          0 0 0 0 0 0
          0 0 0 0 0 0
          0 0 0 0 0 0
          0 0 0 0 0 0
          0 0 0 0 0 0
          0 0 0 0 0 0
          0 0 0 0 0 0
          <InformationKey name="L2_NORM_RANGE" location="vtkDataArray" length="2">
            <Value index="0">
              0
            </Value>
            <Value index="1">
              0
            </Value>
          </InformationKey>
        </DataArray>
        <DataArray type="Float64" Name="J2 Stresses" format="ascii" RangeMin="6128810.548514616" RangeMax="8516283108.658424">
          5357166658.155522 2623707392.0170355 2750948415.337322 1048376233.027061 1074448851.9873884 245166180.7823981
          304192795.50731164 31686595.517501123 51699969.53508021 6128810.548514616 29336325.636151653 5270705694.368158
          8516283108.658424
        </DataArray>
      </PointData>
      <CellData>
        <DataArray type="UInt8" Name="vtkGhostType" format="ascii" RangeMin="0" RangeMax="1">
          1 1 0 0 0 0
          0 0 0 0 0
        </DataArray>
        <DataArray type="Float64" Name="Gauss Stress" NumberOfComponents="6" format="ascii" RangeMin="1511.1981189702428" RangeMax="66940.2458327766">
          -65539.63827070384 -4593.9815477534175 0 12823.714790838088 0 0
          40053.76190893305 10930.282999104562 0 -18324.935204286223 0 0
          -52089.042801463635 -3020.4828991411814 0 10524.899541043185 0 0
          -36907.645708979806 -1846.0559967471363 0 7657.506612013384 0 0
          26078.84723211045 9805.614529115657 0 -14518.476314993302 0 0
          -23981.70027960321 -171.14749772648292 0 3948.1375127141914 0 0
          13592.198583033816 7662.46391279923 0 -10416.390633755755 0 0
          -13186.665546417942 249.98742246835832 0 1789.388660397615 0 0
          4425.688689922714 5367.374858307621 0 -6339.506173463394 0 0
          -1364.8728073596021 466.6573349150368 0 450.63611293316694 0 0
          -325.7392204224361 2788.1579684836233 0 -3172.3309087685648 0 0
          <InformationKey name="L2_NORM_RANGE" location="vtkDataArray" length="2">
            <Value index="0">
              1511.198119
            </Value>
            <Value index="1">
              66940.245833
            </Value>
          </InformationKey>
        </DataArray>
        <DataArray type="Float64" Name="Gauss Strain" NumberOfComponents="6" format="ascii" RangeMin="0" RangeMax="0">
          0 0 0 0 0 0
          0 0 0 0 0 0
          0 0 0 0 0 0
          0 0 0 0 0 0
          0 0 0 0 0 0
          0 0 0 0 0 0
          0 0 0 0 0 0
          0 0 0 0 0 0
          0 0 0 0 0 0
          0 0 0 0 0 0
          0 0 0 0 0 0
          <InformationKey name="L2_NORM_RANGE" location="vtkDataArray" length="2">
            <Value index="0">
              0
            </Value>
            <Value index="1">
              0
            </Value>
          </InformationKey>
        </DataArray>
      </CellData>
      <Points>
        <DataArray type="Float32" Name="Points" NumberOfComponents="3" format="ascii" RangeMin="0.4000000059604645" RangeMax="1.0012492197622458">
          0.5 0 0 0.6000000238418579 0.05000000074505806 0
          0.6000000238418579 0 0 0.699999988079071 0.05000000074505806 0
          0.699999988079071 0 0 0.800000011920929 0.05000000074505806 0
          0.800000011920929 0 0 0.8999999761581421 0.05000000074505806 0
          0.8999999761581421 0 0 1 0.05000000074505806 0
          1 0 0 0.5 0.05000000074505806 0
          0.4000000059604645 0 0
          <InformationKey name="L2_NORM_RANGE" location="vtkDataArray" length="2">
            <Value index="0">
              0.40000000596
            </Value>
            <Value index="1">
              1.0012492198
            </Value>
          </InformationKey>
        </DataArray>
      </Points>
      <Cells>
        <DataArray type="Int64" Name="connectivity" format="ascii" RangeMin="0" RangeMax="12">
          0 11 12 1 11 0
          2 1 0 4 3 2
          3 1 2 6 5 4
          5 3 4 8 7 6
          7 5 6 10 9 8
          9 7 8
        </DataArray>
        <DataArray type="Int64" Name="offsets" format="ascii" RangeMin="3" RangeMax="33">
          3 6 9 12 15 18
          21 24 27 30 33
        </DataArray>
        <DataArray type="UInt8" Name="types" format="ascii" RangeMin="5" RangeMax="5">
          5 5 5 5 5 5
          5 5 5 5 5
        </DataArray>
      </Cells>
    </Piece>
  </UnstructuredGrid>
</VTKFile>
