<?xml version="1.0"?>
<VTKFile type="UnstructuredGrid" version="0.1" byte_order="LittleEndian" header_type="UInt32" compressor="vtkZLibDataCompressor">
  <UnstructuredGrid>
    <Piece NumberOfPoints="13" NumberOfCells="11">
      <PointData>
        <DataArray type="Float64" Name="Disp" NumberOfComponents="3" format="ascii" RangeMin="0" RangeMax="0.07742326302659347">
          0 0 0 0 0 0
          0.001177443223168914 -0.0022132495342208603 0 -0.001280975355297829 -0.002165819007138774 0
          0.002158366978492956 -0.009932581863339084 0 -0.002801541707633229 -0.009726104578987184 0
          0.002481900574578661 -0.022036468101436835 0 -0.004421190386370595 -0.021583748800038632 0
          0.0021116993650085025 -0.03771070463953087 0 -0.006424534911183272 -0.03697461256676257 0
          0.0009795895599209606 -0.05640531595884378 0 -0.008895772746022417 -0.055350077549497265 0
          -0.0009563543842604236 -0.07741735621924054 0
          <InformationKey name="L2_NORM_RANGE" location="vtkDataArray" length="2">
            <Value index="0">
              0
            </Value>
            <Value index="1">
              0.077423263027
            </Value>
          </InformationKey>
        </DataArray>
        <DataArray type="Float64" Name="Nodal Stress" NumberOfComponents="6" format="ascii" RangeMin="40516.64191610053" RangeMax="139124.4333407847">
          134662.18297128135 -1410.208793958918 0 -34924.42899978506 0 0
          -70563.18600395661 -10733.596901621311 0 1523.2144652816735 0 0
          98905.28498041627 6054.069648212588 0 -14023.827021286541 0 0
          -88085.59204269967 -3697.5146250148628 0 7900.592011579751 0 0
          80652.36921378218 6785.990850563417 0 -19476.492250977204 0 0
          -80379.54818936971 -5614.6797886701015 0 9215.308160824334 0 0
          73703.69526499054 7536.055148774384 0 -19620.58950203491 0 0
          -69708.96749816713 -5580.500002257319 0 11669.587083548658 0 0
          62320.4371061618 8151.7764275066575 0 -19986.9851982164 0 0
          -60809.8131868162 -5156.909423567799 0 11833.874024855744 0 0
          49685.655768586315 8973.545371819517 0 -19052.02119488615 0 0
          -50779.875235126325 -3653.5305847338814 0 10728.195970471455 0 0
          35885.58443686905 8832.21523052511 0 -16607.68123199433 0 0
          <InformationKey name="L2_NORM_RANGE" location="vtkDataArray" length="2">
            <Value index="0">
              40516.641916
            </Value>
            <Value index="1">
              139124.43334
            </Value>
          </InformationKey>
        </DataArray>
        <DataArray type="Float64" Name="Nodal Strain" NumberOfComponents="6" format="ascii" RangeMin="0" RangeMax="0">
          0 0 0 0 0 0
          0 0 0 0 0 0
          0 0 0 0 0 0
          0 0 0 0 0 0
          0 0 0 0 0 0
          0 0 0 0 0 0
          0 0 0 0 0 0
          0 0 0 0 0 0
          0 0 0 0 0 0
          0 0 0 0 0 0
          0 0 0 0 0 0
          0 0 0 0 0 0
          0 0 0 0 0 0
          <InformationKey name="L2_NORM_RANGE" location="vtkDataArray" length="2">
            <Value index="0">
              0
            </Value>
            <Value index="1">
              0
            </Value>
          </InformationKey>
        </DataArray>
        <DataArray type="Float64" Name="Sld_traction" NumberOfComponents="3" format="ascii" RangeMin="13218.889095035343" RangeMax="61914.87004102496">
          -59509.68613992282 17089.423270692525 0 21073.926741832398 17601.375426785347 0
          -23961.479372403748 16701.314175664993 0 -18266.085520047356 14973.570431569937 0
          -21296.109830673027 13767.835365432886 0 -15212.598254737013 13767.349415647159 0
          -19416.54270864436 13411.697514050207 0 -14143.540765377165 13031.223235813026 0
          -18624.182424345385 12700.02904863069 0 -12547.253376721526 11160.723779160995 0
          -17871.45879272384 12065.734777124659 0 -10309.91741602748 8273.127086026032 0
          -16385.236964341122 10657.845992527928 0
          <InformationKey name="L2_NORM_RANGE" location="vtkDataArray" length="2">
            <Value index="0">
              13218.889095
            </Value>
            <Value index="1">
              61914.870041
            </Value>
          </InformationKey>
        </DataArray>
        <DataArray type="Float64" Name="Velocity" NumberOfComponents="3" format="ascii" RangeMin="0" RangeMax="0.7904698618871286">
          0 0 0 0 0 0
          -0.03678993189389654 0.09001025040749562 0 0.035326110933699445 0.04485719439931163 0
          -0.0644942879297041 0.34286537757244256 0 0.1358890373077395 0.27408835077383564 0
          -0.02559001645034853 0.7900555383072301 0 0.12727915562552675 0.7775642387881392 0
          0.10913026069851181 0.6621053201716968 0 -0.19483791768823022 0.7140036059708779 0
          -0.06235368567724475 -0.19925935662711236 0 -0.3697168779635517 -0.16147451230131982 0
          -0.10785146795071066 -0.6348469501127024 0
          <InformationKey name="L2_NORM_RANGE" location="vtkDataArray" length="2">
            <Value index="0">
              0
            </Value>
            <Value index="1">
              0.79046986189
            </Value>
          </InformationKey>
        </DataArray>
        <DataArray type="Float64" Name="Acceleration" NumberOfComponents="3" format="ascii" RangeMin="0" RangeMax="2178.9007091595695">
          0 0 0 0 0 0
          -57.55601486890913 406.35020396035617 0 115.02234912569068 248.15624208432837 0
          -85.5469915179791 657.124075596538 0 13.661006853677776 447.2651772835716 0
          12.026248278088502 414.109676839294 0 -132.56598313444255 812.5968940306325 0
          -115.59406189470087 -877.356713859805 0 -947.2122130952464 -440.3692517620839 0
          -1590.4231074970003 -1489.349737138883 0 -838.4196978947742 -1624.958392165216 0
          -705.1636548800032 1308.017938421488 0
          <InformationKey name="L2_NORM_RANGE" location="vtkDataArray" length="2">
            <Value index="0">
              0
            </Value>
            <Value index="1">
              2178.9007092
            </Value>
          </InformationKey>
        </DataArray>
        <DataArray type="Float64" Name="Sigma" NumberOfComponents="6" format="ascii" RangeMin="80604.32240945689" RangeMax="199879.01413496904">
          132470.52289842936 -132470.5228984303 0 -69675.97446466255 0 0
          -130406.51619961797 130406.51619961823 0 26682.05278482286 0 0
          137610.25393324066 -137610.25393323728 0 -27027.819854638026 0 0
          -128576.8243710006 128576.82437100186 0 30413.55608156164 0 0
          112782.19219715489 -112782.19219715844 0 -49190.45004710045 0 0
          -109323.98735694666 109323.98735695463 0 39268.036950560214 0 0
          100942.62071557253 -100942.62071557318 0 -49771.31631123301 0 0
          -94671.63909885971 94671.63909884922 0 43701.8211495556 0 0
          84049.20798373685 -84049.2079837418 0 -52418.352137066126 0 0
          -79575.56129390388 79575.56129390758 0 44011.96028616185 0 0
          66460.92972667076 -66460.92972666299 0 -50013.134591728056 0 0
          -64322.8010535613 64322.80105353231 0 40006.70045568856 0 0
          48033.80869187844 -48033.808691849044 0 -43388.515026381625 0 0
          <InformationKey name="L2_NORM_RANGE" location="vtkDataArray" length="2">
            <Value index="0">
              80604.322409
            </Value>
            <Value index="1">
              199879.01413
            </Value>
          </InformationKey>
        </DataArray>
        <DataArray type="Float64" Name="Press" format="ascii" RangeMin="-160623.89658147088" RangeMax="161112.57474163588">
          133007.6350972395 -160623.89658147088 161112.57474163588 -141279.8034778707 129211.23554852331 -127861.96842870637
          122177.13480652482 -113938.53571144587 105787.6395856262 -98817.00831032099 89206.33439337742 -80849.31051402539
          68712.88427628897
        </DataArray>
        <DataArray type="Float64" Name="Dev strain" NumberOfComponents="6" format="ascii" RangeMin="0" RangeMax="0">
          0 0 0 0 0 0
          0 0 0 0 0 0
          0 0 0 0 0 0
          0 0 0 0 0 0
          0 0 0 0 0 0
          0 0 0 0 0 0
          0 0 0 0 0 0
          0 0 0 0 0 0
          0 0 0 0 0 0
          0 0 0 0 0 0
          0 0 0 0 0 0
          0 0 0 0 0 0
          0 0 0 0 0 0
          <InformationKey name="L2_NORM_RANGE" location="vtkDataArray" length="2">
            <Value index="0">
              0
            </Value>
            <Value index="1">
              0
            </Value>
          </InformationKey>
        </DataArray>
        <DataArray type="Float64" Name="J2 Stresses" format="ascii" RangeMin="2777887586.4952" RangeMax="19119207749.0942">
          18762124791.3835 17183842452.524273 19119207749.0942 16763245863.712872 13324747970.755453 12337228893.110348
          10808708658.766197 9440181542.610687 7751190272.885237 6816533117.297821 5042383588.055529 4537556755.71196
          2777887586.4952
        </DataArray>
      </PointData>
      <CellData>
        <DataArray type="UInt8" Name="vtkGhostType" format="ascii" RangeMin="0" RangeMax="0">
          0 0 0 0 0 0
          0 0 0 0 0
        </DataArray>
        <DataArray type="Float64" Name="Gauss Stress" NumberOfComponents="6" format="ascii" RangeMin="46862.6938574674" RangeMax="94023.26766425672">
          -87388.07065169455 -6472.679560107643 0 10022.596337248826 0 0
          91056.85796315222 -2059.3157915482843 0 -23340.580511492568 0 0
          -88349.7186296154 -4937.305609085234 0 6830.380995007141 0 0
          90286.54285722785 9076.128350964882 0 -15268.237940058947 0 0
          -74225.45835795377 -5523.4545311322545 0 11066.180596294276 0 0
          75975.74249404084 6375.192123521596 0 -19897.909802591093 0 0
          -65721.96561505581 -5589.970675708558 0 11765.143099550449 0 0
          68115.4760937183 7902.016360079795 0 -19495.94909958118 0 0
          -55965.805683921135 -4340.850603397351 0 11335.175383374124 0 0
          55703.8473617288 8414.12975072847 0 -19473.175480877446 0 0
          42413.948506876324 8965.99026355376 0 -17798.31638747371 0 0
          <InformationKey name="L2_NORM_RANGE" location="vtkDataArray" length="2">
            <Value index="0">
              46862.693857
            </Value>
            <Value index="1">
              94023.267664
            </Value>
          </InformationKey>
        </DataArray>
        <DataArray type="Float64" Name="Gauss Strain" NumberOfComponents="6" format="ascii" RangeMin="0" RangeMax="0">
          0 0 0 0 0 0
          0 0 0 0 0 0
          0 0 0 0 0 0
          0 0 0 0 0 0
          0 0 0 0 0 0
          0 0 0 0 0 0
          0 0 0 0 0 0
          0 0 0 0 0 0
          0 0 0 0 0 0
          0 0 0 0 0 0
          0 0 0 0 0 0
          <InformationKey name="L2_NORM_RANGE" location="vtkDataArray" length="2">
            <Value index="0">
              0
            </Value>
            <Value index="1">
              0
            </Value>
          </InformationKey>
        </DataArray>
      </CellData>
      <Points>
        <DataArray type="Float32" Name="Points" NumberOfComponents="3" format="ascii" RangeMin="0" RangeMax="0.6020797527609908">
          0 0.05000000074505806 0 0 0 0
          0.10000000149011612 0.05000000074505806 0 0.10000000149011612 0 0
          0.20000000298023224 0.05000000074505806 0 0.20000000298023224 0 0
          0.30000001192092896 0.05000000074505806 0 0.30000001192092896 0 0
          0.4000000059604645 0.05000000074505806 0 0.4000000059604645 0 0
          0.5 0.05000000074505806 0 0.5 0 0
          0.6000000238418579 0.05000000074505806 0
          <InformationKey name="L2_NORM_RANGE" location="vtkDataArray" length="2">
            <Value index="0">
              0
            </Value>
            <Value index="1">
              0.60207975276
            </Value>
          </InformationKey>
        </DataArray>
      </Points>
      <Cells>
        <DataArray type="Int64" Name="connectivity" format="ascii" RangeMin="0" RangeMax="12">
          3 2 1 2 0 1
          5 4 3 4 2 3
          7 6 5 6 4 5
          9 8 7 8 6 7
          11 10 9 10 8 9
          12 10 11
        </DataArray>
        <DataArray type="Int64" Name="offsets" format="ascii" RangeMin="3" RangeMax="33">
          3 6 9 12 15 18
          21 24 27 30 33
        </DataArray>
        <DataArray type="UInt8" Name="types" format="ascii" RangeMin="5" RangeMax="5">
          5 5 5 5 5 5
          5 5 5 5 5
        </DataArray>
      </Cells>
    </Piece>
  </UnstructuredGrid>
</VTKFile>
