<?xml version="1.0"?>
<VTKFile type="UnstructuredGrid" version="0.1" byte_order="LittleEndian" header_type="UInt32" compressor="vtkZLibDataCompressor">
  <UnstructuredGrid>
    <Piece NumberOfPoints="13" NumberOfCells="11">
      <PointData>
        <DataArray type="Float64" Name="Disp" NumberOfComponents="3" format="ascii" RangeMin="0.028437611972117378" RangeMax="0.10587355615139077">
          -0.006022475274807053 -0.0406874006458825 0 -0.00043978283832766716 -0.054657939870918146 0
          -0.00718446912422896 -0.05413722110111788 0 -0.0015077614476872584 -0.06804024319296695 0
          -0.008064825495211096 -0.06759035669019826 0 -0.0024796941593324268 -0.08081779787865011 0
          -0.008764948131942762 -0.08043415483119906 0 -0.0032654302505323533 -0.09324530550216426 0
          -0.009489101090657544 -0.09287949088698635 0 -0.003964153464395823 -0.10574650299306124 0
          -0.010232381181506591 -0.1053779306472567 0 0.0005285984565280399 -0.041207696261993595 0
          -0.0047444878072259635 -0.028039037253868006 0
          <InformationKey name="L2_NORM_RANGE" location="vtkDataArray" length="2">
            <Value index="0">
              0.028437611972
            </Value>
            <Value index="1">
              0.10587355615
            </Value>
          </InformationKey>
        </DataArray>
        <DataArray type="Float64" Name="Nodal Stress" NumberOfComponents="6" format="ascii" RangeMin="1253.7646222660887" RangeMax="27977.50119845004">
          -14508.83519334682 1657.0025156254057 0 -764.2416740651831 0 0
          1045.254518124363 3457.3745906541462 0 -4565.886495898402 0 0
          -3652.8590557177226 1947.941224995119 0 -2295.7848166765234 0 0
          -3981.175050655166 1077.9444707680054 0 -1014.5328355271392 0 0
          3242.778801743535 553.2892148481814 0 -1886.461204344942 0 0
          -3380.667821099394 -860.536946748024 0 1464.2535605047635 0 0
          4744.41731438945 -465.39768486839546 0 -634.7289695280417 0 0
          -1228.9033947575813 -922.6117463460054 0 1695.100847940952 0 0
          2510.9508732563527 -417.5060081090167 0 -4.868073692480507 0 0
          -580.0228473989313 -929.522381513735 0 1173.5222793470034 0 0
          807.341232754133 -551.4779464675256 0 -784.8553602422717 0 0
          11280.141237750498 4795.965786412825 0 -7853.278519418637 0 0
          -27934.639443296808 444.6081718029984 0 1482.840536216135 0 0
          <InformationKey name="L2_NORM_RANGE" location="vtkDataArray" length="2">
            <Value index="0">
              1253.7646223
            </Value>
            <Value index="1">
              27977.501198
            </Value>
          </InformationKey>
        </DataArray>
        <DataArray type="Float64" Name="Nodal Strain" NumberOfComponents="6" format="ascii" RangeMin="0" RangeMax="0">
          0 0 0 0 0 0
          0 0 0 0 0 0
          0 0 0 0 0 0
          0 0 0 0 0 0
          0 0 0 0 0 0
          0 0 0 0 0 0
          0 0 0 0 0 0
          0 0 0 0 0 0
          0 0 0 0 0 0
          0 0 0 0 0 0
          0 0 0 0 0 0
          0 0 0 0 0 0
          0 0 0 0 0 0
          <InformationKey name="L2_NORM_RANGE" location="vtkDataArray" length="2">
            <Value index="0">
              0
            </Value>
            <Value index="1">
              0
            </Value>
          </InformationKey>
        </DataArray>
        <DataArray type="Float64" Name="Sld_traction" NumberOfComponents="3" format="ascii" RangeMin="372.1406203503819" RangeMax="12073.312809694016">
          -165.99437572460786 333.06832413570163 0 -5822.989614630866 3815.2063304293592 0
          2373.16817562848 -1155.9742636567275 0 -892.0600327252677 885.152936575703 0
          2723.2740454875357 -614.2706773308357 0 2502.774941338409 -945.6930462667044 0
          1561.6150003667249 193.70722165842122 0 2774.052752809089 -989.0884578916024 0
          923.5975965281585 168.76498898335353 0 1029.4589051747432 -339.5366953002403 0
          851.8564033681295 128.0412359237469 0 -10271.721293426895 6344.810782906149 0
          -3573.6386709610765 2867.282137082869 0
          <InformationKey name="L2_NORM_RANGE" location="vtkDataArray" length="2">
            <Value index="0">
              372.14062035
            </Value>
            <Value index="1">
              12073.31281
            </Value>
          </InformationKey>
        </DataArray>
        <DataArray type="Float64" Name="Velocity" NumberOfComponents="3" format="ascii" RangeMin="6.703291528625405" RangeMax="10.251922521114176">
          -0.9974265526604998 -7.795608129621364 0 -0.5628741340516051 -8.561362492609607 0
          -0.7806354149968737 -8.611739380820548 0 -0.5728777360578124 -8.673645296185825 0
          -0.6168178070694046 -8.674187648397695 0 -0.5812484542520328 -9.035260807535947 0
          -0.8969487649861035 -8.875081356024744 0 -1.0117788982322384 -9.916975089893286 0
          -1.3171336781258969 -9.701790619731645 0 -1.5070560952829828 -10.140547189604634 0
          -1.6128358205596443 -10.024805710249634 0 -0.5278376996471514 -7.810893769206394 0
          -1.0520729518510115 -6.620215995095977 0
          <InformationKey name="L2_NORM_RANGE" location="vtkDataArray" length="2">
            <Value index="0">
              6.7032915286
            </Value>
            <Value index="1">
              10.251922521
            </Value>
          </InformationKey>
        </DataArray>
        <DataArray type="Float64" Name="Acceleration" NumberOfComponents="3" format="ascii" RangeMin="281.22036439536765" RangeMax="4655.626599898391">
          1.7601050691760065 545.1509009871206 0 197.44628620210074 1128.369642802585 0
          1495.5388456648338 698.9920359105236 0 823.5380956691574 4518.92215628001 0
          750.0703046816557 4594.807240322081 0 997.2625430408698 662.05416488423 0
          -669.3968271097494 667.5185931429824 0 -191.73591349485457 -1016.0454044188605 0
          -682.4338764488025 -1327.1869563817086 0 -262.6997908777298 100.36788940423321 0
          -349.07478105001314 -1336.6055935134918 0 143.60022392638143 689.6711470835585 0
          -222.1162130141537 967.9765598187341 0
          <InformationKey name="L2_NORM_RANGE" location="vtkDataArray" length="2">
            <Value index="0">
              281.2203644
            </Value>
            <Value index="1">
              4655.6265999
            </Value>
          </InformationKey>
        </DataArray>
        <DataArray type="Float64" Name="Sigma" NumberOfComponents="6" format="ascii" RangeMin="2306.782208654065" RangeMax="49774.34749574366">
          -16463.891500221034 16463.891500235317 0 4565.647756669125 0 0
          2008.5008064593349 -2008.5008064667163 0 -7294.885042696271 0 0
          -2625.962814886654 2625.9628148738775 0 -2385.9024777105496 0 0
          -5535.532844617814 5535.532844632577 0 751.9338439253079 0 0
          5644.443727526621 -5644.443727547114 0 -4713.618367321624 0 0
          -5192.359003886499 5192.359003903048 0 4806.326101669025 0 0
          6332.068631531905 -6332.068631546448 0 -3079.5985508255562 0 0
          -2403.827153289518 2403.8271532759136 0 3572.7111245547776 0 0
          2808.4956446325323 -2808.4956446271735 0 -1177.7482438187021 0 0
          -505.4942608384972 505.494260823898 0 2614.474636034942 0 0
          207.31848733401918 -207.31848731064218 0 -2288.073916592663 0 0
          17177.476961484525 -17177.47696149601 0 -16123.358931651299 0 0
          -34031.345839186244 34031.34583918574 0 12697.270154426118 0 0
          <InformationKey name="L2_NORM_RANGE" location="vtkDataArray" length="2">
            <Value index="0">
              2306.7822087
            </Value>
            <Value index="1">
              49774.347496
            </Value>
          </InformationKey>
        </DataArray>
        <DataArray type="Float64" Name="Press" format="ascii" RangeMin="-38606.92565606258" RangeMax="25761.991628827152">
          -17242.52248925785 7001.714271262255 -668.98562639991 -4952.013433046315 6909.128616246278 -7190.783580710369
          6257.111806275883 -3700.951278842056 2998.030657829311 -2025.5612702845483 -230.37140749515254 25761.991628827152
          -38606.92565606258
        </DataArray>
        <DataArray type="Float64" Name="Dev strain" NumberOfComponents="6" format="ascii" RangeMin="0" RangeMax="0">
          0 0 0 0 0 0
          0 0 0 0 0 0
          0 0 0 0 0 0
          0 0 0 0 0 0
          0 0 0 0 0 0
          0 0 0 0 0 0
          0 0 0 0 0 0
          0 0 0 0 0 0
          0 0 0 0 0 0
          0 0 0 0 0 0
          0 0 0 0 0 0
          0 0 0 0 0 0
          0 0 0 0 0 0
          <InformationKey name="L2_NORM_RANGE" location="vtkDataArray" length="2">
            <Value index="0">
              0
            </Value>
            <Value index="1">
              0
            </Value>
          </InformationKey>
        </DataArray>
        <DataArray type="Float64" Name="J2 Stresses" format="ascii" RangeMin="1351801.5171335414" RangeMax="1198437666.9699016">
          276271008.19078 17337912.43610107 8318813.363420225 30783475.000334375 37414294.52151824 32735784.674223363
          42466074.96308413 8969451.177738652 8234420.517359363 1964393.8533507893 1351801.5171335414 360056390.57224387
          1198437666.9699016
        </DataArray>
      </PointData>
      <CellData>
        <DataArray type="UInt8" Name="vtkGhostType" format="ascii" RangeMin="0" RangeMax="1">
          1 1 0 0 0 0
          0 0 0 0 0
        </DataArray>
        <DataArray type="Float64" Name="Gauss Stress" NumberOfComponents="6" format="ascii" RangeMin="1266.2114595192156" RangeMax="21165.892340515813">
          -21135.07229813868 1076.7679538105892 0 379.8529931479816 0 0
          6081.089892851462 4266.365714368049 0 -6284.198739226149 0 0
          -9330.382451014619 2057.18655474899 0 -1705.046587912565 0 0
          -409.6407917259294 1268.3938295864648 0 -2115.8623337022887 0 0
          -1590.7598804097022 2511.2366882852557 0 -2976.2845588271703 0 0
          4253.2033989946085 -269.5655044595735 0 -995.630272159385 0 0
          -3439.0388394960346 -50.07342550729828 0 281.54719275757066 0 0
          4096.976102712686 -394.181979211523 0 -228.21189002982715 0 0
          -1966.2468596402186 -1123.5018425480093 0 1766.479558466082 0 0
          1084.1392837258882 -589.4072970214359 0 -283.7825081254748 0 0
          -943.1025535975925 -875.8853739415518 0 1669.8125055903392 0 0
          <InformationKey name="L2_NORM_RANGE" location="vtkDataArray" length="2">
            <Value index="0">
              1266.2114595
            </Value>
            <Value index="1">
              21165.892341
            </Value>
          </InformationKey>
        </DataArray>
        <DataArray type="Float64" Name="Gauss Strain" NumberOfComponents="6" format="ascii" RangeMin="0" RangeMax="0">
          0 0 0 0 0 0
          0 0 0 0 0 0
          0 0 0 0 0 0
          0 0 0 0 0 0
          0 0 0 0 0 0
          0 0 0 0 0 0
          0 0 0 0 0 0
          0 0 0 0 0 0
          0 0 0 0 0 0
          0 0 0 0 0 0
          0 0 0 0 0 0
          <InformationKey name="L2_NORM_RANGE" location="vtkDataArray" length="2">
            <Value index="0">
              0
            </Value>
            <Value index="1">
              0
            </Value>
          </InformationKey>
        </DataArray>
      </CellData>
      <Points>
        <DataArray type="Float32" Name="Points" NumberOfComponents="3" format="ascii" RangeMin="0.4000000059604645" RangeMax="1.0012492197622458">
          0.5 0 0 0.6000000238418579 0.05000000074505806 0
          0.6000000238418579 0 0 0.699999988079071 0.05000000074505806 0
          0.699999988079071 0 0 0.800000011920929 0.05000000074505806 0
          0.800000011920929 0 0 0.8999999761581421 0.05000000074505806 0
          0.8999999761581421 0 0 1 0.05000000074505806 0
          1 0 0 0.5 0.05000000074505806 0
          0.4000000059604645 0 0
          <InformationKey name="L2_NORM_RANGE" location="vtkDataArray" length="2">
            <Value index="0">
              0.40000000596
            </Value>
            <Value index="1">
              1.0012492198
            </Value>
          </InformationKey>
        </DataArray>
      </Points>
      <Cells>
        <DataArray type="Int64" Name="connectivity" format="ascii" RangeMin="0" RangeMax="12">
          0 11 12 1 11 0
          2 1 0 4 3 2
          3 1 2 6 5 4
          5 3 4 8 7 6
          7 5 6 10 9 8
          9 7 8
        </DataArray>
        <DataArray type="Int64" Name="offsets" format="ascii" RangeMin="3" RangeMax="33">
          3 6 9 12 15 18
          21 24 27 30 33
        </DataArray>
        <DataArray type="UInt8" Name="types" format="ascii" RangeMin="5" RangeMax="5">
          5 5 5 5 5 5
          5 5 5 5 5
        </DataArray>
      </Cells>
    </Piece>
  </UnstructuredGrid>
</VTKFile>
