<?xml version="1.0"?>
<VTKFile type="UnstructuredGrid" version="0.1" byte_order="LittleEndian" header_type="UInt32" compressor="vtkZLibDataCompressor">
  <UnstructuredGrid>
    <Piece NumberOfPoints="13" NumberOfCells="11">
      <PointData>
        <DataArray type="Float64" Name="Disp" NumberOfComponents="3" format="ascii" RangeMin="0.03787304915662547" RangeMax="0.1279249976704788">
          -0.007486815548079833 -0.052185590743958635 0 -0.0012771369897430765 -0.0678909585688094 0
          -0.008816213662856294 -0.0672314632445128 0 -0.0025865280054679844 -0.08301246415630224 0
          -0.010097735242364916 -0.08235189333095536 0 -0.0039195799237039496 -0.09794798285920539 0
          -0.011358349117543525 -0.0972929028288322 0 -0.005207641839739385 -0.11282545606091353 0
          -0.012659593311167937 -0.1121720056345386 0 -0.006498967427694053 -0.1277598076523512 0
          -0.013968076983217129 -0.12710623007380384 0 -0.000015335874676309248 -0.05282374523173891 0
          -0.0061329397006634825 -0.037373184277609994 0
          <InformationKey name="L2_NORM_RANGE" location="vtkDataArray" length="2">
            <Value index="0">
              0.037873049157
            </Value>
            <Value index="1">
              0.12792499767
            </Value>
          </InformationKey>
        </DataArray>
        <DataArray type="Float64" Name="Nodal Stress" NumberOfComponents="6" format="ascii" RangeMin="233.35775320362825" RangeMax="23438.98348434398">
          -10470.381927588682 384.4220732230584 0 728.0800965506651 0 0
          6625.090724180537 2168.4568873202593 0 -4116.530955674335 0 0
          -3379.725137985175 455.1197329253165 0 -181.6625155779337 0 0
          3468.6206623089474 1008.2057354740767 0 -2063.929392642013 0 0
          484.601398283222 289.10256532247945 0 -427.93231615692423 0 0
          2746.07482002694 143.97165080608875 0 -651.4169650352287 0 0
          1745.4874258759794 -57.56568041126263 0 -182.46461300439523 0 0
          1927.7134069692295 103.02041241567494 0 -235.63881297656627 0 0
          180.2729665121678 -60.90477917575755 0 -135.08555214641018 0 0
          370.33485326680375 -175.09017831440448 0 -453.14312867505123 0 0
          -118.04152777872568 -275.63856484748624 0 -219.64953560602078 0 0
          12723.020820630347 4157.985883507497 0 -7775.6496730000945 0 0
          -23397.939834587207 392.0582242027326 0 1329.9054948461646 0 0
          <InformationKey name="L2_NORM_RANGE" location="vtkDataArray" length="2">
            <Value index="0">
              233.3577532
            </Value>
            <Value index="1">
              23438.983484
            </Value>
          </InformationKey>
        </DataArray>
        <DataArray type="Float64" Name="Nodal Strain" NumberOfComponents="6" format="ascii" RangeMin="0" RangeMax="0">
          0 0 0 0 0 0
          0 0 0 0 0 0
          0 0 0 0 0 0
          0 0 0 0 0 0
          0 0 0 0 0 0
          0 0 0 0 0 0
          0 0 0 0 0 0
          0 0 0 0 0 0
          0 0 0 0 0 0
          0 0 0 0 0 0
          0 0 0 0 0 0
          0 0 0 0 0 0
          0 0 0 0 0 0
          <InformationKey name="L2_NORM_RANGE" location="vtkDataArray" length="2">
            <Value index="0">
              0
            </Value>
            <Value index="1">
              0
            </Value>
          </InformationKey>
        </DataArray>
        <DataArray type="Float64" Name="Sld_traction" NumberOfComponents="3" format="ascii" RangeMin="111.91393469739633" RangeMax="11541.752034000672">
          -2477.906618610677 1217.7073021361848 0 -5527.945047551543 2652.4206186563856 0
          -918.2617827595215 237.68307907261638 0 -2478.4725458773487 1021.2820643651927 0
          -140.29078154308758 -85.03604448012909 0 -462.5083332412095 141.71965365095863 0
          -87.33662828284291 147.650962223709 0 -3.985275870699412 119.70608311169669 0
          8.471742450163944 111.59282395974743 0 -156.6928848389402 -322.83114172125255 0
          112.16921091258418 75.15284564646532 0 -10206.680964874793 5388.478792351438 0
          -3685.9517905700986 2727.098116110855 0
          <InformationKey name="L2_NORM_RANGE" location="vtkDataArray" length="2">
            <Value index="0">
              111.9139347
            </Value>
            <Value index="1">
              11541.752034
            </Value>
          </InformationKey>
        </DataArray>
        <DataArray type="Float64" Name="Velocity" NumberOfComponents="3" format="ascii" RangeMin="2.330332210412055" RangeMax="11.29467143585095">
          -0.4863374080205739 -3.054416802811917 0 -0.0896626126378528 -4.9564080024565556 0
          -1.108189297946715 -4.720303157182248 0 -0.6322670307462688 -7.006276613341345 0
          -1.435293257205832 -6.808201911694454 0 -1.0822092831866708 -8.139254737964785 0
          -1.7137341939256618 -7.995274740517641 0 -1.2642390361903622 -9.69022193681569 0
          -2.0600404481707493 -9.509485351453042 0 -1.6709981068769886 -11.17037905223636 0
          -2.4099048292535725 -11.020434801172621 0 0.12475347716651569 -3.2057912749094304 0
          -0.1353293808999011 -2.3263994002641044 0
          <InformationKey name="L2_NORM_RANGE" location="vtkDataArray" length="2">
            <Value index="0">
              2.3303322104
            </Value>
            <Value index="1">
              11.294671436
            </Value>
          </InformationKey>
        </DataArray>
        <DataArray type="Float64" Name="Acceleration" NumberOfComponents="3" format="ascii" RangeMin="495.5489870092451" RangeMax="4063.0508927183873">
          -75.93464456399897 3137.81156355854 0 936.7159051059064 -10.637545897034215 0
          467.2181483998147 -252.20954252095908 0 318.02525957573675 1688.1183715125062 0
          673.2650361959936 1711.3955629818574 0 102.97465077214747 484.7319051024424 0
          -738.5247203537581 621.0861975059834 0 -1526.9612943571315 -1124.2312762576707 0
          -1509.161499593814 -1002.2318509114989 0 -2835.660746324693 2909.8815592001283 0
          -1497.254173460731 1395.6300669860375 0 707.0006588212349 3087.126849601526 0
          582.0820297322715 2518.103073346364 0
          <InformationKey name="L2_NORM_RANGE" location="vtkDataArray" length="2">
            <Value index="0">
              495.54898701
            </Value>
            <Value index="1">
              4063.0508927
            </Value>
          </InformationKey>
        </DataArray>
        <DataArray type="Float64" Name="Sigma" NumberOfComponents="6" format="ascii" RangeMin="297.4230953205213" RangeMax="42288.93801883919">
          -13088.21217842412 13088.212178436013 0 7066.28533555267 0 0
          7298.042014786031 -7298.042014801376 0 -8077.410536587458 0 0
          -4906.715459193285 4906.715459195224 0 2282.965730960026 0 0
          2805.916083689968 -2805.916083683409 0 -3484.1734491108837 0 0
          -690.9550471855 690.9550471654038 0 180.14109782814376 0 0
          1826.251662438759 -1826.2516624224063 0 -711.077541851515 0 0
          963.5331913573937 -963.5331913639493 0 -109.9579474579159 0 0
          1304.646920510745 -1304.6469205276098 0 -207.72226603139552 0 0
          -533.5744905478914 533.5744905625215 0 127.66282743800457 0 0
          434.2146825161781 -434.214682536468 0 -905.6023980379005 0 0
          207.27694109217725 -207.27694107422735 0 -50.32928591209361 0 0
          16126.344504493809 -16126.344504503544 0 -16139.894819278306 0 0
          -28565.380336241964 28565.380336240545 0 12505.693553457379 0 0
          <InformationKey name="L2_NORM_RANGE" location="vtkDataArray" length="2">
            <Value index="0">
              297.42309532
            </Value>
            <Value index="1">
              42288.938019
            </Value>
          </InformationKey>
        </DataArray>
        <DataArray type="Float64" Name="Press" format="ascii" RangeMin="-33104.79900556379" RangeMax="23902.446749559393">
          -15305.858371048234 10989.47919500497 -5389.5140017718 4299.723017827975 -485.796018158675 1825.421828896404
          699.0695104771185 1662.6026353337347 -556.9547349136628 99.2507120134278 -164.82808118365438 23902.446749559393
          -33104.79900556379
        </DataArray>
        <DataArray type="Float64" Name="Dev strain" NumberOfComponents="6" format="ascii" RangeMin="0" RangeMax="0">
          0 0 0 0 0 0
          0 0 0 0 0 0
          0 0 0 0 0 0
          0 0 0 0 0 0
          0 0 0 0 0 0
          0 0 0 0 0 0
          0 0 0 0 0 0
          0 0 0 0 0 0
          0 0 0 0 0 0
          0 0 0 0 0 0
          0 0 0 0 0 0
          0 0 0 0 0 0
          0 0 0 0 0 0
          <InformationKey name="L2_NORM_RANGE" location="vtkDataArray" length="2">
            <Value index="0">
              0
            </Value>
            <Value index="1">
              0
            </Value>
          </InformationKey>
        </DataArray>
        <DataArray type="Float64" Name="J2 Stresses" format="ascii" RangeMin="43596.98955991464" RangeMax="855079046.5673649">
          183784395.1384668 69572557.49383768 25378839.729680344 10908031.224563953 485531.58099891315 3461602.9521618653
          931418.8984059698 1712890.722171477 288776.1863486145 393571.3163544345 43596.98955991464 325183038.2721163
          855079046.5673649
        </DataArray>
      </PointData>
      <CellData>
        <DataArray type="UInt8" Name="vtkGhostType" format="ascii" RangeMin="0" RangeMax="1">
          1 1 0 0 0 0
          0 0 0 0 0
        </DataArray>
        <DataArray type="Float64" Name="Gauss Stress" NumberOfComponents="6" format="ascii" RangeMin="406.1217599434289" RangeMax="16721.12688682377">
          -16678.4862124083 339.6791277067921 0 1144.0280232439154 0 0
          9974.080638123953 3083.2977442157407 0 -5717.0066734377 0 0
          -6800.926266882146 330.33081500493165 0 423.9468433084128 0 0
          -1455.7804749304391 405.389140191573 0 -340.3555401075714 0 0
          5032.310283447954 1567.4818572571944 0 -3092.872751579439 0 0
          1379.1750426085 -20.044828468701496 0 -213.63146382709573 0 0
          3193.5205091696444 566.0453765417643 0 -1338.3699643780851 0 0
          1179.7743440724787 23.370596522717577 0 -63.33912868376891 0 0
          2760.5085830047183 30.887400131097237 0 -342.91925178027543 0 0
          -171.5383236744751 -243.48307904402114 0 -276.0896188373298 0 0
          803.3952416375106 -0.12950002268563132 0 -328.5539455437638 0 0
          <InformationKey name="L2_NORM_RANGE" location="vtkDataArray" length="2">
            <Value index="0">
              406.12175994
            </Value>
            <Value index="1">
              16721.126887
            </Value>
          </InformationKey>
        </DataArray>
        <DataArray type="Float64" Name="Gauss Strain" NumberOfComponents="6" format="ascii" RangeMin="0" RangeMax="0">
          0 0 0 0 0 0
          0 0 0 0 0 0
          0 0 0 0 0 0
          0 0 0 0 0 0
          0 0 0 0 0 0
          0 0 0 0 0 0
          0 0 0 0 0 0
          0 0 0 0 0 0
          0 0 0 0 0 0
          0 0 0 0 0 0
          0 0 0 0 0 0
          <InformationKey name="L2_NORM_RANGE" location="vtkDataArray" length="2">
            <Value index="0">
              0
            </Value>
            <Value index="1">
              0
            </Value>
          </InformationKey>
        </DataArray>
      </CellData>
      <Points>
        <DataArray type="Float32" Name="Points" NumberOfComponents="3" format="ascii" RangeMin="0.4000000059604645" RangeMax="1.0012492197622458">
          0.5 0 0 0.6000000238418579 0.05000000074505806 0
          0.6000000238418579 0 0 0.699999988079071 0.05000000074505806 0
          0.699999988079071 0 0 0.800000011920929 0.05000000074505806 0
          0.800000011920929 0 0 0.8999999761581421 0.05000000074505806 0
          0.8999999761581421 0 0 1 0.05000000074505806 0
          1 0 0 0.5 0.05000000074505806 0
          0.4000000059604645 0 0
          <InformationKey name="L2_NORM_RANGE" location="vtkDataArray" length="2">
            <Value index="0">
              0.40000000596
            </Value>
            <Value index="1">
              1.0012492198
            </Value>
          </InformationKey>
        </DataArray>
      </Points>
      <Cells>
        <DataArray type="Int64" Name="connectivity" format="ascii" RangeMin="0" RangeMax="12">
          0 11 12 1 11 0
          2 1 0 4 3 2
          3 1 2 6 5 4
          5 3 4 8 7 6
          7 5 6 10 9 8
          9 7 8
        </DataArray>
        <DataArray type="Int64" Name="offsets" format="ascii" RangeMin="3" RangeMax="33">
          3 6 9 12 15 18
          21 24 27 30 33
        </DataArray>
        <DataArray type="UInt8" Name="types" format="ascii" RangeMin="5" RangeMax="5">
          5 5 5 5 5 5
          5 5 5 5 5
        </DataArray>
      </Cells>
    </Piece>
  </UnstructuredGrid>
</VTKFile>
