<?xml version="1.0"?>
<VTKFile type="UnstructuredGrid" version="0.1" byte_order="LittleEndian" header_type="UInt32" compressor="vtkZLibDataCompressor">
  <UnstructuredGrid>
    <Piece NumberOfPoints="33" NumberOfCells="46">
      <PointData>
        <DataArray type="Float64" Name="proc" format="ascii" RangeMin="0" RangeMax="1">
          1 1 1 1 1 1
          1 1 1 1 1 1
          1 1 1 1 1 1
          1 1 1 1 1 1
          1 1 1 1 0 0
          0 0 0
        </DataArray>
        <DataArray type="Float64" Name="Displacement" NumberOfComponents="3" format="ascii" RangeMin="0" RangeMax="1.0031989786934914e-9">
          9.996433149364095e-11 -9.6689127269943e-10 0 1.481640435095394e-10 -7.504680376456968e-10 0
          2.039157323864744e-10 -9.171953149139234e-10 0 6.762586780903659e-11 -8.314557617038216e-10 0
          1.2793358904886804e-10 -6.080124343543923e-10 0 2.0793376458983918e-10 -6.609445000721422e-10 0
          2.701756151756104e-10 -7.832748342639835e-10 0 1.6463295623108426e-10 -6.794556163656327e-10 0
          1.409450538794953e-10 -6.00316202146182e-10 0 1.2799877987925287e-10 -5.926106115753249e-10 0
          3.3329878537185056e-10 -6.333806720180928e-10 0 2.967643421860528e-11 -6.082056557717878e-10 0
          3.3048763421747284e-10 -5.914837426941006e-10 0 1.7060996882289977e-10 -5.097325750464348e-10 0
          1.4249447760179122e-10 -5.838164490206327e-10 0 1.2837703847257271e-10 -5.750942276390407e-10 0
          5.423041529042253e-10 -4.685814501573406e-10 0 7.88268549969955e-12 -3.144095689574674e-10 0
          3.2943864364891877e-10 -3.091973390582077e-10 0 1.4371184852015582e-10 -5.654783277049402e-10 0
          3.716385824979821e-10 -4.1004882124561164e-10 0 5.707008347356844e-10 -2.213545441824641e-10 0
          4.843702555191149e-10 -2.1428958443031105e-10 0 0 0 0
          2.430167780973696e-10 -8.608798940703215e-12 0 4.807328332047866e-10 -1.0411905807739788e-11 0
          7.18637922655063e-10 -1.113993241335896e-11 0 5.609182863708722e-10 -8.768796326511653e-11 0
          1.2795797988398382e-10 -6.208869241847341e-10 0 1.3902027766297533e-10 -6.144828019048866e-10 0
          6.849409111289816e-11 -7.716478415145207e-10 0 1.5167972918458544e-10 -9.866106750691258e-10 0
          1.3413377558466314e-10 -9.941912899935643e-10 0
          <InformationKey name="L2_NORM_RANGE" location="vtkDataArray" length="2">
            <Value index="0">
              0
            </Value>
            <Value index="1">
              1.0031989787e-09
            </Value>
          </InformationKey>
        </DataArray>
        <DataArray type="Float64" Name="TopologicalDerivative1" format="ascii" RangeMin="-0.05366788237353364" RangeMax="0.35997851340994386">
          0.1768963993400965 -0.03861072207094663 0.1048626188433564 0.13079639527270093 -0.04732924874801564 -0.03788207403453808
          0.09003753395567382 0.12972160477081754 -0.053570213044029744 -0.04668289431654951 -0.031531413418073945 0.11409338257229867
          0.053187659290914464 0.002037947079185108 -0.05366788237353364 -0.019401772980630817 -0.01403750492816238 -0.01574517175815421
          -0.03460436316668872 -0.006246437975669407 0.0019106088696848392 -0.03326901211176961 -0.006458599397395598 -0.018353625142744814
          -0.03735896736290657 -0.05076979044918969 -0.023961635748417313 -0.03135806877596163 -0.04744534975504219 -0.053468918745032755
          -0.03704618700985319 0.15746790204544436 0.35997851340994386
        </DataArray>
      </PointData>
      <CellData>
        <DataArray type="UInt8" Name="vtkGhostType" format="ascii" RangeMin="0" RangeMax="1">
          1 1 1 0 0 1
          1 1 1 0 0 0
          1 0 0 0 0 0
          0 0 0 0 0 0
          0 0 0 0 0 0
          0 0 0 0 0 0
          0 0 0 0 0 0
          0 0 0 0
        </DataArray>
        <DataArray type="Float64" Name="Stress" NumberOfComponents="6" format="ascii" RangeMin="5.964333996295081e-7" RangeMax="2.1928622361024614">
          1.7033166171065017e-7 -4.0786119892929367e-7 0 -4.004611936510956e-7 0 0
          -0.000410285121522649 0.0018191810241234862 0 0.000006857132376616756 0 0
          0.0006216597661041141 0.0020712235869424145 0 -0.00016717165107575681 0 0
          -0.00034190220841566097 0.0012511148151597878 0 -0.0006802694709453428 0 0
          0.0010608789451519995 1.2883076126341202 0 -0.27695993401775565 0 0
          -0.14747268164660565 1.5813846131686378 0 -0.19211339409821165 0 0
          0.08973654702007139 2.1522884554552872 0 -0.400014345385964 0 0
          -0.589497398972092 -0.025460918291789644 0 0.0027394972407634843 0 0
          0.33378878082851005 0.019207058515656378 0 0.04313724793199348 0 0
          0.3138395358048041 0.011300948108674574 0 -0.04459002999367276 0 0
          -0.000022146745385654117 -0.000028281306020135098 0 -0.000026537895130007006 0 0
          -0.0000012129241543831075 0.000006552200634383817 0 -0.00004327640350584965 0 0
          -0.000022581761271841392 0.0000017185110879948908 0 -0.0000011701126151201967 0 0
          -8.810340176776534e-7 -3.2914684353240895e-7 0 -0.0000019159167625215747 0 0
          -0.00001794563768163588 0.0000021581566197168366 0 -0.0000030282617840584166 0 0
          0.0002761145740606038 0.000922989546750739 0 -0.0004972635252626888 0 0
          -0.0014039691761084786 0.0003347035775855263 0 -0.0008872815055338955 0 0
          0.0002212593138429454 0.0007526613898759452 0 -0.0011739601051141864 0 0
          -0.000004823710109548392 -9.486899657008906e-7 0 -0.000004599607826538887 0 0
          -0.0027348770816719623 -0.0010771448981869883 0 -0.00233667484655785 0 0
          -0.1918237508878062 2.1188741114817353 0 -0.5312447033261669 0 0
          -0.000014012060475480408 0.000001987968482982227 0 -0.000006156264688123621 0 0
          -0.03825724594977466 -0.013393522096741871 0 -0.026467867528461628 0 0
          -0.5381611581234095 0.8226394639085618 0 -0.06515405232836177 0 0
          -0.07781818267109673 -0.04554723446111915 0 -0.029190786059438298 0 0
          -0.40898825951705337 0.6372344036318985 0 -0.5732618748596722 0 0
          -0.23944603672663273 -0.05662859659487182 0 -0.10490966375838531 0 0
          -1.154592571766536 -0.03402467070579756 0 -0.043158821343653155 0 0
          -0.5806779425418074 0.046008384683479675 0 0.03334403155336025 0 0
          -0.04949315625592525 -0.00008605150519731472 0 -0.022671817441470822 0 0
          -0.0839357294934342 -0.010419296207637409 0 0.01927150233892199 0 0
          -0.032078023505047654 -0.01794377740018248 0 -0.018547882675625134 0 0
          -0.0841648818123564 0.03410278859184554 0 -0.046912317581436026 0 0
          -0.005808121661961221 0.07902770996858917 0 -0.060377003270648225 0 0
          0.18756728699230202 0.0026293278013165555 0 -0.07894752569572802 0 0
          0.34858192894149165 -0.05244211175549639 0 0.03479006217444527 0 0
          0.00016115292057286535 0.00010443182723331835 0 -0.00016880650246532778 0 0
          0.010904058158797397 0.06205534749419363 0 -0.09640696671886594 0 0
          -0.000006568692489525012 0.00001031659440800799 0 -0.00001685459305379839 0 0
          -0.00006893047924755869 0.00002203668203446889 0 0.000007141056139869063 0 0
          -0.000010845740110707426 -0.000011990041300642294 0 -0.000015464384556030492 0 0
          -0.015440838777012047 -0.0065273821045110135 0 -0.007870976571519028 0 0
          -0.006138919330521438 -0.006436944300250076 0 -0.016093331290366573 0 0
          -0.0013122519574586974 -0.0013122519574587 0 -0.0013122519574587013 0 0
          0.000049101213857784715 -0.00008857522313110318 0 -0.000039280971085866115 0 0
          -0.47400950682708787 -0.022051489914206523 0 0.004422028763947971 0 0
          <InformationKey name="L2_NORM_RANGE" location="vtkDataArray" length="2">
            <Value index="0">
              5.9643339963e-07
            </Value>
            <Value index="1">
              2.1928622361
            </Value>
          </InformationKey>
        </DataArray>
        <DataArray type="Float64" Name="Strain" NumberOfComponents="6" format="ascii" RangeMin="4.895448466312578e-15" RangeMax="2.7313424085180002e-11">
          1.2195417557893261e-15 -1.9123362393437026e-15 0 -4.33832959788687e-15 0 0
          -3.983497619832062e-12 8.092777335751171e-12 0 7.428560074668152e-14 0 0
          1.2195417557893261e-15 7.853023571296588e-12 0 -1.8110262199873655e-12 0 0
          -2.9884860540149877e-12 5.640356157018692e-12 0 -7.369585935241214e-12 0 0
          -2.9884860540149898e-12 9.986571303409274e-12 0 -5.583344568745463e-12 0 0
          -3.983497619832062e-12 1.0412933329531889e-11 0 -3.1995089714775016e-12 0 0
          -2.4459454294589743e-12 9.350720385789169e-12 0 -4.575725376437654e-12 0 0
          -2.4244130145189797e-12 6.307845891659915e-13 0 2.9677886774937745e-14 0 0
          1.3667777636408877e-12 -3.372065655537359e-13 0 4.673201859299292e-13 0 0
          1.2935385473841743e-12 -3.452121359698612e-13 0 -4.830586582647882e-13 0 0
          -5.692647324838992e-14 -9.015534335182857e-14 0 -2.874938639084093e-13 0 0
          -1.324410143624272e-14 2.881699116957811e-14 0 -4.688277046467043e-13 0 0
          -9.623881082599942e-14 3.538766445644712e-14 0 -1.2676219997135465e-14 0 0
          -3.2595415192413775e-15 -2.701526592879704e-16 0 -2.075576492731706e-14 0 0
          -7.747118611479554e-14 3.1424366350865e-14 0 -3.2806169327299516e-14 0 0
          -3.2595415192413775e-15 3.5006465605523237e-12 0 -5.3870215236791306e-12 0 0
          -6.2682510391005665e-12 3.14955971007529e-12 0 -9.612216309950536e-12 0 0
          -1.8912929665992185e-14 2.859514982179422e-12 0 -1.2717901138737019e-11 0 0
          -1.8912929665992185e-14 2.0767627798484454e-15 0 -4.9829084787504596e-14 0 0
          -1.004889005089944e-11 -1.069507390355831e-12 0 -2.5313977504376703e-11 0 0
          -3.74162025923504e-12 9.841063107088881e-12 0 -6.245497269743896e-12 0 0
          -6.086854591822949e-14 2.5798277606776456e-14 0 -6.669286745467255e-14 0 0
          -1.2163077201270468e-11 -6.807606407589733e-13 0 -2.4446252334515796e-11 0 0
          -6.268251039100571e-12 7.858444349257311e-12 0 -1.3527498968739776e-12 0 0
          -1.2163077201270468e-11 -4.209276243034352e-12 0 -1.4389270536490818e-11 0 0
          -2.7675587836291935e-12 3.5043294455353055e-12 0 -6.87317247427905e-12 0 0
          -1.7032920349947958e-11 1.1642190322341653e-12 0 -2.088483213169702e-11 0 0
          -9.589864605615935e-12 2.617496296807001e-12 0 -9.403362487296706e-13 0 0
          -2.4770019081118803e-12 9.175490310250908e-13 0 3.612270084947361e-13 0 0
          -1.1552253097772632e-11 3.4473886965090732e-12 0 -1.3766001556381439e-11 0 0
          -7.016931253491013e-13 1.281771612036605e-13 0 4.3508223817471824e-13 0 0
          -1.112287095208038e-13 -3.466820978611742e-14 0 -2.009353956526056e-13 0 0
          -6.26167369263078e-13 3.937090033280329e-13 0 -8.090928674130257e-13 0 0
          -1.229851443855749e-13 3.3654227694657307e-13 0 -6.540842020986893e-13 0 0
          8.717499487562291e-13 -2.503576070703299e-13 0 -9.580252262382043e-13 0 0
          1.517977343617252e-12 -6.542362101580995e-13 0 3.768923402231571e-13 0 0
          7.342243679821288e-14 3.171976756464681e-14 0 -2.48220946470315e-13 0 0
          -3.2135608706086233e-14 2.4493387519397674e-13 0 -1.0444088061210478e-12 0 0
          -4.026529504969754e-14 5.1196675645272896e-14 0 -1.8259142474948254e-13 0 0
          -3.147561827412473e-13 1.7798260753640202e-13 0 7.73614415152482e-14 0 0
          -3.020303216881141e-14 -3.6401330280958607e-14 0 -1.6753083269033033e-13 0 0
          -1.1220547187554913e-11 -1.5771707830219995e-12 0 -1.7031055972838504e-11 0 0
          -2.3377089477469142e-12 -2.5529512531021723e-12 0 -2.324614431427333e-11 0 0
          -3.827401542587863e-12 -3.827401542587877e-12 0 -1.4216062872469263e-11 0 0
          3.15307419987982e-13 -4.3043994703516073e-13 0 -4.2554385343021624e-13 0 0
          -1.947475249386774e-12 5.006306755579992e-13 0 4.7905311609436335e-14 0 0
          <InformationKey name="L2_NORM_RANGE" location="vtkDataArray" length="2">
            <Value index="0">
              4.8954484663e-15
            </Value>
            <Value index="1">
              2.7313424085e-11
            </Value>
          </InformationKey>
        </DataArray>
      </CellData>
      <Points>
        <DataArray type="Float32" Name="Points" NumberOfComponents="3" format="ascii" RangeMin="0" RangeMax="128.28654354956544">
          100 0 0 100 45.35898208618164 0
          89.30555725097656 23.870376586914062 0 75 0 0
          90 62.67949295043945 0 80 45.35898208618164 0
          70 28.038475036621094 0 57 13.358983993530273 0
          80 80 0 70 62.67949295043945 0
          60 45.35898208618164 0 50 0 0
          48.827545166015625 28.876956939697266 0 41.327545166015625 13.757295608520508 0
          60 80 0 50 62.67949295043945 0
          38.48822784423828 45.76527404785156 0 25 0 0
          24.63772964477539 27.38901710510254 0 40 80 0
          30 62.67949295043945 0 17.464101791381836 47.607696533203125 0
          20 80 0 0 0 0
          0 20 0 0 40 0
          0 60 0 0 80 0
          110 62.67949295043945 0 100 80 0
          120 45.35898208618164 0 110.71759033203125 23.771137237548828 0
          125 0 0
          <InformationKey name="L2_NORM_RANGE" location="vtkDataArray" length="2">
            <Value index="0">
              0
            </Value>
            <Value index="1">
              128.28654355
            </Value>
          </InformationKey>
        </DataArray>
      </Points>
      <Cells>
        <DataArray type="Int64" Name="connectivity" format="ascii" RangeMin="0" RangeMax="32">
          28 29 4 30 28 1
          1 28 4 4 5 1
          1 5 2 31 30 1
          31 1 2 31 2 0
          0 32 31 3 0 2
          25 24 18 18 24 17
          4 29 8 4 8 9
          9 8 14 4 9 5
          5 9 10 10 9 15
          15 9 14 10 15 16
          2 5 6 15 14 19
          16 15 20 6 5 10
          15 19 20 6 10 12
          20 19 22 12 10 16
          6 12 7 20 22 26
          12 16 18 7 12 13
          13 12 18 7 13 11
          11 13 17 7 11 3
          17 13 18 7 3 6
          25 18 21 21 18 16
          25 21 26 26 21 20
          20 21 16 27 26 22
          24 23 17 2 6 3
        </DataArray>
        <DataArray type="Int64" Name="offsets" format="ascii" RangeMin="3" RangeMax="138">
          3 6 9 12 15 18
          21 24 27 30 33 36
          39 42 45 48 51 54
          57 60 63 66 69 72
          75 78 81 84 87 90
          93 96 99 102 105 108
          111 114 117 120 123 126
          129 132 135 138
        </DataArray>
        <DataArray type="UInt8" Name="types" format="ascii" RangeMin="5" RangeMax="5">
          5 5 5 5 5 5
          5 5 5 5 5 5
          5 5 5 5 5 5
          5 5 5 5 5 5
          5 5 5 5 5 5
          5 5 5 5 5 5
          5 5 5 5 5 5
          5 5 5 5
        </DataArray>
      </Cells>
    </Piece>
  </UnstructuredGrid>
</VTKFile>
