<?xml version="1.0"?>
<VTKFile type="UnstructuredGrid" version="0.1" byte_order="LittleEndian" header_type="UInt32" compressor="vtkZLibDataCompressor">
  <UnstructuredGrid>
    <Piece NumberOfPoints="32" NumberOfCells="44">
      <PointData>
        <DataArray type="Float64" Name="proc" format="ascii" RangeMin="0" RangeMax="1">
          0 0 0 0 0 0
          0 0 0 0 0 0
          0 0 0 0 0 0
          0 0 0 0 0 0
          0 0 0 1 1 1
          1 1
        </DataArray>
        <DataArray type="Float64" Name="Displacement" NumberOfComponents="3" format="ascii" RangeMin="1.9710951201477385e-11" RangeMax="7.006486059505589e-11">
          5.592290311104484e-11 0 0 3.609358317628037e-11 -9.238214019971885e-12 0
          4.990995064096213e-11 -3.06120721186688e-11 0 3.224996141451689e-11 -3.5432599437167314e-11 0
          2.7147083832051544e-11 -1.4736748022920492e-11 0 3.791231895888364e-11 -4.560402609985397e-11 0
          2.3326375111197146e-11 -2.885558728153104e-11 0 4.3814152239286137e-11 -5.147521140273113e-11 0
          3.108711523489307e-11 -4.8737625142866916e-11 0 3.619262555562108e-11 -5.3346224901339526e-11 0
          1.7414370418445986e-11 -1.7603537850123975e-11 0 2.4376163902729634e-11 -4.182073527157697e-11 0
          1.7306271549497408e-11 -3.4159366910291924e-11 0 3.590258375742565e-11 -5.7338560797962546e-11 0
          2.5891272497128548e-11 -5.231388649744328e-11 0 3.052059828100459e-11 -5.685343943237841e-11 0
          7.944738984532325e-12 -1.8038922355137376e-11 0 1.9555767930476427e-11 -4.65236238969701e-11 0
          8.380123489545768e-12 -2.912569623624352e-11 0 1.0668271712821885e-11 -4.024297961695059e-11 0
          2.7112893081493692e-11 -5.906931800278274e-11 0 2.9006919206442878e-11 -6.169664638456577e-11 0
          2.2687542264316092e-11 -5.51524712627875e-11 0 1.5176166578457112e-11 -5.005055535188215e-11 0
          2.6277835989488263e-11 -5.971546255386515e-11 0 2.126633853389866e-11 -5.653718364451743e-11 0
          2.8121142086272242e-11 -5.879998468836872e-11 0 2.997423651288296e-11 -5.972483117246574e-11 0
          2.8134129382209348e-11 -6.128539311620241e-11 0 2.733312706254047e-11 -6.171799466703033e-11 0
          2.8179160407320005e-11 -6.414841860048573e-11 0 3.4979052741695814e-11 -5.654691181634217e-11 0
          <InformationKey name="L2_NORM_RANGE" location="vtkDataArray" length="2">
            <Value index="0">
              1.9710951201e-11
            </Value>
            <Value index="1">
              7.0064860595e-11
            </Value>
          </InformationKey>
        </DataArray>
        <DataArray type="Float64" Name="TopologicalDerivative1" format="ascii" RangeMin="-0.07038875354722311" RangeMax="0.28499940115586253">
          0.28499940115586253 0.0617062336016274 0.05716892138914477 -0.026154086738494987 0.013796687331350518 -0.008402015996086906
          -0.008306908368816562 0.05727842979914689 -0.04550672031427063 0.001279412306143965 -0.054368687359574175 -0.0363168299244239
          -0.047076958673301875 0.03185835702416849 -0.047589387705164604 -0.04585433618532497 -0.07038875354722311 -0.027722952183650847
          -0.0641107864725747 -0.03116645986376397 -0.05377200098490313 -0.02264972524075594 -0.014388973738248531 0.014444877100922238
          -0.005128109317244875 0.054623713928003984 0.07828781331444189 0.00018682195660572887 -0.06007846800647101 -0.021999868957013655
          0.055122921578820275 0.07776590860051617
        </DataArray>
      </PointData>
      <CellData>
        <DataArray type="UInt8" Name="vtkGhostType" format="ascii" RangeMin="0" RangeMax="0">
          0 0 0 0 0 0
          0 0 0 0 0 0
          0 0 0 0 0 0
          0 0 0 0 0 0
          0 0 0 0 0 0
          0 0 0 0 0 0
          0 0 0 0 0 0
          0 0
        </DataArray>
        <DataArray type="Float64" Name="Stress" NumberOfComponents="6" format="ascii" RangeMin="0.000012135881447193848" RangeMax="0.10840596675582825">
          0.02688656400098386 -0.10279259903936747 0 0.02150925120078724 0 0
          -0.08061561547946441 0.00402820063753722 0 0.0019908887961721296 0 0
          -0.04190110735730919 -0.0005757153863718209 0 0.000016140228262162547 0 0
          -0.031305029012374315 -0.0003968158555875695 0 0.002836608407097799 0 0
          -0.00003987417348402121 0.000010697837393482795 0 0.000007042584798122277 0 0
          -0.000011356903783632007 0.000002993106083186198 0 0.000003056414717354734 0 0
          -0.000046121384097934334 0.000010213238873444434 0 1.201448114807693e-10 0 0
          -0.0000074637343716588625 -0.00000746373437165849 0 0.0000074637343716576004 0 0
          -0.06435464716987341 0.003770257477236222 0 0.0054979373859045865 0 0
          -0.006501087233951475 -0.00006870556247904084 0 0.001403590264536963 0 0
          -0.00003455642290226938 0.000010082897012688669 0 0.00001440631197329461 0 0
          -0.0058139856947823434 0.00034253915625586696 0 0.0010842575401107666 0 0
          -0.000013646507238208045 0.0000033764659139124223 0 0.000010849751601418361 0 0
          -0.000017495866780174797 0.000002284787842040447 0 0.000018702872564848065 0 0
          -0.000027224853470544714 -3.0653418071162907e-7 0 0.00001139860384211623 0 0
          -0.000010801956615100461 0.00001285830132427104 0 0.000009762689923008706 0 0
          -0.00002460259714781341 0.000006694270995173176 0 0.0000211887943819109 0 0
          -0.000028385548707146512 -0.000003092566759443631 0 0.000009888649834363973 0 0
          0.000029738442022389955 0.000012556437771782844 0 0.000010481937036321393 0 0
          -0.000013382140084833797 -0.000002615581954813135 0 0.000024513734580786868 0 0
          -0.000007607134809557692 0.000015492335996767234 0 0.000004156034709239229 0 0
          0.007440138826369283 0.0005811384018807194 0 0.00095617588722771 0 0
          -0.000012615316847718222 -5.950449776122313e-8 0 0.000021007648789246005 0 0
          0.00002216444090674429 0.0000113510006601823 0 -4.9540687693611216e-8 0 0
          0.0000030573691613527257 0.000005725007629746603 0 0.00002458260237375068 0 0
          0.002963075434963539 -0.012494281024010699 0 0.022804113307504634 0 0
          -0.000012349381448627997 0.000019439738947196437 0 0.000016701971235542808 0 0
          0.000007132515809967281 0.000027384455922177413 0 0.000018566796619736317 0 0
          0.00000967073341432168 0.000009575099892199529 0 0.000011276541110401751 0 0
          0.00013954219413295755 0.00008622511332071555 0 0.000049271466484087974 0 0
          0.000027855396588879538 0.000053386735206446375 0 0.000004790206061537668 0 0
          0.021350916522368528 0.003586766005999856 0 0.0009508692376381058 0 0
          0.08295816547839267 0.023357026841773425 0 -0.013024020893061702 0 0
          0.03458579548954335 0.044222460712348186 0 0.0034376339453559297 0 0
          0.06342617689050273 0.019549266383074738 0 0.024058435742409387 0 0
          0.02532703439673441 0.0014698585345427374 0 0.0075444086848247775 0 0
          -0.00000839397927239235 -3.778005385026239e-7 0 0.000009121035238079002 0 0
          0.0005918112613122572 -0.0041986147560649925 0 0.0021241686052423875 0 0
          0.014565397197896814 0.016841027912398422 0 0.00004916738584847609 0 0
          -0.002848205009553441 -0.06389766375788392 0 0.016311870443391503 0 0
          -0.000008788120198047988 -0.000009065441339051934 0 0.000019657414351885842 0 0
          0.07025937506745616 0.016927186891087603 0 0.013627004463818138 0 0
          -0.001088870051274039 -0.006541592924569023 0 0.015229036303907695 0 0
          -0.08106317495919554 0.004105843019624442 0 -0.0020004251246233933 0 0
          <InformationKey name="L2_NORM_RANGE" location="vtkDataArray" length="2">
            <Value index="0">
              1.2135881447e-05
            </Value>
            <Value index="1">
              0.10840596676
            </Value>
          </InformationKey>
        </DataArray>
        <DataArray type="Float64" Name="Strain" NumberOfComponents="6" format="ascii" RangeMin="6.644402401701159e-14" RangeMax="5.705324895622948e-13">
          2.4051809880330874e-13 -4.619107009985943e-13 0 2.3301688800852834e-13 0 0
          -3.4274017761867904e-13 1.1817657863178237e-13 0 2.16822456284016e-14 0 0
          -1.8482002616973477e-13 5.312558785713288e-14 0 1.85866187407246e-16 0 0
          -1.7951468625860846e-13 5.177580580380877e-14 0 4.2453476746647775e-14 0 0
          -1.7951468625860846e-13 9.441703932787144e-14 0 7.629466864632468e-14 0 0
          -5.1061815035782775e-14 2.6667405076149168e-14 0 3.3111159438009625e-14 0 0
          -1.8482002616973477e-13 9.036953442705074e-14 0 1.1737931714276046e-18 0 0
          -2.1769225250672145e-14 -2.1769225250670132e-14 0 8.085712235962401e-14 0 0
          -3.0450859777207745e-13 1.073064227594868e-13 0 6.64700584664558e-14 0 0
          -1.5658871669198323e-13 4.5465884918044424e-14 0 8.817942908534226e-14 0 0
          -1.5658871669198323e-13 8.520759951403949e-14 0 1.5606837971069164e-13 0 0
          -2.2539474328176127e-13 7.949284193075935e-14 0 1.0739066962333215e-13 0 0
          -6.108102921825738e-14 3.112674202239515e-14 0 1.1753897568203226e-13 0 0
          -7.575542971994554e-14 3.138978281705369e-14 0 2.0261445278585406e-13 0 0
          -1.1305372173471343e-13 3.275384108521578e-14 0 1.2348487495625915e-13 0 0
          -6.108102921825738e-14 6.707870128667158e-14 0 1.0576247416592766e-13 0 0
          -1.10878660193189e-13 5.864604224798833e-14 0 2.2954527247070137e-13 0 0
          -1.1440741116380593e-13 2.2596241052918015e-14 0 1.0712703987227637e-13 0 0
          1.0821462787856293e-13 1.514543818777441e-14 0 1.1355431789348174e-13 0 0
          -5.2489439576624397e-14 5.829416960987516e-15 0 2.6556545795852444e-13 0 0
          -5.1061815035782775e-14 7.406031849847729e-14 0 4.5023709350091643e-14 0 0
          1.2595113181527322e-13 -2.861807501688292e-14 0 4.309530232806207e-14 0 0
          -5.2489439576624397e-14 1.552121065230935e-14 0 2.2758286188349827e-13 0 0
          7.816308628620667e-14 1.9590284950662557e-14 0 -5.36690783347455e-16 0 0
          5.58277863511977e-15 2.0032487005586604e-14 0 2.6631152571563237e-13 0 0
          4.514881034532495e-14 -9.003178891060205e-14 0 3.988616954768868e-13 0 0
          -7.575542971994554e-14 9.643563909077013e-14 0 1.8093802171838042e-13 0 0
          -4.511754027858097e-15 1.0518625491328011e-13 0 2.011402967138101e-13 0 0
          2.8325847694424247e-14 2.7807832782929273e-14 0 1.2216252869601897e-13 0 0
          1.0273860868475989e-13 4.009457259306345e-14 0 1.1578141479986356e-13 0 0
          2.8325847694424247e-14 1.0773508765023193e-13 0 2.979762465855855e-14 0 0
          1.98055271914589e-13 -2.7532610382498692e-14 0 2.41502769820119e-14 0 0
          3.1646273927441935e-13 -6.376761673934918e-15 0 -1.410935596748351e-13 0 0
          9.991008209369673e-14 1.5861999601631512e-13 0 4.188652160535997e-14 0 0
          2.4383193606703973e-13 2.2087236410679854e-15 0 2.64972007499966e-13 0 0
          1.732247397551951e-13 -4.2656977534077904e-14 0 1.3653752751122616e-13 0 0
          -3.450266296183984e-14 8.918305180062838e-15 0 9.881121507918919e-14 0 0
          6.064180225883281e-14 -1.4333949136017412e-13 0 1.8089859164527903e-13 0 0
          7.816866168595385e-14 1.0247705551588882e-13 0 1.0504166349810287e-15 0 0
          7.117507341163762e-14 -2.7492670014743034e-13 0 1.8495060910520945e-13 0 0
          -2.5285365818051693e-14 -2.6787521998489738e-14 0 2.129553221454299e-13 0 0
          3.089369340042258e-13 -1.9672561755345114e-14 0 1.6792722064056923e-13 0 0
          4.01478953502873e-15 -2.856160721614043e-14 0 1.8196674956791533e-13 0 0
          -3.428955327711785e-13 1.184366479474296e-13 0 -2.16712721834201e-14 0 0
          <InformationKey name="L2_NORM_RANGE" location="vtkDataArray" length="2">
            <Value index="0">
              6.6444024017e-14
            </Value>
            <Value index="1">
              5.7053248956e-13
            </Value>
          </InformationKey>
        </DataArray>
      </CellData>
      <Points>
        <DataArray type="Float32" Name="Points" NumberOfComponents="3" format="ascii" RangeMin="92.44066980668491" RangeMax="215.40659228538016">
          200 0 0 200 20 0
          175 0 0 170.3333282470703 25.352571487426758 0
          200 40 0 157 13.358983993530273 0
          180 45.35898208618164 0 150 0 0
          150 28.038475036621094 0 142.39999389648438 13.887187004089355 0
          200 60 0 160 45.35898208618164 0
          171.6666717529297 62.23291015625 0 125 0 0
          140 45.35898208618164 0 130 28.038475036621094 0
          200 80 0 150 62.67949295043945 0
          180 80 0 160 80 0
          120 45.35898208618164 0 110.71759033203125 23.771137237548828 0
          130 62.67949295043945 0 140 80 0
          110 62.67949295043945 0 120 80 0
          100 80 0 90 62.67949295043945 0
          100 45.35898208618164 0 89.30555725097656 23.870376586914062 0
          100 0 0 80 80 0
          <InformationKey name="L2_NORM_RANGE" location="vtkDataArray" length="2">
            <Value index="0">
              92.440669807
            </Value>
            <Value index="1">
              215.40659229
            </Value>
          </InformationKey>
        </DataArray>
      </Points>
      <Cells>
        <DataArray type="Int64" Name="connectivity" format="ascii" RangeMin="0" RangeMax="31">
          0 1 2 25 26 24
          24 26 27 25 24 22
          22 24 20 20 24 28
          28 24 27 16 18 10
          25 22 23 23 22 17
          17 22 14 23 17 19
          14 22 20 17 14 11
          19 17 12 14 20 15
          17 11 12 19 12 18
          15 20 21 12 11 6
          21 20 28 15 21 13
          6 11 3 21 28 29
          3 11 8 6 3 1
          8 11 14 3 8 5
          8 14 15 5 8 9
          8 15 9 9 15 13
          9 13 7 9 7 5
          5 7 2 5 2 3
          18 12 10 4 10 6
          21 29 30 1 4 6
          12 6 10 30 13 21
          3 2 1 27 26 31
        </DataArray>
        <DataArray type="Int64" Name="offsets" format="ascii" RangeMin="3" RangeMax="132">
          3 6 9 12 15 18
          21 24 27 30 33 36
          39 42 45 48 51 54
          57 60 63 66 69 72
          75 78 81 84 87 90
          93 96 99 102 105 108
          111 114 117 120 123 126
          129 132
        </DataArray>
        <DataArray type="UInt8" Name="types" format="ascii" RangeMin="5" RangeMax="5">
          5 5 5 5 5 5
          5 5 5 5 5 5
          5 5 5 5 5 5
          5 5 5 5 5 5
          5 5 5 5 5 5
          5 5 5 5 5 5
          5 5 5 5 5 5
          5 5
        </DataArray>
      </Cells>
    </Piece>
  </UnstructuredGrid>
</VTKFile>
