<?xml version="1.0"?>
<VTKFile type="UnstructuredGrid" version="0.1" byte_order="LittleEndian" header_type="UInt32" compressor="vtkZLibDataCompressor">
  <UnstructuredGrid>
    <Piece NumberOfPoints="32" NumberOfCells="44">
      <PointData>
        <DataArray type="Float64" Name="proc" format="ascii" RangeMin="0" RangeMax="1">
          0 0 0 0 0 0
          0 0 0 0 0 0
          0 0 0 0 0 0
          0 0 0 0 0 0
          0 0 0 1 1 1
          1 1
        </DataArray>
        <DataArray type="Float64" Name="Displacement" NumberOfComponents="3" format="ascii" RangeMin="9.649575391767106e-11" RangeMax="1.0031989786934914e-9">
          2.453578802115824e-10 0 0 -9.613117321800449e-11 -8.380218366471397e-12 0
          2.3679617594726637e-10 -4.39247882219874e-10 0 -1.7896643587710494e-10 -5.098503653898249e-10 0
          -4.2655503590478523e-10 -1.0558908002357524e-11 0 3.034986602473949e-11 -7.282953078831254e-10 0
          -5.154410723011499e-10 -3.4393663986330957e-10 0 1.9466665166820288e-10 -8.255945082834622e-10 0
          -7.214963185645667e-11 -7.781230826649362e-10 0 6.913525530034555e-11 -8.931425977661197e-10 0
          -7.446452539829261e-10 -1.5773213696936115e-11 0 -2.363872740520355e-10 -6.272268407583781e-10 0
          -2.424663219728136e-10 -4.4952182873067077e-10 0 1.3413377558466314e-10 -9.941912899935643e-10 0
          -5.633664971577179e-11 -7.261007339801236e-10 0 6.923127097088127e-11 -9.3721252909921e-10 0
          -4.449290241440568e-10 -1.2290687700977605e-10 0 1.2540621992386456e-10 -6.376522257436654e-10 0
          -3.3779536083121635e-10 -2.2111568233288453e-10 0 1.255905343774444e-10 -6.319198188611411e-10 0
          6.849409111289816e-11 -7.716478415145207e-10 0 1.5167972918458544e-10 -9.866106750691258e-10 0
          1.278198546455089e-10 -6.309752364744021e-10 0 1.351580646252741e-10 -6.346189282107434e-10 0
          1.2795797988398382e-10 -6.208869241847341e-10 0 1.370122056894239e-10 -6.259267242915194e-10 0
          1.3902027766297533e-10 -6.144828019048866e-10 0 1.2793358904886804e-10 -6.080124343543923e-10 0
          1.481640435095394e-10 -7.504680376456968e-10 0 2.039157323864744e-10 -9.171953149139234e-10 0
          9.996433149364095e-11 -9.6689127269943e-10 0 1.409450538794953e-10 -6.00316202146182e-10 0
          <InformationKey name="L2_NORM_RANGE" location="vtkDataArray" length="2">
            <Value index="0">
              9.6495753918e-11
            </Value>
            <Value index="1">
              1.0031989787e-09
            </Value>
          </InformationKey>
        </DataArray>
        <DataArray type="Float64" Name="TopologicalDerivative1" format="ascii" RangeMin="-0.053570213044029744" RangeMax="0.47438862901643736">
          -0.028251372379992836 -0.0409277593962257 0.03592298138321704 -0.03450394331779587 -0.05052393080225848 0.16145889878046743
          -0.021477093836004227 0.47438862901643736 -0.041320865502814996 0.318593296622301 0.0017386358971929333 -0.011838960030370639
          0.03573168184388389 0.35997851340994386 -0.03277595490859468 0.1729150521012381 -0.013619126982941418 -0.014886876648457427
          0.02909858207241036 0.024862669343670547 -0.03704618700985319 0.15746790204544436 -0.04642197858950881 -0.05162651638576996
          -0.04744534975504219 -0.053469970143310605 -0.053468918745032755 -0.04732924874801564 -0.03861072207094663 0.1048626188433564
          0.1768963993400965 -0.053570213044029744
        </DataArray>
      </PointData>
      <CellData>
        <DataArray type="UInt8" Name="vtkGhostType" format="ascii" RangeMin="0" RangeMax="0">
          0 0 0 0 0 0
          0 0 0 0 0 0
          0 0 0 0 0 0
          0 0 0 0 0 0
          0 0 0 0 0 0
          0 0 0 0 0 0
          0 0 0 0 0 0
          0 0
        </DataArray>
        <DataArray type="Float64" Name="Stress" NumberOfComponents="6" format="ascii" RangeMin="5.964333996295081e-7" RangeMax="6.405857528538486">
          0.015000914577741158 -0.021887059985206965 0 0.012000731662193507 0 0
          -0.000023363926703993473 0.000002443123262079329 0 7.862672478293279e-7 0 0
          1.7033166171065017e-7 -4.0786119892929367e-7 0 -4.004611936510956e-7 0 0
          -0.0000018015331336224695 -4.801009064115932e-7 0 0.000002060094236814049 0 0
          0.0006638194479299032 0.0022182565026386747 0 0.00026997657853176455 0 0
          -0.000410285121522649 0.0018191810241234862 0 0.000006857132376616756 0 0
          0.0006216597661041141 0.0020712235869424145 0 -0.00016717165107575681 0 0
          -1.3178519691840687 -1.3178519691840656 0 1.3178519691840669 0 0
          -0.000021241569568341105 0.00000336041067152165 0 0.000003931015035034054 0 0
          -0.000033222304599464434 -0.000014195626465774254 0 0.00001472288486551854 0 0
          0.00038745910843735577 0.0013880757503236265 0 0.0009441928269690748 0 0
          -0.021664960062452075 0.005896159415109183 0 0.007946823261085388 0 0
          -0.0011075513603369968 0.0013013917653568081 0 0.00085902304730088 0 0
          -0.002196087336153078 -0.00011826614705971194 0 0.001904698885980266 0 0
          -4.264078727961617 -2.2675280951669365 0 1.5021636519643957 0 0
          -0.5442596558704201 1.6442843201867592 0 -0.0875122711823145 0 0
          -2.1565744497311456 -0.07836987667708528 0 0.9794429329272987 0 0
          -5.8556905018514644 -0.9835325311584477 0 2.4038642188386596 0 0
          -0.2158427033036839 2.20536554338233 0 -0.16333298825727444 0 0
          -1.7008965615814675 -0.42708412280223546 0 1.016713815124967 0 0
          -0.14747268164660565 1.5813846131686378 0 -0.19211339409821165 0 0
          -0.9036081989469966 0.12252874860912727 0 0.05379895408343197 0 0
          -0.0035651808629618194 -0.0007217842799081582 0 0.00037733625904190157 0 0
          0.08973654702007139 2.1522884554552872 0 -0.400014345385964 0 0
          -0.0015137723465701203 -0.00021004541431064733 0 0.0006771509071726269 0 0
          -0.00004961898587133489 0.000012847026344974106 0 0.000019721669314424444 0 0
          -0.0019108232085128566 0.0008326142784076943 0 0.00006083480958555862 0 0
          -0.9803610856328269 0.1929581267718239 0 0.21065527877221885 0 0
          -0.8576114101391454 0.9802631788408516 0 0.29990604962188033 0 0
          -0.6060195521931551 0.29276186510063973 0 0.2677525799346766 0 0
          -1.5247901748979842 0.4475003186760337 0 0.15950310940584456 0 0
          -0.48866091805692313 0.13226291211627492 0 0.2730327407606312 0 0
          0.54575131960217 -0.11788096933270509 0 -0.08957454439857365 0 0
          -0.6966154019722735 0.11301098328461742 0 0.05855021318217758 0 0
          0.38001736657899393 -0.08142022166671847 0 0.20960747012548248 0 0
          -0.18155445286382219 -0.011024467928314886 0 -0.028986426437904583 0 0
          -4.182344103968498 0.05880915755090686 0 1.7153207226767622 0 0
          0.00009614347772701623 -0.0001894640574358115 0 0.00022367170673576035 0 0
          -0.589497398972092 -0.025460918291789644 0 0.0027394972407634843 0 0
          -0.000004013760764772281 -0.00002734840386006522 0 0.000010938881773726892 0 0
          -2.8777256518380883 -0.6508152155000146 0 1.394934609480721 0 0
          0.33378878082851005 0.019207058515656378 0 0.04313724793199348 0 0
          -0.00447789639391129 0.018050083957462527 0 0.011778978023487409 0 0
          -0.000022581761271841392 0.0000017185110879948908 0 -0.0000011701126151201967 0 0
          <InformationKey name="L2_NORM_RANGE" location="vtkDataArray" length="2">
            <Value index="0">
              5.9643339963e-07
            </Value>
            <Value index="1">
              6.4058575285
            </Value>
          </InformationKey>
        </DataArray>
        <DataArray type="Float64" Name="Strain" NumberOfComponents="6" format="ascii" RangeMin="4.895448466312578e-15" RangeMax="3.5005332024659214e-11">
          3.424681705726414e-13 -4.190109183235698e-13 0 4.954626173156136e-13 0 0
          -1.0040359867757197e-13 3.938458863865572e-14 0 8.51789518481772e-15 0 0
          1.2195417557893261e-15 -1.9123362393437026e-15 0 -4.33832959788687e-15 0 0
          -6.906261923745799e-15 2.5149597364644897e-16 0 2.2317687565485527e-14 0 0
          -6.906261923745799e-15 8.412961117748763e-12 0 2.924746267427449e-12 0 0
          -3.983497619832062e-12 8.092777335751171e-12 0 7.428560074668152e-14 0 0
          1.2195417557893261e-15 7.853023571296588e-12 0 -1.8110262199873655e-12 0 0
          -5.356683165642022e-12 -5.356683165641998e-12 0 1.9896251758098893e-11 0 0
          -9.270705320748998e-14 4.055367309176659e-14 0 4.2585996212868915e-14 0 0
          -1.2068173608221732e-13 -1.7620562858062174e-14 0 1.5949791937645087e-13 0 0
          -1.2068173608221732e-13 5.299325074135082e-12 0 1.0228755625498311e-11 0 0
          -4.783765123914849e-13 2.530440898395582e-13 0 4.2178767521971887e-13 0 0
          -6.2415370414334974e-12 6.806904889407946e-12 0 9.3060830124262e-12 0 0
          -9.002531216813185e-12 2.252333557442548e-12 0 2.0634237931452885e-11 0 0
          -1.677884416403123e-11 -4.627075415919409e-12 0 1.828548199144785e-11 0 0
          -6.241537041433498e-12 1.0873713481838292e-11 0 -1.3687588291866964e-12 0 0
          -1.674749253768281e-11 4.464314112341527e-12 0 1.9993945146078923e-11 0 0
          -2.3169294760433036e-11 3.2215609141541306e-12 0 2.6041862370752144e-11 0 0
          -3.783051787303554e-12 9.787397729561638e-12 0 -1.8309057674967665e-12 0 0
          -1.3952689912455718e-11 7.379663774522595e-13 0 2.345116556958126e-11 0 0
          -3.983497619832062e-12 1.0412933329531889e-11 0 -3.1995089714775016e-12 0 0
          -3.918195098040561e-12 1.6400467012217762e-12 0 5.828220025705131e-13 0 0
          -1.3952689912455718e-11 1.4490415790849494e-12 0 4.087809472953935e-12 0 0
          -2.4459454294589743e-12 9.350720385789169e-12 0 -4.575725376437654e-12 0 0
          -6.044828009487189e-12 1.0170262069182858e-12 0 7.335801494370125e-12 0 0
          -2.2280455739511304e-13 1.1555300877656072e-13 0 2.1365141757293144e-13 0 0
          -9.002531216813188e-12 5.85775517067313e-12 0 6.590437705102185e-13 0 0
          -6.590779843848298e-12 3.0918876206722156e-12 0 3.4768117532431848e-12 0 0
          -7.069045141366898e-12 7.596028471101977e-12 0 4.7861201421480526e-12 0 0
          -2.9602175958299845e-12 2.0246848312600275e-12 0 2.9700669370641573e-12 0 0
          -7.069045141366898e-12 3.855869710025743e-12 0 1.7670397889851414e-12 0 0
          -2.201415798715857e-12 1.1619216147222996e-12 0 2.957854691573505e-12 0 0
          2.42131504334159e-12 -1.1733598550556504e-12 0 -9.703908976512146e-13 0 0
          -3.043827903990244e-12 1.3416483494845812e-12 0 6.342939761402572e-13 0 0
          1.68518097116254e-12 -8.142726318350694e-13 0 2.2707475930260605e-12 0 0
          -8.127352464173236e-13 1.9807747090713538e-13 0 -3.4363280433414426e-13 0 0
          -1.749994521347405e-11 5.472968286422735e-12 0 1.8582641162331592e-11 0 0
          1.827010057701742e-13 -2.6071528472892953e-13 0 6.945172397768211e-13 0 0
          -2.4244130145189797e-12 6.307845891659915e-13 0 2.9677886774937745e-14 0 0
          1.7461501638530355e-14 -1.0893448179430638e-13 0 1.1850455254870796e-13 0 0
          -1.7115179350519158e-11 1.3558410815572774e-12 0 2.314045976226892e-11 0 0
          1.3667777636408877e-12 -3.372065655537359e-13 0 4.673201859299292e-13 0 0
          -1.723337658072285e-13 3.378321296341297e-13 0 5.334905994242911e-13 0 0
          -9.623881082599942e-14 3.538766445644712e-14 0 -1.2676219997135465e-14 0 0
          <InformationKey name="L2_NORM_RANGE" location="vtkDataArray" length="2">
            <Value index="0">
              4.8954484663e-15
            </Value>
            <Value index="1">
              3.5005332025e-11
            </Value>
          </InformationKey>
        </DataArray>
      </CellData>
      <Points>
        <DataArray type="Float32" Name="Points" NumberOfComponents="3" format="ascii" RangeMin="92.44066980668491" RangeMax="215.40659228538016">
          200 0 0 200 20 0
          175 0 0 170.3333282470703 25.352571487426758 0
          200 40 0 157 13.358983993530273 0
          180 45.35898208618164 0 150 0 0
          150 28.038475036621094 0 142.39999389648438 13.887187004089355 0
          200 60 0 160 45.35898208618164 0
          171.6666717529297 62.23291015625 0 125 0 0
          140 45.35898208618164 0 130 28.038475036621094 0
          200 80 0 150 62.67949295043945 0
          180 80 0 160 80 0
          120 45.35898208618164 0 110.71759033203125 23.771137237548828 0
          130 62.67949295043945 0 140 80 0
          110 62.67949295043945 0 120 80 0
          100 80 0 90 62.67949295043945 0
          100 45.35898208618164 0 89.30555725097656 23.870376586914062 0
          100 0 0 80 80 0
          <InformationKey name="L2_NORM_RANGE" location="vtkDataArray" length="2">
            <Value index="0">
              92.440669807
            </Value>
            <Value index="1">
              215.40659229
            </Value>
          </InformationKey>
        </DataArray>
      </Points>
      <Cells>
        <DataArray type="Int64" Name="connectivity" format="ascii" RangeMin="0" RangeMax="31">
          0 1 2 25 26 24
          24 26 27 25 24 22
          22 24 20 20 24 28
          28 24 27 16 18 10
          25 22 23 23 22 17
          17 22 14 23 17 19
          14 22 20 17 14 11
          19 17 12 14 20 15
          17 11 12 19 12 18
          15 20 21 12 11 6
          21 20 28 15 21 13
          6 11 3 21 28 29
          3 11 8 6 3 1
          8 11 14 3 8 5
          8 14 15 5 8 9
          8 15 9 9 15 13
          9 13 7 9 7 5
          5 7 2 5 2 3
          18 12 10 4 10 6
          21 29 30 1 4 6
          12 6 10 30 13 21
          3 2 1 27 26 31
        </DataArray>
        <DataArray type="Int64" Name="offsets" format="ascii" RangeMin="3" RangeMax="132">
          3 6 9 12 15 18
          21 24 27 30 33 36
          39 42 45 48 51 54
          57 60 63 66 69 72
          75 78 81 84 87 90
          93 96 99 102 105 108
          111 114 117 120 123 126
          129 132
        </DataArray>
        <DataArray type="UInt8" Name="types" format="ascii" RangeMin="5" RangeMax="5">
          5 5 5 5 5 5
          5 5 5 5 5 5
          5 5 5 5 5 5
          5 5 5 5 5 5
          5 5 5 5 5 5
          5 5 5 5 5 5
          5 5 5 5 5 5
          5 5
        </DataArray>
      </Cells>
    </Piece>
  </UnstructuredGrid>
</VTKFile>
