<?xml version="1.0"?>
<VTKFile type="UnstructuredGrid" version="0.1" byte_order="LittleEndian" header_type="UInt32" compressor="vtkZLibDataCompressor">
  <UnstructuredGrid>
    <Piece NumberOfPoints="183" NumberOfCells="79">
      <PointData>
        <DataArray type="Float64" Name="Density" format="ascii" RangeMin="0.9643364732420103" RangeMax="1.063626061471346">
          1 1 1 1 1 1
          1 1 1 1 1 1
          1 1 1 1 1 1
          1 1 1 1 1 1
          1 1 0.9999999734604925 1 1 0.9999999863689979
          1 1 1.0000000825109459 0.999999991824057 0.9999999958671885 1.000000066691316
          0.9999999670328658 0.9999980806543014 1.0000000687982238 1.0000000250140528 0.9999985269106249 1.000000030663139
          1.000000038641731 1.0000069964911924 0.999999040055867 0.9999990086801521 1.0000001078113068 1.0000029346874502
          0.9999993009675602 0.9999996871501825 0.9999991737544977 0.9999999877621093 0.9999163179585788 0.9999995591864183
          1.0000034629832508 0.9999997588988503 1.0000000336337096 1.000002083569145 1.0000118247916903 1.000000247056042
          1.0000006311351715 0.9999999718240785 0.9998481914891557 1.00044659906543 0.9999895388619552 0.9999845189842667
          0.9999953846481717 0.9999324938127285 0.9999999907985329 1.0000001758695316 0.9999995307418797 1.0000453959445028
          0.9999953472438111 0.9999931389154894 1.000050197196153 0.999976710125198 1.0000007182640807 1.0000008689462705
          0.9998691485555663 0.999999764671269 1.0000037824252097 0.9999571327714452 1.0000444731315938 0.99997290210392
          0.999999952645433 1.0000003251481948 1.0000367763218176 0.9966961261516313 1.0002809833962942 0.9999991931365629
          0.9993485999337365 1.000012279221534 0.9999826334178314 1.000086695235933 1.000002056295587 0.9999905226151595
          1.0001095149950132 1.0002398307472629 0.9999995997157393 1.0000005015048916 0.9995624116039413 0.9998811742105971
          0.9999998449948712 1.0000973169389464 1.0000004237499756 0.9999998872251364 0.9981958770953485 0.9996915941959241
          0.9999523166697682 0.999999744924773 1.0000490369442103 0.999969555150892 0.999407876314542 0.9999992191627289
          0.9943971619604246 1.000242248687498 0.9999799252422402 1.0016584808581557 0.9989175538553522 0.999896930207645
          1.0001047963080347 0.9995823387830094 0.9998641827352461 1.0000674745077143 1.0021994352803891 0.9999885514786798
          1.0000745575299188 1.0007266024780739 1.000082569615247 1.0029380199214089 0.997545498379811 1.0001228031654026
          0.9976628314408255 0.9983704201370548 0.9990778100695037 1.0062046883483562 0.9989337105063787 1.0009669897289488
          1.0003911982803217 0.9967741131211331 1.0019448244312406 0.9828085219225117 0.9849016726593722 1.0029517764143534
          1.0030813452135607 0.9865446237926055 1.0024020142854877 1.0030430811480195 0.9716051818461822 0.986432143028157
          0.9961246257897289 0.985686239703202 0.9916410678103486 0.9654911105815589 0.9835323466115173 0.9643364732420103
          1.029666392256441 1.04274241830896 1.053494123472856 1.055179795789137 1.0322408097021871 1.0599353393635815
          1.0042931728250615 0.9773132632810863 1.0602756783760376 1.063626061471346 1.0334846553002217 1.0462117110725706
          1 1 1 1 1 1
          1 1.045048163795493 1 1.0366554413269928 1 1
          1 1 1
        </DataArray>
        <DataArray type="Float64" Name="Momentum" NumberOfComponents="3" format="ascii" RangeMin="0" RangeMax="1">
          4.832564918196586e-19 -1.994678292599671e-19 0 5.765414229332631e-19 0 0
          1.1058060703141851e-18 2.82264422112405e-19 0 -1.396506730192117e-18 6.988142219075882e-19 0
          -5.3727299388699745e-19 0 0 1.0596597448332894e-19 7.009828902746371e-19 0
          -5.096770518652164e-20 8.275260528515572e-20 0 -9.6913892241773e-19 9.694441598771602e-19 0
          -3.559309654897237e-19 0 0 1.2804643089445874e-18 -2.2811707672408234e-19 0
          4.299897333696176e-19 1.8350736226792586e-19 0 9.640995108453728e-19 2.394481750267087e-20 0
          -3.1699006000026727e-19 -3.0118861957887684e-19 0 6.333281170161599e-19 0 0
          3.221446022495791e-19 -2.4566578839412737e-19 0 5.639926420745681e-20 -1.107634178272961e-18 0
          1.4766187306521143e-18 2.7355113831012275e-19 0 -7.383436868327252e-19 -8.183263400015661e-19 0
          -1.847171793918405e-18 1.270787342518938e-18 0 -1.059914541646869e-18 0 0
          6.712750264567033e-19 0 0 -2.4154490874445634e-19 0 0
          -4.090567017287772e-19 0 0 -1.803860391295302e-20 7.808005324823446e-19 0
          -1.2967202678369716e-18 2.055903761044281e-19 0 -6.94742647342157e-19 2.568376401749396e-19 0
          -2.2983200266992824e-8 0 0 -9.055487625588752e-19 0 0
          5.520079074769718e-19 -4.3908928474836e-19 0 -1.1970969130783065e-8 5.0258561011170415e-9 0
          -5.940381711958587e-20 -2.099704633355316e-19 0 2.546825207528461e-19 0 0
          7.105337806945015e-8 0 0 -7.02136254032906e-9 0 0
          -3.630422825563219e-9 -2.6025448788792966e-9 0 5.529430534875931e-8 -3.931778132529922e-8 0
          -1.993549435623711e-8 9.258495417494839e-9 0 -0.0000018310724885914554 0 0
          2.7241250270949292e-8 -2.9244472024341356e-8 0 2.12877306033218e-8 0 0
          -0.0000013717316269642757 8.362948541778715e-7 0 2.286112944402031e-8 2.5992997718464336e-8 0
          1.8134081475442232e-8 2.1150379699380463e-8 0 0.000006412914711814208 0 0
          -8.493860551095972e-7 0.0000018101744408688526 0 -9.272967959822183e-7 0 0
          2.0504081071834837e-9 -9.114220868867912e-9 0 0.0000031661020941536164 -0.00000387181103087443 0
          -6.253614417624408e-7 -5.900786720756268e-7 0 -1.207333725149104e-7 5.845371533184129e-7 0
          -7.869404930341371e-7 -0.0000010820986140568194 0 -1.0765187360682787e-7 -4.7126585358691824e-8 0
          -0.00008102997884455198 0 0 -6.221814445266519e-7 -0.00000348087675872023 0
          0.000003052780155438115 0 0 -2.0575155660305949e-7 0.0000013062705292919632 0
          4.1188819827593024e-7 -5.843185922363453e-7 0 0.000002196618221981092 0.0000032162976601548385 0
          -8.277883785145713e-8 -0.000008169506821480443 0 9.86144569748858e-7 0.0000010539746405148426 0
          3.219013483581514e-7 4.642629294203373e-7 0 2.863225311567974e-8 -3.1270237102110345e-8 0
          -0.00010432873384739044 0.0002634223816839124 0 0.0003666122121764606 0 0
          -5.701959129222602e-7 0.000005291684056249654 0 -0.000010225809745187841 -0.000011288170827508078 0
          -0.000007419600733712778 0.0000017876843247926519 0 -0.00006956903739558057 0 0
          -8.708276665186844e-8 -3.428717099303689e-7 0 -3.824624271600601e-7 4.574093200705838e-7 0
          -1.8765007262572763e-7 -3.579595464548804e-8 0 0.000004681441286051888 -0.000012540998540371572 0
          -3.715915120879514e-7 0.000004039148549997792 0 -7.73486703694579e-7 -0.000010698210164390605 0
          0.000029810721200084618 0.00002721510573526416 0 -0.0000024272406389457483 -0.00009871574169182431 0
          9.92609807929521e-7 -0.0000010111880728595003 0 3.936592887565046e-7 7.342266895518296e-7 0
          -0.00008955713321055637 0.0002977641281631013 0 -1.1903670917649615e-8 9.236832000137375e-8 0
          -0.000021207150797690157 -0.0000017578520339011055 0 -0.00002543253669313325 0.000018795195717277026 0
          0.0001981298638751173 -0.0005269312085502293 0 -0.000006655914143764766 -0.000024231660272658413 0
          -5.15829427429279e-7 -0.0000011923687385511577 0 -3.3207852915381187e-7 6.550644207752188e-7 0
          0.000008377806894129798 0.00004698439231961973 0 -0.0029322951772684487 0 0
          0.0002045330293548432 0 0 -2.3170669381160775e-7 1.2308433861041318e-7 0
          -0.0006002030672202031 -0.00022591796352365703 0 0.000054197581875499765 0.00005716754839386265 0
          -0.000010202520236681332 0.00001659753421796628 0 0.00006719468133902144 -0.00003429257166900756 0
          0.0000016885305556897053 -0.0000011710253299733543 0 -0.000001859686666607192 -0.000008313794437804691 0
          0.000032137700389972474 0.000032889038241565327 0 -0.00003870871952974599 -0.00038486924350824745 0
          -4.0602103407960785e-8 1.7362600798954354e-7 0 7.950801188353508e-7 0.0000011940694800808895 0
          -0.0003677766659019402 -0.0005116627258219005 0 -0.00008410154909830895 0.00006317280943880912 0
          -6.018015571849594e-7 -0.0000011877841200140797 0 0.00006195110583935085 -0.00008460424384399838 0
          0 0 0 -8.887856636632693e-7 7.466308729560339e-7 0
          -0.0015055742323196375 0.00043375697549381863 0 -0.0002557764803128017 0.0004973562975260767 0
          -0.000016372210066799915 -0.000021981122944521715 0 0 0 0
          0.0000036448917926833175 0.000023058744762661442 0 -0.00001574151981160286 0.00002791444172135941 0
          -0.0005761519552740081 -0.000788708896977673 0 0 0 0
          -0.0034075111353908385 0.005892169996993438 0 0.00016199565233806509 -0.00005333502016413283 0
          -0.000007861026473507212 -0.000014435893737100796 0 0.0014975517157793782 -0.00001085772061447122 0
          -0.0009831297763034656 0.0006279637209702655 0 0 0 0
          0.00004247168201206544 0.00003520814485385245 0 -0.000139244058175933 -0.00037647195476888393 0
          0 0 0 0.00003570721733673471 -0.000055610995773268886 0
          0.001690349481515667 -0.0016782933848661413 0 0 0 0
          0.0000313964004465165 0.00003970993394712161 0 0.0010092463653734746 0.0011613463897033151 0
          0.000051403201892939916 0.000009574581535868338 0 0.003153903492543063 0.0002705916074330302 0
          -0.002245575967309506 0.0008976797132827512 0 0.00008206486386269445 0.000020950215667792067 0
          -0.0018914026452102285 0 0 -0.0015392347190192768 -0.0008223273198410344 0
          -0.0009143465269082629 0.00022125953184113362 0 0.00787615163319902 0 0
          -0.0008707288596740415 -0.0005423510727277864 0 0.0008777190481131094 -0.001069482979013676 0
          0.0007176222938895647 0.0013473640113748828 0 -0.0029142774539287378 -0.0004836022796882687 0
          0.0024348391822293426 -0.001992617661212878 0 -0.01855759610879775 0.007528904059974196 0
          -0.014708489296794405 -0.00018305706691065625 0 0.0033191058166297475 0.0006604684998508944 0
          0.0027098957201693724 0.0009562718272167936 0 -0.00909827499630136 0.0025096761893487274 0
          0.0029711987554960706 0.0020685631310367798 0 0.003611622400942453 -0.000926178568672871 0
          -0.029121587036341386 0.002095043525317097 0 -0.008790937787136615 -0.007239875595734921 0
          -0.0017739759784014715 -0.007195818479818488 0 -0.009739833277079973 0.0018274556213675693 0
          -0.005530233893699892 0.006559519451886771 0 -0.03551335106938279 -0.005325822866432352 0
          -0.01077268338460235 -0.002613353275932459 0 -0.03663798092739286 -0.0002334499905572688 0
          0.02966691128806951 -0.0018587393283182115 0 0.04450424157380169 -0.006410081514000936 0
          0.05641105236800116 0.0010198190996733515 0 0.058159007886974534 -0.0014543830031486886 0
          0.0327305777209735 0.0025944040378213097 0 0.06313876779365182 0.0008243431630754388 0
          0.005902511917968893 0 0 -0.026820543705588437 -0.004563127694250349 0
          0.06600064226081578 0.00024937024123340896 0 0.06694256994590861 -0.0008316421994361213 0
          0.03444533520503373 -0.0035357961324800576 0 0.050858058825959965 0.0019374639652373913 0
          1 0 0 1 0 0
          1 0 0 1 0 0
          1 0 0 1 0 0
          1 0 0 0.04716418930138142 0.0018520569024290748 0
          1 0 0 0.038073686693212476 0.0019138523387976785 0
          1 0 0 1 0 0
          1 0 0 1 0 0
          1 0 0
          <InformationKey name="L2_NORM_RANGE" location="vtkDataArray" length="2">
            <Value index="0">
              0
            </Value>
            <Value index="1">
              1
            </Value>
          </InformationKey>
        </DataArray>
        <DataArray type="Float64" Name="Energy" format="ascii" RangeMin="1.6225163824979132" RangeMax="2.2232">
          1.7231999999999998 1.7231999999999998 1.7231999999999998 1.7231999999999998 1.7231999999999998 1.7231999999999998
          1.7231999999999998 1.7231999999999998 1.7231999999999998 1.7231999999999998 1.7231999999999998 1.7231999999999998
          1.7231999999999998 1.7231999999999998 1.7231999999999998 1.7231999999999998 1.7231999999999998 1.7231999999999998
          1.7231999999999998 1.7231999999999998 1.7231999999999998 1.7231999999999998 1.7231999999999998 1.7231999999999998
          1.7231999999999998 1.7231999999999998 1.7231999356240382 1.7231999999999998 1.7231999999999998 1.723199966967056
          1.7231999999999998 1.7231999999999998 1.7232002000511866 1.7231999801665219 1.723199989989807 1.723200161966635
          1.7231999211301587 1.7231953217335598 1.7232001642774282 1.723200060638181 1.7231964458190365 1.7232000737591873
          1.7232000931568583 1.7232169894516374 1.7231976484021245 1.723197586351861 1.7232002612944815 1.7232071328905165
          1.7231983156637551 1.7231992490461552 1.7231979896766496 1.7231999702114973 1.7229958062276272 1.7231989317420848
          1.7232083990376321 1.7231993851131349 1.7232000769522642 1.7232050573242303 1.723228336655591 1.723200661240864
          1.7232015298611283 1.723199935302071 1.722835123020395 1.7242825421953856 1.7231754211108588 1.7231623396362752
          1.7231888181030954 1.7230362926871314 1.7231999709846266 1.7232004188777503 1.7231988867049677 1.7233087331113983
          1.7231889128989817 1.7231836907856193 1.7233217135119554 1.7231436783113505 1.7232017042553267 1.7232020836785373
          1.7228677336569054 1.7231994357912814 1.7232102222594874 1.7230941329901808 1.7233228252142934 1.7231355776371842
          1.7231998634248118 1.723200767210154 1.7232884061210114 1.714401983855034 1.7238807235132945 1.7231981103070522
          1.7215967349886316 1.7232317716780219 1.7231599151341217 1.723411025958218 1.7232048622623504 1.7231774127858621
          1.7234614958633623 1.7237646689216832 1.7231990732573408 1.7232011272743775 1.7221839453719867 1.722918925001302
          1.7231991757770906 1.723432370884096 1.7232016758712416 1.723199246551946 1.7188873507093563 1.7224665486741766
          1.7230841460696484 1.723199166266626 1.7233186748962226 1.7231338609867974 1.7216823771716403 1.7231984229627875
          1.710845525569364 1.7237731262650156 1.7231538859577276 1.7272173015183547 1.7206207974395813 1.722947945218945
          1.7234512349111497 1.7222026478317525 1.7228876977972276 1.7233615506725064 1.7284232070515873 1.7231775819194004
          1.723369566619256 1.7250062350428232 1.7233914671026065 1.7302413291396805 1.717267064191734 1.7234806026588123
          1.7169598770647854 1.7194040938112178 1.721091668777154 1.7407829016886143 1.720682516347723 1.7255241429446815
          1.7240423675105931 1.7154563544446022 1.7278682803111653 1.6733872057102457 1.68140693505638 1.7301645415103724
          1.730461094162072 1.6928389997916533 1.728859384978589 1.7303955962634088 1.6434130971060346 1.6928241456453963
          1.7154713989615111 1.6907823354061597 1.7046660181593958 1.6269487776927432 1.6862716994214202 1.6225163824979132
          1.8073113731777468 1.8455420367905053 1.8756259650678693 1.8814296146131766 1.8143964664966072 1.8944882907771685
          1.734917966113966 1.654626565658122 1.8944116837952714 1.9059711027686004 1.8179913708782776 1.8551164584552755
          2.2232 2.2232 2.2232 2.2232 2.2232 2.2232
          2.2232 1.8526143047569703 2.2232 1.8292731509558768 2.2232 2.2232
          2.2232 2.2232 2.2232
        </DataArray>
      </PointData>
      <CellData>
        <DataArray type="UInt8" Name="vtkGhostType" format="ascii" RangeMin="0" RangeMax="0">
          0 0 0 0 0 0
          0 0 0 0 0 0
          0 0 0 0 0 0
          0 0 0 0 0 0
          0 0 0 0 0 0
          0 0 0 0 0 0
          0 0 0 0 0 0
          0 0 0 0 0 0
          0 0 0 0 0 0
          0 0 0 0 0 0
          0 0 0 0 0 0
          0 0 0 0 0 0
          0 0 0 0 0 0
          0
        </DataArray>
      </CellData>
      <Points>
        <DataArray type="Float32" Name="Points" NumberOfComponents="3" format="ascii" RangeMin="0" RangeMax="7.102112369882704">
          7 1.2000000476837158 0 6.5 1.2000000476837158 0
          7 0.6000000238418579 0 6.5 0.6000000238418579 0
          6 1.2000000476837158 0 7 -2.220446049250313e-16 0
          6.25 0.16698729991912842 0 5.75 0.7669873237609863 0
          5.5 1.2000000476837158 0 5.5 0.33397459983825684 0
          7 -0.6000000238418579 0 5.25 0.7669873237609863 0
          6.5 -0.6000000238418579 0 5 1.2000000476837158 0
          5.75 -0.4330126941204071 0 5 2.220446049250313e-16 0
          4.75 0.4330126941204071 0 5.25 -0.4330126941204071 0
          7 -1.2000000476837158 0 6.5 -1.2000000476837158 0
          4.5 1.2000000476837158 0 6 -1.2000000476837158 0
          5.5 -1.2000000476837158 0 4.25 0.4330126941204071 0
          4.5 -0.33397459983825684 0 4.75 -0.7669873237609863 0
          4 1.2000000476837158 0 5 -1.2000000476837158 0
          4.25 -0.7669873237609863 0 3.6823039054870605 0.4431717097759247 0
          3.9323039054870605 -0.32381561398506165 0 4.5 -1.2000000476837158 0
          3.5 1.2000000476837158 0 4 -1.2000000476837158 0
          3.6823039054870605 -0.7568283081054688 0 3.1823039054870605 0.4431717097759247 0
          3.364607095718384 -0.31365659832954407 0 3 1.2000000476837158 0
          2.953885078430176 0.029621059074997902 0 3.5 -1.2000000476837158 0
          2.771580934524536 0.7864493131637573 0 3.1823039054870605 -0.7568283081054688 0
          2.9061310291290283 -0.4530656039714813 0 2.5 1.2000000476837158 0
          2.5431621074676514 0.3728986978530884 0 3 -1.2000000476837158 0
          2.495408058166504 -0.10978800058364868 0 2.271580934524536 0.7864493131637573 0
          2.7238268852233887 -0.8962373733520508 0 2.2451179027557373 0.2950834035873413 0
          2.4476540088653564 -0.5924746990203857 0 2.197364091873169 -0.18760329484939575 0
          2 1.2000000476837158 0 1.9735369682312012 0.708634078502655 0
          2.5 -1.2000000476837158 0 1.947074055671692 0.2172681987285614 0
          2.0834739208221436 -0.4830414056777954 0 2.2238268852233887 -0.8962373733520508 0
          1.766793966293335 0.8914316296577454 0 1.7403310537338257 0.40006569027900696 0
          1.833184003829956 -0.07816994935274124 0 1.696537971496582 0.15281939506530762 0
          1.5884170532226562 0.9876154065132141 0 1.5 1.2000000476837158 0
          1.5335869789123535 0.5828632116317749 0 1.7192939519882202 -0.3736081123352051 0
          1.8596470355987549 -0.7868040204048157 0 2 -1.2000000476837158 0
          1.4897949695587158 0.3356168866157532 0 1.5826480388641357 -0.1426188051700592 0
          1.4460029602050781 0.08837053179740906 0 1.3552099466323853 0.6790469884872437 0
          1.339123010635376 0.4750398099422455 0 1.4790019989013672 -0.34034401178359985 0
          1.5011229515075684 -0.5437853932380676 0 1.641476035118103 -0.9569813013076782 0
          1.2953310012817383 0.22779349982738495 0 1.3423570394515991 -0.10935469716787338 0
          1.1768330335617065 0.7752308249473572 0 1.2693469524383545 0.06596699357032776 0
          1.1607470512390137 0.5712236166000366 0 1.1446599960327148 0.36721640825271606 0
          1.0884170532226562 0.9876154065132141 0 1.2387109994888306 -0.3070800006389618 0
          1.1186749935150146 0.20538990199565887 0 1.1657010316848755 -0.13175830245018005 0
          1.2608319520950317 -0.5105212926864624 0 1 1.2000000476837158 0
          1.5 -1.2000000476837158 0 1.0926909446716309 0.043563440442085266 0
          1.2829530239105225 -0.7139626741409302 0 0.9874739050865173 0.6781361103057861 0
          1.0298000574111938 0.28314921259880066 0 0.9713870286941528 0.4741289019584656 0
          1.0038150548934937 0.12132269889116287 0 1.0768250226974487 -0.25308090448379517 0
          1.0993930101394653 -0.3733969032764435 0 0.8990572094917297 0.8905206918716431 0
          0.9963455200195312 0.021781720221042633 0 1.0038150548934937 -0.07775924354791641 0
          1.1215139627456665 -0.5768383145332336 0 0.9149399995803833 0.1990818977355957 0
          0.9074699878692627 0.09954095631837845 0 0.8565272092819214 0.39006170630455017 0
          0.8999999761581421 0 0 0.9074699878692627 -0.09954095631837845 0
          0.7981144189834595 0.5810413956642151 0 1.141476035118103 -0.9569813013076782 0
          0.9149399995803833 -0.1990818977355957 0 0.8500000238418579 0.08660253882408142 0
          0.9375075101852417 -0.319397896528244 0 0.8324699997901917 0.14284220337867737 0
          0.9600750803947449 -0.43971389532089233 0 0.8500000238418579 -0.08660253882408142 0
          0.7150853276252747 1.018962025642395 0 0.7654337286949158 0.21538899838924408 0
          0.8324699997901917 -0.14284220337867737 0 0.9678938984870911 -0.6856740713119507 0
          0.7070209980010986 0.4063687026500702 0 0.75 0.08660253882408142 0
          0.8092945218086243 -0.23232249915599823 0 0.8318619728088379 -0.35263851284980774 0
          0.75 -0.08660253882408142 0 0.6829637289047241 0.15914930403232574 0
          0.6141425967216492 0.7094823122024536 0 0.699999988079071 0 0
          0.7268245220184326 -0.1760828047990799 0 0.8064550161361694 -0.5485497117042542 0
          0.6600599884986877 0.04330126941204071 0 0.5785459280014038 0.5376487970352173 0
          0.615927517414093 0.23169609904289246 0 0.6600599884986877 -0.04330126941204071 0
          1 -1.2000000476837158 0 0.7036489844322205 -0.26556310057640076 0
          0.5930237174034119 0.11584799736738205 0 0.5 1.2000000476837158 0
          0.6368845105171204 -0.13278159499168396 0 0.8264175057411194 -0.9286928176879883 0
          0.678242027759552 -0.46147438883781433 0 0.5701199769973755 2.220446049250313e-16 0
          0.4874523878097534 0.3629761040210724 0 0.4301707148551941 0.8379232287406921 0
          0.6528350114822388 -0.6573855876922607 0 0.46278950572013855 0.17328590154647827 0
          0.5381790995597839 -0.23345430195331573 0 0.39457398653030396 0.6660897135734558 0
          0.47141459584236145 -0.10067269951105118 0 0.4398857057094574 0.05743790045380592 0
          0.3589772880077362 0.4942561089992523 0 0.5127720832824707 -0.42936548590660095 0
          0.7066044211387634 -1.0821729898452759 0 0.33431440591812134 0.30456599593162537 0
          0.5330219268798828 -0.8108659982681274 0 0.3727092146873474 -0.2013455033302307 0
          0.34118029475212097 -0.04323484003543854 0 0.3096514046192169 0.11487580090761185 0
          0.21508529782295227 1.018962025642395 0 0.21508529782295227 0.8189616203308105 0
          0.17948870360851288 0.6471279859542847 0 0.17948870360851288 0.4471279978752136 0
          0.3264175057411194 -0.5286927819252014 0 0.15482570230960846 0.25743791460990906 0
          0.5 -1.2000000476837158 0 0.4132086932659149 -0.9643464088439941 0
          0.1863546073436737 -0.10067269951105118 0 0.15482570230960846 0.05743790045380592 0
          0.3264175057411194 -0.7286928296089172 0 0.1863546073436737 -0.300672709941864 0
          0 1.2000000476837158 0 0 1 0
          0 0.800000011920929 0 0 0.6000000238418579 0
          0 0.4000000059604645 0 0 0.20000000298023224 0
          0 0 0 0.20660440623760223 -0.8821731805801392 0
          0 -0.20000000298023224 0 0.20660440623760223 -1.0821729898452759 0
          0 -0.4000000059604645 0 0 -0.6000000238418579 0
          0 -0.800000011920929 0 0 -1 0
          0 -1.2000000476837158 0
          <InformationKey name="L2_NORM_RANGE" location="vtkDataArray" length="2">
            <Value index="0">
              0
            </Value>
            <Value index="1">
              7.1021123699
            </Value>
          </InformationKey>
        </DataArray>
      </Points>
      <Cells>
        <DataArray type="Int64" Name="connectivity" format="ascii" RangeMin="0" RangeMax="182">
          104 122 108 113 116 105
          122 119 139 125 128 131
          119 104 101 109 102 111
          108 122 133 116 126 120
          139 119 130 128 123 134
          101 104 89 102 98 94
          104 108 89 105 99 98
          122 139 133 131 136 126
          119 101 130 111 115 123
          108 133 112 120 121 110
          139 130 155 134 143 147
          101 89 81 94 84 92
          112 133 142 121 138 127
          155 130 148 143 140 151
          81 89 70 84 79 76
          108 112 83 110 96 95
          139 155 153 147 154 146
          101 81 106 92 93 103
          142 133 153 138 144 149
          70 89 83 79 85 77
          153 155 174 154 165 164
          174 155 172 165 161 173
          148 130 106 140 118 129
          83 112 90 96 100 86
          106 81 78 93 80 91
          112 142 90 127 117 100
          81 70 64 76 68 72
          139 153 133 146 144 136
          155 148 172 151 159 161
          172 148 170 159 158 171
          108 83 89 95 85 99
          101 106 130 103 118 115
          153 174 178 164 176 167
          153 178 142 167 160 149
          168 170 141 169 157 156
          178 180 142 179 166 160
          180 182 163 181 177 175
          90 142 132 117 137 107
          78 81 64 80 72 71
          78 64 52 71 58 62
          64 70 55 68 61 59
          83 90 65 86 74 73
          106 78 87 91 82 97
          170 148 141 158 145 157
          87 78 52 82 62 63
          168 141 87 156 114 135
          163 182 132 177 162 150
          180 163 142 175 152 166
          142 163 132 152 150 137
          55 70 65 61 69 60
          64 55 52 59 53 58
          65 90 67 74 75 66
          83 65 70 73 69 77
          148 106 141 129 124 145
          90 132 67 107 88 75
          87 141 106 114 124 97
          65 67 50 66 57 56
          50 67 45 57 54 48
          65 50 55 56 51 60
          50 45 36 48 41 42
          52 55 44 53 49 47
          44 55 50 49 51 46
          52 44 37 47 40 43
          37 44 36 40 38 35
          36 45 33 41 39 34
          50 36 44 42 38 46
          33 27 24 31 25 28
          4 13 9 8 11 7
          24 27 9 25 17 15
          9 13 24 11 16 15
          4 9 5 7 6 3
          21 18 5 19 10 12
          26 37 36 32 35 29
          27 21 9 22 14 17
          13 26 24 20 23 16
          0 4 5 1 3 2
          33 24 36 28 30 34
          36 24 26 30 23 29
          5 9 21 6 14 12
        </DataArray>
        <DataArray type="Int64" Name="offsets" format="ascii" RangeMin="6" RangeMax="474">
          6 12 18 24 30 36
          42 48 54 60 66 72
          78 84 90 96 102 108
          114 120 126 132 138 144
          150 156 162 168 174 180
          186 192 198 204 210 216
          222 228 234 240 246 252
          258 264 270 276 282 288
          294 300 306 312 318 324
          330 336 342 348 354 360
          366 372 378 384 390 396
          402 408 414 420 426 432
          438 444 450 456 462 468
          474
        </DataArray>
        <DataArray type="UInt8" Name="types" format="ascii" RangeMin="22" RangeMax="22">
          22 22 22 22 22 22
          22 22 22 22 22 22
          22 22 22 22 22 22
          22 22 22 22 22 22
          22 22 22 22 22 22
          22 22 22 22 22 22
          22 22 22 22 22 22
          22 22 22 22 22 22
          22 22 22 22 22 22
          22 22 22 22 22 22
          22 22 22 22 22 22
          22 22 22 22 22 22
          22 22 22 22 22 22
          22
        </DataArray>
      </Cells>
    </Piece>
  </UnstructuredGrid>
</VTKFile>
