<?xml version="1.0"?>
<VTKFile type="UnstructuredGrid" version="0.1" byte_order="LittleEndian" header_type="UInt32" compressor="vtkZLibDataCompressor">
  <UnstructuredGrid>
    <Piece NumberOfPoints="183" NumberOfCells="79">
      <PointData>
        <DataArray type="Float64" Name="Density" format="ascii" RangeMin="0.9364187779414268" RangeMax="1.1238236733711968">
          1.0000000000017646 0.9999999999982826 1.0000000000006457 0.9999999999992387 1.0000000000470293 1.000000000004287
          0.9999999999934099 1.0000000000334432 0.999999999830482 1.0000000002008569 1.0000000000001064 0.9999999997587974
          1.000000000000822 1.0000000027437936 1.0000000000023268 0.9999999994530187 1.0000000019276933 1.0000000000685947
          1.0000000000005755 0.999999999999475 0.9999999948305829 1.0000000000157847 0.9999999999609073 0.9999999930111994
          1.0000000070566257 1.0000000001142249 1.0000000033887912 1.000000000777836 0.9999999989158217 1.000000020041926
          0.9999999859231703 0.9999999977857372 1.0000000339393649 1.0000000150337756 1.000000011333639 0.9999999819827402
          1.00000004516303 0.9999973179433268 1.0000000260417183 0.9999999721170854 0.9999981515122948 0.9999999448657689
          0.9999998832315239 1.000010048914092 0.9999990498028909 0.9999992466923255 0.9999999291456043 1.0000034752611127
          0.9999996489391125 0.9999993625464866 1.0000001643737355 1.0000006103231285 0.999846604402295 1.000001362208454
          1.0000028101184382 1.0000005519480502 0.9999984183505046 1.0000003656381413 1.0000060760497544 1.000000996550622
          0.99999881837357 1.0000003191355755 0.9997513136569293 1.0008146067171677 0.9999974258923905 0.999987416973767
          0.9999965910084168 0.9999008666939376 0.9999996662247004 0.9999990071852376 1.000003988817131 1.0000408885411964
          0.9999931737865703 1.0000001651124544 1.0000513282624341 0.9999435086536417 0.9999937058819756 0.9999950864030668
          0.9998676693233666 1.000001693238265 1.0000349855940245 0.999985568036588 0.9999925227943863 1.0000003039951493
          0.9999974466829294 0.9999972329234216 1.0000092541730758 0.9935555453464693 1.0004242365460725 1.0000108771217646
          0.9989605288757527 0.9999264100705574 1.000000289724316 1.000029173171591 0.9999788335875655 1.0000082331142854
          1.0000517219899971 1.0003015858923119 1.000003879652576 0.9999872529556276 0.9993939147975556 1.0000310765947806
          0.9999864778572188 1.0000092306459647 1.0000093460711403 0.9999913658400768 0.9976025160261355 0.9995022460487164
          1.0000340348205614 0.9999769248168205 1.0000047916389228 1.0000371974301303 0.9993936140631416 0.9999873832887785
          0.9889847326486003 1.0000066680446495 1.0000465884472962 1.002754539445198 0.9986559599599609 1.0002102032984936
          0.9999148574504763 0.9994707100820314 1.000280042826795 0.9998365846275052 1.0030048385204773 1.0002226247404291
          0.9997925745941018 1.0007788990499085 0.9997481045544689 1.0040538061715476 0.9973764543124677 0.999640331579107
          0.9958435258064797 0.9985664812246717 0.9990995788340341 1.0136766912837107 0.9990695367462601 1.0012476997886137
          0.9997445930829161 0.9968516752521724 1.0019129083737115 0.9693937289101329 0.9716128478325952 1.0030379657501105
          1.0032255500775442 0.9763218618480832 1.0018798538042195 1.0025100095424566 0.9485929127560544 0.9758960973284301
          0.9911940909657615 0.97630834881543 0.9840638141965686 0.9381119851565252 0.9729753155558124 0.9364187779414268
          1.0575251941814308 1.0845063594872337 1.1049419234234676 1.1081317289939212 1.0635362313902506 1.1173701680715409
          1.0116602172651692 0.9625168522890727 1.1173164705798295 1.1238236733711968 1.0665419973782413 1.090369414652212
          1 1 1 1 1 1
          1 1.0872159042694551 1 1.069128503355655 1 1
          1 1 1
        </DataArray>
        <DataArray type="Float64" Name="Momentum" NumberOfComponents="3" format="ascii" RangeMin="0" RangeMax="1">
          1.8117409161430226e-12 1.5696438274336376e-12 0 -1.6742948653728131e-12 0 0
          6.37248405427273e-13 -4.0598712297782916e-14 0 -7.266381967340404e-13 1.6882784777279729e-12 0
          4.202777140256834e-11 0 0 4.1888914186586084e-12 -1.5781519821364216e-13 0
          -5.815239034926826e-12 5.520720769110706e-13 0 2.996629178250615e-11 -2.1064935516928463e-11 0
          -1.3874466419031178e-10 0 0 1.8237166073610685e-10 -3.326615951460723e-11 0
          9.520685597556687e-14 6.237901014041829e-14 0 -2.124488519537754e-10 1.5613010915014335e-10 0
          6.777849485099414e-13 -1.3381661102577015e-12 0 2.565287389661746e-9 0 0
          2.6520464318438094e-12 6.537996461805172e-12 0 -4.648183534687414e-10 4.223543605355788e-11 0
          1.7881993361475906e-9 -6.810669986055436e-10 0 6.599298509985494e-11 -5.25319609869884e-11 0
          5.313993042745947e-13 -4.580152010000835e-13 0 -4.575722518835985e-13 0 0
          -4.516848521108295e-9 0 0 1.4421012868288419e-11 0 0
          -3.691154440744572e-11 0 0 -6.077525165173212e-9 3.990049770315849e-9 0
          6.598191456845833e-9 -1.6174338970978328e-9 0 1.9434729096414834e-10 4.707787263137362e-10 0
          1.314019688148317e-8 0 0 6.887153818675112e-10 0 0
          -8.698135773545502e-10 -2.9111897793122055e-9 0 2.3054799957928154e-8 -1.2241825041926386e-8 0
          -1.1932206529042323e-8 1.9255836623215077e-9 0 -1.961949407687903e-9 0 0
          3.8399024173375024e-9 0 0 1.739670283346893e-8 0 0
          1.4499171355623434e-8 1.3935275545871791e-8 0 -3.2701858792367544e-8 -8.847209839174431e-10 0
          5.743248619776364e-8 1.1549840609511008e-8 0 -0.000002668591240278225 0 0
          -1.881963894551876e-8 6.870479175053574e-8 0 -3.349521648450341e-8 0 0
          -0.0000017449790676402148 9.896474309353286e-7 0 -4.554436240065368e-8 -5.336150136861961e-8 0
          -1.0253468464917581e-7 -1.0700856969604512e-7 0 0.000010128963957665883 0 0
          -0.0000010510439538300602 0.000002827549685423791 0 -8.316802344500936e-7 0 0
          -8.050191650818384e-8 -5.854578248882751e-8 0 0.000004438925243480024 -0.000006438937552917067 0
          -3.2505699865876393e-7 -2.658150732234621e-7 0 -4.374322345522727e-7 7.921902066892345e-7 0
          -1.5824586155680068e-7 -9.330210501631245e-7 0 4.975464537476442e-7 2.6113605117908965e-7 0
          -0.0001426993099696967 0 0 0.0000018778409632792948 -0.0000065118895856680025 0
          0.0000032279890898213276 0 0 6.224522667215333e-8 0.000002858905051174537 0
          -0.0000012788803148822317 -8.982862599698815e-7 0 0.0000018912674065958726 0.0000033092645578454036 0
          -0.0000065322775996474236 -0.0000043849607290334964 0 0.000001079293981596676 4.917296366195904e-7 0
          -4.558815348260572e-7 -7.303449660161025e-7 0 -3.8260733881390897e-7 3.924798948635438e-7 0
          -0.0001690023789332554 0.00043361607297207354 0 0.0006651290239044249 0 0
          0.000008817198536072096 -0.000002254472368976175 0 -0.000007137170161438931 -0.000009341667735120685 0
          -0.000004454015211498446 0.0000030692049150199543 0 -0.00009838194821332874 0 0
          0.0000013823489062555734 6.974058933310711e-7 0 3.497801931916342e-7 -0.0000010169210222048596 0
          0.000001377819143214888 2.4736891686634017e-7 0 -0.000010350091901066263 0.0000059684760790727625 0
          -0.000005064340870588702 -0.0000017991918050184807 0 -6.904788967024376e-7 -0.0000017098411761125783 0
          0.000030120741005550434 0.000023065950193167587 0 -0.000018442856380620423 -0.00014147571618994254 0
          -0.0000029928501579345455 0.000002167336950378583 0 -0.000001145216952247724 -0.000003153229017324082 0
          -0.00009754621720617788 0.0005109817256421739 0 -6.053577273545426e-7 -4.7385269190635087e-7 0
          0.000004618362475688454 0.000009928634958274607 0 0.0000035539597437305583 7.521094850821118e-7 0
          0.00035526099401468527 -0.0009470638701499662 0 0.000013828469618509465 -0.0000022459444924698034 0
          0.000002075122308142474 0.000003987552435154857 0 0.0000014076061035733567 -0.000002798066422132068 0
          -0.00000718015302500998 0.000031764056513990505 0 -0.005822763857313654 0 0
          0.000303926486887203 0 0 0.000003943386266889113 -4.3747035201796204e-7 0
          -0.0009582823427494087 -0.0003866958064673362 0 0.0000015666134337941962 0.00005275490159365074 0
          -3.4727519722949867e-7 -0.000012779420204184912 0 0.00001572008711027923 -8.603383571581912e-7 0
          -0.000013214647695028247 0.000009719529333786975 0 9.075380432976694e-8 0.00001575360004688846 0
          -0.000027828844070812243 -0.000030399784253713736 0 0.000009197986498498179 -0.0006248685237052118 0
          -2.6567862315621403e-8 -0.0000013619570572791342 0 -0.000004873099047134344 -0.000006669865567146359 0
          -0.000511814013322572 -0.0007224317984503971 0 0.00004839295593470488 -0.0000034646079183808616 0
          0.0000030547661807165218 0.000012406098156337233 0 0.000015650346765675664 -0.0000031816572008579336 0
          0 0 0 0.000005572852549148105 -0.000006093728172564977 0
          -0.0019655468376876496 0.0005741464565038971 0 -0.0003356644331757978 0.0007906674042741438 0
          0.0000415803609557933 0.00004367062511857109 0 0 0 0
          -0.000001799772875315672 -0.000054168095721278 0 0.000028753015467095944 -0.00007248579421231422 0
          -0.0007612475321864048 -0.0011537241851094738 0 0 0 0
          -0.006413797180257587 0.010995735075383888 0 -0.00007633550227426838 0.000013115352994684488 0
          0.000021618307661677573 0.00005679422173034228 0 0.0024682488951256543 0.0000700685765183863 0
          -0.0011663391531175746 0.0007065247578921627 0 0 0 0
          -0.00010683770370449857 -0.0000968449001581281 0 -0.00017105079276444847 -0.0003589784539791123 0
          0 0 0 -0.000132131312390788 0.00009338773717438209 0
          0.002274601692829316 -0.002326936153423198 0 0 0 0
          -0.00015909811000655314 -0.00013643312168069792 0 0.001629758411207144 0.0017157837877870353 0
          -0.00026534631233551234 -0.00004849032544746611 0 0.0043108146821385675 0.0005385715398389894 0
          -0.002491118329978298 0.0013334289882778415 0 -0.00034492452927816706 -0.00005260515233931109 0
          -0.0035387593694938616 0 0 -0.0014258401443233177 -0.0010052393732469741 0
          -0.0006640631371661324 0.0001853890133929883 0 0.016447503492655714 0 0
          -0.0006441239067633212 -0.00038738615120812966 0 0.0015020049857892466 -0.0017641319142025463 0
          0.000617627866015182 0.0018466694234347439 0 -0.002951459491937195 -0.0005494412731549244 0
          0.002996463714961678 -0.002868613348905184 0 -0.03505832442859655 0.013740589001892182 0
          -0.02824264456490832 0.0000468973285323881 0 0.003585810871706319 0.0009889557073449594 0
          0.002702686725322383 0.0007802427641423699 0 -0.015333134903266512 0.004192325009670383 0
          0.003159936700871997 0.002412529770797347 0 0.003701027289260016 -0.001219701442064412 0
          -0.054048751971000945 0.003999916147257492 0 -0.015251934739986142 -0.012297058549800703 0
          -0.003677406235915666 -0.01302322598499315 0 -0.015008483626136151 0.002531947994328769 0
          -0.010228341893067785 0.010253084476972566 0 -0.06603339339387454 -0.009603274996313846 0
          -0.016051365316432926 -0.003916682334880205 0 -0.06700213639193475 -0.00012006641409874734 0
          0.058959958788423555 -0.003243196445122114 0 0.088647370820701 -0.011329258553468606 0
          0.11132625367384086 0.0018907766227043844 0 0.11473345719392303 -0.0025095030019078204 0
          0.06513945716356931 0.0043832040539754326 0 0.12465488859814021 0.001558297981486054 0
          0.013056943925187544 0 0 -0.04976384512628104 -0.007261633612041373 0
          0.12941560057652327 0.0002454743716218208 0 0.13142307795911223 -0.0011500735422817977 0
          0.0683540714670926 -0.005534994642308343 0 0.1002668096361401 0.0032226784416166387 0
          1 0 0 1 0 0
          1 0 0 1 0 0
          1 0 0 1 0 0
          1 0 0 0.09314885594764337 0.003151426147173595 0
          1 0 0 0.07494880243645861 0.0029239868604300544 0
          1 0 0 1 0 0
          1 0 0 1 0 0
          1 0 0
          <InformationKey name="L2_NORM_RANGE" location="vtkDataArray" length="2">
            <Value index="0">
              0
            </Value>
            <Value index="1">
              1
            </Value>
          </InformationKey>
        </DataArray>
        <DataArray type="Float64" Name="Energy" format="ascii" RangeMin="1.541059168153844" RangeMax="2.2232">
          1.7232000000042942 1.7231999999958312 1.72320000000156 1.7231999999981706 1.7232000001149541 1.7232000000103682
          1.7231999999840415 1.7232000000805994 1.7231999995877336 1.7232000004840444 1.7232000000002576 1.7231999994202016
          1.723200000001993 1.7232000067123492 1.7232000000056382 1.7231999986772228 1.723200004661019 1.7232000001662882
          1.7232000000013936 1.7231999999987277 1.723199987387055 1.7232000000382732 1.7231999999052308 1.7231999830993296
          1.7232000169830566 1.723200000270244 1.7232000095255808 1.7232000018963185 1.7231999973880834 1.7232000484373748
          1.7231999660585686 1.7231999946186638 1.7232000796629454 1.7232000371104896 1.723200027227282 1.7231999556465794
          1.7232001101551853 1.7231934817944394 1.7232000622817771 1.7231999314768716 1.7231955363004798 1.7231998667103694
          1.7231997161976373 1.7232243660786108 1.7231976720965092 1.7231981816600996 1.7231998268505153 1.7232084286107627
          1.7231991450037276 1.7231984737814736 1.7232004206375497 1.723201478192726 1.7228263175495706 1.7232033123864459
          1.723206799737483 1.7232014284854529 1.723196144986007 1.723200852769237 1.7232140474761972 1.7232022085700789
          1.7231970895490965 1.7232007453560152 1.722602461744492 1.7251722840195205 1.7231950057140477 1.723169893949367
          1.723191673290743 1.7229597271544568 1.7231991640542346 1.723197567867994 1.723209799813621 1.7232974454231258
          1.7231836920284087 1.7232002491897647 1.7233235930139466 1.7230633684554855 1.723184598554694 1.7231881122667023
          1.722862832448539 1.7232039565440493 1.7232849554942926 1.723166338755193 1.7231986267699226 1.7232033877835395
          1.723193625014429 1.723193241983541 1.7232198310698543 1.7060094984832581 1.7242269201569005 1.7232267909836094
          1.7206516317677432 1.7230177751850115 1.7231986783610291 1.7232685453715606 1.7231484921024127 1.7232201464610652
          1.7233198915765795 1.7238928043271036 1.7232084653436002 1.7231692575755642 1.7218001293313505 1.7232907318747268
          1.7231687799446813 1.723215088463521 1.7232204240863462 1.7231817220818881 1.7175439168149942 1.7220101561131727
          1.7232872071601106 1.7231432957980302 1.7232063194311504 1.7232818201946294 1.7216490473408035 1.723166382391593
          1.6986991306593227 1.723198780814338 1.7233085555652616 1.7298421103323929 1.7199916856758501 1.7237442692831468
          1.7229837433398 1.7219060530538497 1.7239057840419671 1.7227824092396629 1.7302389095408717 1.7237454143219493
          1.7226794996800743 1.725107371578144 1.72256593878257 1.7328029623708987 1.716993768122575 1.722298009456131
          1.7120018661438117 1.7200939417683399 1.7211281288579563 1.7617028644512838 1.721009491644129 1.7261694234787976
          1.7223624507548194 1.715910157016591 1.727662015333082 1.6329614808363766 1.6439729814773687 1.7301284807777293
          1.730526142789295 1.6694062882699992 1.7273239019258322 1.7288105531642413 1.5768424861941133 1.6688371162841458
          1.7047775722236207 1.6692323218636054 1.6874913404531888 1.548182407847714 1.6623437678552626 1.541059168153844
          1.8870944087696973 1.9659191842069794 2.02363217092158 2.034725094615617 1.9037703237382517 2.0604893185209168
          1.754729086510629 1.606255599206824 2.0582670876097464 2.0807424324450867 1.9121769240477482 1.982263685822888
          2.2232 2.2232 2.2232 2.2232 2.2232 2.2232
          2.2232 1.9749107290893846 2.2232 1.92475886342338 2.2232 2.2232
          2.2232 2.2232 2.2232
        </DataArray>
      </PointData>
      <CellData>
        <DataArray type="UInt8" Name="vtkGhostType" format="ascii" RangeMin="0" RangeMax="0">
          0 0 0 0 0 0
          0 0 0 0 0 0
          0 0 0 0 0 0
          0 0 0 0 0 0
          0 0 0 0 0 0
          0 0 0 0 0 0
          0 0 0 0 0 0
          0 0 0 0 0 0
          0 0 0 0 0 0
          0 0 0 0 0 0
          0 0 0 0 0 0
          0 0 0 0 0 0
          0 0 0 0 0 0
          0
        </DataArray>
      </CellData>
      <Points>
        <DataArray type="Float32" Name="Points" NumberOfComponents="3" format="ascii" RangeMin="0" RangeMax="7.102112369882704">
          7 1.2000000476837158 0 6.5 1.2000000476837158 0
          7 0.6000000238418579 0 6.5 0.6000000238418579 0
          6 1.2000000476837158 0 7 -2.220446049250313e-16 0
          6.25 0.16698729991912842 0 5.75 0.7669873237609863 0
          5.5 1.2000000476837158 0 5.5 0.33397459983825684 0
          7 -0.6000000238418579 0 5.25 0.7669873237609863 0
          6.5 -0.6000000238418579 0 5 1.2000000476837158 0
          5.75 -0.4330126941204071 0 5 2.220446049250313e-16 0
          4.75 0.4330126941204071 0 5.25 -0.4330126941204071 0
          7 -1.2000000476837158 0 6.5 -1.2000000476837158 0
          4.5 1.2000000476837158 0 6 -1.2000000476837158 0
          5.5 -1.2000000476837158 0 4.25 0.4330126941204071 0
          4.5 -0.33397459983825684 0 4.75 -0.7669873237609863 0
          4 1.2000000476837158 0 5 -1.2000000476837158 0
          4.25 -0.7669873237609863 0 3.6823039054870605 0.4431717097759247 0
          3.9323039054870605 -0.32381561398506165 0 4.5 -1.2000000476837158 0
          3.5 1.2000000476837158 0 4 -1.2000000476837158 0
          3.6823039054870605 -0.7568283081054688 0 3.1823039054870605 0.4431717097759247 0
          3.364607095718384 -0.31365659832954407 0 3 1.2000000476837158 0
          2.953885078430176 0.029621059074997902 0 3.5 -1.2000000476837158 0
          2.771580934524536 0.7864493131637573 0 3.1823039054870605 -0.7568283081054688 0
          2.9061310291290283 -0.4530656039714813 0 2.5 1.2000000476837158 0
          2.5431621074676514 0.3728986978530884 0 3 -1.2000000476837158 0
          2.495408058166504 -0.10978800058364868 0 2.271580934524536 0.7864493131637573 0
          2.7238268852233887 -0.8962373733520508 0 2.2451179027557373 0.2950834035873413 0
          2.4476540088653564 -0.5924746990203857 0 2.197364091873169 -0.18760329484939575 0
          2 1.2000000476837158 0 1.9735369682312012 0.708634078502655 0
          2.5 -1.2000000476837158 0 1.947074055671692 0.2172681987285614 0
          2.0834739208221436 -0.4830414056777954 0 2.2238268852233887 -0.8962373733520508 0
          1.766793966293335 0.8914316296577454 0 1.7403310537338257 0.40006569027900696 0
          1.833184003829956 -0.07816994935274124 0 1.696537971496582 0.15281939506530762 0
          1.5884170532226562 0.9876154065132141 0 1.5 1.2000000476837158 0
          1.5335869789123535 0.5828632116317749 0 1.7192939519882202 -0.3736081123352051 0
          1.8596470355987549 -0.7868040204048157 0 2 -1.2000000476837158 0
          1.4897949695587158 0.3356168866157532 0 1.5826480388641357 -0.1426188051700592 0
          1.4460029602050781 0.08837053179740906 0 1.3552099466323853 0.6790469884872437 0
          1.339123010635376 0.4750398099422455 0 1.4790019989013672 -0.34034401178359985 0
          1.5011229515075684 -0.5437853932380676 0 1.641476035118103 -0.9569813013076782 0
          1.2953310012817383 0.22779349982738495 0 1.3423570394515991 -0.10935469716787338 0
          1.1768330335617065 0.7752308249473572 0 1.2693469524383545 0.06596699357032776 0
          1.1607470512390137 0.5712236166000366 0 1.1446599960327148 0.36721640825271606 0
          1.0884170532226562 0.9876154065132141 0 1.2387109994888306 -0.3070800006389618 0
          1.1186749935150146 0.20538990199565887 0 1.1657010316848755 -0.13175830245018005 0
          1.2608319520950317 -0.5105212926864624 0 1 1.2000000476837158 0
          1.5 -1.2000000476837158 0 1.0926909446716309 0.043563440442085266 0
          1.2829530239105225 -0.7139626741409302 0 0.9874739050865173 0.6781361103057861 0
          1.0298000574111938 0.28314921259880066 0 0.9713870286941528 0.4741289019584656 0
          1.0038150548934937 0.12132269889116287 0 1.0768250226974487 -0.25308090448379517 0
          1.0993930101394653 -0.3733969032764435 0 0.8990572094917297 0.8905206918716431 0
          0.9963455200195312 0.021781720221042633 0 1.0038150548934937 -0.07775924354791641 0
          1.1215139627456665 -0.5768383145332336 0 0.9149399995803833 0.1990818977355957 0
          0.9074699878692627 0.09954095631837845 0 0.8565272092819214 0.39006170630455017 0
          0.8999999761581421 0 0 0.9074699878692627 -0.09954095631837845 0
          0.7981144189834595 0.5810413956642151 0 1.141476035118103 -0.9569813013076782 0
          0.9149399995803833 -0.1990818977355957 0 0.8500000238418579 0.08660253882408142 0
          0.9375075101852417 -0.319397896528244 0 0.8324699997901917 0.14284220337867737 0
          0.9600750803947449 -0.43971389532089233 0 0.8500000238418579 -0.08660253882408142 0
          0.7150853276252747 1.018962025642395 0 0.7654337286949158 0.21538899838924408 0
          0.8324699997901917 -0.14284220337867737 0 0.9678938984870911 -0.6856740713119507 0
          0.7070209980010986 0.4063687026500702 0 0.75 0.08660253882408142 0
          0.8092945218086243 -0.23232249915599823 0 0.8318619728088379 -0.35263851284980774 0
          0.75 -0.08660253882408142 0 0.6829637289047241 0.15914930403232574 0
          0.6141425967216492 0.7094823122024536 0 0.699999988079071 0 0
          0.7268245220184326 -0.1760828047990799 0 0.8064550161361694 -0.5485497117042542 0
          0.6600599884986877 0.04330126941204071 0 0.5785459280014038 0.5376487970352173 0
          0.615927517414093 0.23169609904289246 0 0.6600599884986877 -0.04330126941204071 0
          1 -1.2000000476837158 0 0.7036489844322205 -0.26556310057640076 0
          0.5930237174034119 0.11584799736738205 0 0.5 1.2000000476837158 0
          0.6368845105171204 -0.13278159499168396 0 0.8264175057411194 -0.9286928176879883 0
          0.678242027759552 -0.46147438883781433 0 0.5701199769973755 2.220446049250313e-16 0
          0.4874523878097534 0.3629761040210724 0 0.4301707148551941 0.8379232287406921 0
          0.6528350114822388 -0.6573855876922607 0 0.46278950572013855 0.17328590154647827 0
          0.5381790995597839 -0.23345430195331573 0 0.39457398653030396 0.6660897135734558 0
          0.47141459584236145 -0.10067269951105118 0 0.4398857057094574 0.05743790045380592 0
          0.3589772880077362 0.4942561089992523 0 0.5127720832824707 -0.42936548590660095 0
          0.7066044211387634 -1.0821729898452759 0 0.33431440591812134 0.30456599593162537 0
          0.5330219268798828 -0.8108659982681274 0 0.3727092146873474 -0.2013455033302307 0
          0.34118029475212097 -0.04323484003543854 0 0.3096514046192169 0.11487580090761185 0
          0.21508529782295227 1.018962025642395 0 0.21508529782295227 0.8189616203308105 0
          0.17948870360851288 0.6471279859542847 0 0.17948870360851288 0.4471279978752136 0
          0.3264175057411194 -0.5286927819252014 0 0.15482570230960846 0.25743791460990906 0
          0.5 -1.2000000476837158 0 0.4132086932659149 -0.9643464088439941 0
          0.1863546073436737 -0.10067269951105118 0 0.15482570230960846 0.05743790045380592 0
          0.3264175057411194 -0.7286928296089172 0 0.1863546073436737 -0.300672709941864 0
          0 1.2000000476837158 0 0 1 0
          0 0.800000011920929 0 0 0.6000000238418579 0
          0 0.4000000059604645 0 0 0.20000000298023224 0
          0 0 0 0.20660440623760223 -0.8821731805801392 0
          0 -0.20000000298023224 0 0.20660440623760223 -1.0821729898452759 0
          0 -0.4000000059604645 0 0 -0.6000000238418579 0
          0 -0.800000011920929 0 0 -1 0
          0 -1.2000000476837158 0
          <InformationKey name="L2_NORM_RANGE" location="vtkDataArray" length="2">
            <Value index="0">
              0
            </Value>
            <Value index="1">
              7.1021123699
            </Value>
          </InformationKey>
        </DataArray>
      </Points>
      <Cells>
        <DataArray type="Int64" Name="connectivity" format="ascii" RangeMin="0" RangeMax="182">
          104 122 108 113 116 105
          122 119 139 125 128 131
          119 104 101 109 102 111
          108 122 133 116 126 120
          139 119 130 128 123 134
          101 104 89 102 98 94
          104 108 89 105 99 98
          122 139 133 131 136 126
          119 101 130 111 115 123
          108 133 112 120 121 110
          139 130 155 134 143 147
          101 89 81 94 84 92
          112 133 142 121 138 127
          155 130 148 143 140 151
          81 89 70 84 79 76
          108 112 83 110 96 95
          139 155 153 147 154 146
          101 81 106 92 93 103
          142 133 153 138 144 149
          70 89 83 79 85 77
          153 155 174 154 165 164
          174 155 172 165 161 173
          148 130 106 140 118 129
          83 112 90 96 100 86
          106 81 78 93 80 91
          112 142 90 127 117 100
          81 70 64 76 68 72
          139 153 133 146 144 136
          155 148 172 151 159 161
          172 148 170 159 158 171
          108 83 89 95 85 99
          101 106 130 103 118 115
          153 174 178 164 176 167
          153 178 142 167 160 149
          168 170 141 169 157 156
          178 180 142 179 166 160
          180 182 163 181 177 175
          90 142 132 117 137 107
          78 81 64 80 72 71
          78 64 52 71 58 62
          64 70 55 68 61 59
          83 90 65 86 74 73
          106 78 87 91 82 97
          170 148 141 158 145 157
          87 78 52 82 62 63
          168 141 87 156 114 135
          163 182 132 177 162 150
          180 163 142 175 152 166
          142 163 132 152 150 137
          55 70 65 61 69 60
          64 55 52 59 53 58
          65 90 67 74 75 66
          83 65 70 73 69 77
          148 106 141 129 124 145
          90 132 67 107 88 75
          87 141 106 114 124 97
          65 67 50 66 57 56
          50 67 45 57 54 48
          65 50 55 56 51 60
          50 45 36 48 41 42
          52 55 44 53 49 47
          44 55 50 49 51 46
          52 44 37 47 40 43
          37 44 36 40 38 35
          36 45 33 41 39 34
          50 36 44 42 38 46
          33 27 24 31 25 28
          4 13 9 8 11 7
          24 27 9 25 17 15
          9 13 24 11 16 15
          4 9 5 7 6 3
          21 18 5 19 10 12
          26 37 36 32 35 29
          27 21 9 22 14 17
          13 26 24 20 23 16
          0 4 5 1 3 2
          33 24 36 28 30 34
          36 24 26 30 23 29
          5 9 21 6 14 12
        </DataArray>
        <DataArray type="Int64" Name="offsets" format="ascii" RangeMin="6" RangeMax="474">
          6 12 18 24 30 36
          42 48 54 60 66 72
          78 84 90 96 102 108
          114 120 126 132 138 144
          150 156 162 168 174 180
          186 192 198 204 210 216
          222 228 234 240 246 252
          258 264 270 276 282 288
          294 300 306 312 318 324
          330 336 342 348 354 360
          366 372 378 384 390 396
          402 408 414 420 426 432
          438 444 450 456 462 468
          474
        </DataArray>
        <DataArray type="UInt8" Name="types" format="ascii" RangeMin="22" RangeMax="22">
          22 22 22 22 22 22
          22 22 22 22 22 22
          22 22 22 22 22 22
          22 22 22 22 22 22
          22 22 22 22 22 22
          22 22 22 22 22 22
          22 22 22 22 22 22
          22 22 22 22 22 22
          22 22 22 22 22 22
          22 22 22 22 22 22
          22 22 22 22 22 22
          22 22 22 22 22 22
          22 22 22 22 22 22
          22
        </DataArray>
      </Cells>
    </Piece>
  </UnstructuredGrid>
</VTKFile>
