<?xml version="1.0"?>
<VTKFile type="UnstructuredGrid" version="0.1" byte_order="LittleEndian" header_type="UInt32" compressor="vtkZLibDataCompressor">
  <UnstructuredGrid>
    <Piece NumberOfPoints="27" NumberOfCells="16">
      <PointData>
        <DataArray type="Float64" Name="Displacement" NumberOfComponents="3" format="ascii" RangeMin="0" RangeMax="0.00020010124684719812">
          0 0 0 5.12442022900448e-7 1.0599183766759688e-7 0
          0 0 0 0.000013761271638175973 0.000011839157354466183 0
          0.000012007142192066046 0.000012005820287272086 0 0.000012036250814482403 0.000012489088036979713 0
          -0.00008509097958512412 -0.00005694782305130418 0 -0.00008005887620069326 -0.00005667705060041694 0
          -0.00007811236291680631 -0.00005692297765447011 0 0.00008141092357224289 0.0001525745830119246 0
          0.00007550465241200151 0.00015291810793407326 0 0.0000730467536263785 0.00015385469198249692 0
          -0.00003731672940785556 -0.00016308999193977302 0 -0.00003649913698647874 -0.00016276358268457804 0
          -0.00003860657225059986 -0.00016294149419626328 0 0.00003538710922022223 0.000040891218853695615 0
          0.00003790960454049381 0.000039851209652139746 0 0.00004290369312027096 0.000039211066852880424 0
          -0.000054842971852997866 0.00002056004368610219 0 -0.00005377174109624116 0.00002068123751773365 0
          -0.00005485848402508717 0.000020469125653144743 0 0.0000295243497029463 0.00011702098684652744 0
          0.000028512642609002768 0.00011839802406540261 0 0.000029171620511124903 0.00012001860618009648 0
          0.000008826663575031488 -0.00019510507417539296 0 -0.000006653349368763695 -0.0001965916682755413 0
          -0.00002366278373614897 -0.0001986972109911449 0
          <InformationKey name="L2_NORM_RANGE" location="vtkDataArray" length="2">
            <Value index="0">
              0
            </Value>
            <Value index="1">
              0.00020010124685
            </Value>
          </InformationKey>
        </DataArray>
      </PointData>
      <CellData>
        <DataArray type="UInt8" Name="vtkGhostType" format="ascii" RangeMin="0" RangeMax="0">
          0 0 0 0 0 0
          0 0 0 0 0 0
          0 0 0 0
        </DataArray>
        <DataArray type="Float64" Name="Stress" NumberOfComponents="6" format="ascii" RangeMin="13.70219499882296" RangeMax="207.94830974862617">
          11.742177260480785 -0.9152548899245951 0 7.00240883237233 0 0
          -106.13305129899237 -38.41438866953053 0 -36.01258298388008 0 0
          173.24472714666572 48.898637137251804 0 83.1087284663874 0 0
          -132.53286232418048 -53.91977690686403 0 -99.58111822218166 0 0
          93.70319576103495 41.69240471327608 0 63.83245871469195 0 0
          -105.06712023377911 -24.10802767315375 0 -26.043244785435366 0 0
          89.00591551794716 11.638632282248608 0 39.91513075615741 0 0
          -48.33943403993265 -9.900628757135534 0 -43.206815934857175 0 0
          13.237335368197634 0.9221696954293361 0 10.517580477771768 0 0
          -112.11478639156762 -42.97103839516157 0 -42.14765202167155 0 0
          182.43365428866488 52.93916544885399 0 84.60440929273923 0 0
          -136.18317427488097 -53.997570875157464 0 -96.85176385386694 0 0
          88.13560917948257 38.50051191893189 0 62.00929498403276 0 0
          -100.40470239567811 -21.702273583610086 0 -24.842232838666696 0 0
          88.77054890112763 10.412446719929878 0 36.984615713527326 0 0
          -31.62198737896176 -9.131152989938016 0 -41.25710931718759 0 0
          <InformationKey name="L2_NORM_RANGE" location="vtkDataArray" length="2">
            <Value index="0">
              13.702194999
            </Value>
            <Value index="1">
              207.94830975
            </Value>
          </InformationKey>
        </DataArray>
        <DataArray type="Float64" Name="Strain" NumberOfComponents="6" format="ascii" RangeMin="0.000017766946778936814" RangeMax="0.0002259304476288083">
          0.000009412472292531433 -0.0000037727296479197693 0 0.000014588909287249974 0 0
          -0.00007288167094670795 -0.0000023731388498235117 0 -0.00007499262264361992 0 0
          0.00012271072198460057 -0.000006906186397957704 0 0.00017326245236626249 0 0
          -0.00008942684201219733 -0.0000075856317256834315 0 -0.0002073399751249177 0 0
          0.00006238265589744496 0.000008181837296767923 0 0.0001330399323480248 0 0
          -0.00007577442202899158 0.000008523965651589975 0 -0.00005423539020008857 0 0
          0.00006653112142654726 -0.00001408448739067405 0 0.00008318333029649894 0 0
          -0.000035167403655766416 0.000004868418919740588 0 -0.00008998462382765109 0 0
          0.000010102484972315402 -0.000002726381214534195 0 0.000021912568103622372 0 0
          -0.00007636287879840088 -0.000004373039283874954 0 -0.00008776493606343585 0 0
          0.00012884852675280382 -0.000006140922431654094 0 0.00017638879990280573 0 0
          -0.00009225642893737041 -0.000006697271089707604 0 -0.00020165472347047074 0 0
          0.000058859989183001386 0.000007136662297380592 0 0.0001292367189474321 0 0
          -0.00007276179842323594 0.000009188899229706048 0 -0.000051735249908776214 0 0
          0.00006666592048475566 -0.000014982099496887239 0 0.00007707465188381041 0 0
          -0.000022313753847920493 0.000001112793791998998 0 -0.00008593306093970149 0 0
          <InformationKey name="L2_NORM_RANGE" location="vtkDataArray" length="2">
            <Value index="0">
              1.7766946779e-05
            </Value>
            <Value index="1">
              0.00022593044763
            </Value>
          </InformationKey>
        </DataArray>
      </CellData>
      <Points>
        <DataArray type="Float32" Name="Points" NumberOfComponents="3" format="ascii" RangeMin="0" RangeMax="10.000499987515525">
          0 0.10000000149011612 0 0 0.05000000074505806 0
          0 0 0 1.25 0.10000000149011612 0
          1.25 0.05000000074505806 0 1.25 0 0
          2.5 0.10000000149011612 0 2.5 0.05000000074505806 0
          2.5 0 0 3.75 0.10000000149011612 0
          3.75 0.05000000074505806 0 3.75 0 0
          5 0.10000000149011612 0 5 0.05000000074505806 0
          5 0 0 6.25 0.10000000149011612 0
          6.25 0.05000000074505806 0 6.25 0 0
          7.5 0.10000000149011612 0 7.5 0.05000000074505806 0
          7.5 0 0 8.75 0.10000000149011612 0
          8.75 0.05000000074505806 0 8.75 0 0
          10 0.10000000149011612 0 10 0.05000000074505806 0
          10 0 0
          <InformationKey name="L2_NORM_RANGE" location="vtkDataArray" length="2">
            <Value index="0">
              0
            </Value>
            <Value index="1">
              10.000499988
            </Value>
          </InformationKey>
        </DataArray>
      </Points>
      <Cells>
        <DataArray type="Int64" Name="connectivity" format="ascii" RangeMin="0" RangeMax="26">
          5 4 1 2 8 7
          4 5 11 10 7 8
          14 13 10 11 17 16
          13 14 20 19 16 17
          23 22 19 20 26 25
          22 23 4 3 0 1
          7 6 3 4 10 9
          6 7 13 12 9 10
          16 15 12 13 19 18
          15 16 22 21 18 19
          25 24 21 22
        </DataArray>
        <DataArray type="Int64" Name="offsets" format="ascii" RangeMin="4" RangeMax="64">
          4 8 12 16 20 24
          28 32 36 40 44 48
          52 56 60 64
        </DataArray>
        <DataArray type="UInt8" Name="types" format="ascii" RangeMin="9" RangeMax="9">
          9 9 9 9 9 9
          9 9 9 9 9 9
          9 9 9 9
        </DataArray>
      </Cells>
    </Piece>
  </UnstructuredGrid>
</VTKFile>
