<?xml version="1.0"?>
<VTKFile type="UnstructuredGrid" version="0.1" byte_order="LittleEndian" header_type="UInt32" compressor="vtkZLibDataCompressor">
  <UnstructuredGrid>
    <Piece NumberOfPoints="164" NumberOfCells="275">
      <PointData>
        <DataArray type="Float64" Name="Velocity" NumberOfComponents="3" format="ascii" RangeMin="0" RangeMax="1.1511292127473831">
          1.1223894962996432 0 0 0.9693113766093355 -0.0027089202026184087 0
          0.572520699503655 0 0 0.6123954934478123 -0.045055943915371904 0
          0.8981109721187922 0.01740257064122641 0 0.7882960005528105 0 0
          0.8544738913885002 -0.003938357501156711 0 0.7472560026596307 0.015381825027987541 0
          0.5253029610266325 -0.0004480201281124666 0 1.1511290083049832 0.0006860606355158823 0
          0.770864374139979 0 0 0.7366270698210993 -0.00006444325494782463 0
          0.7396051251381012 -0.0023869548027295154 0 0.8368050114379093 -0.0051212430227850535 0
          0.7515826486548502 -0.014075183976054867 0 0.9236750827845975 -0.01580995324424301 0
          0.7758040081929122 0 0 0.7801168324321589 -0.0009979260634851057 0
          0.7520170959709408 -0.0010137081114072193 0 0.7669247665390267 0.0004293887300727847 0
          0.7431330251776778 0.0033490259472378704 0 0.5900856054726257 -0.0012088712511339648 0
          0.7623473035958733 -0.00030656357435194506 0 0.7600387646088921 0.00030130458245322764 0
          0.8018447784953804 -0.0015812712860438086 0 0.921952769001282 0.01793245200865806 0
          0.7613314415642252 0 0 0.7733383347732565 -0.000965982196669473 0
          0.7661314778401408 0.0002394229558649418 0 0.7570079007418691 0.00012365473430854385 0
          0.7524531664763988 0.017001494730196128 0 0.7653632103748172 -0.0000026645270154326423 0
          0.761501744616756 0.0008656639737807889 0 0.7657366632413201 0.0010468794256087135 0
          0.7438702064680299 -0.0011676201045677872 0 1.1405317136087971 0.003899736505179964 0
          0.7666116518606572 0 0 0.7617707600764632 0.00007120388956311597 0
          0.7647254822920116 0.0009213291227205766 0 0.533537569962554 -0.002115519212356914 0
          0.7721033044682689 0.001234262505399367 0 0.827118084168208 0.0019239922889943179 0
          0.7639709628714559 -0.0005060640869530459 0 0.7643630026004531 0.0010928826927798527 0
          0.7656848761953277 -0.0007306026445452328 0 0.7650960275195925 0.0009499268205484715 0
          0.7557472706148787 0.002735531931320642 0 0.8698197951199097 0.0030900718924777694 0
          0.7676277162705022 0 0 0.7633878744981086 -0.0005202508918191692 0
          0.7661348965926973 0.0022952333940274936 0 0.7755582868364718 0.005381580435317648 0
          0.7635665456519083 -0.0008640170778314676 0 0.7630848111871258 0.0006352793157091473 0
          0.7630533192774289 0.00011200152566501465 0 0.7624551652196191 0.002526376096466664 0
          0.7383166461293593 0.001202101222437751 0 0.7629568289181375 -0.0006876378807001095 0
          0.7660553796423482 0.0029438248147395304 0 0.7767266805565796 0.001168160952170367 0
          1.1285250049873643 0 0 0.7684473868751589 0 0
          0.7656209683343328 0.0010417032031889038 0 0.54162154267494 0 0
          0.7687495679273222 0.0028994039277053965 0 0.8240928647106764 0 0
          0.7621410898363985 -0.0011105889624449725 0 0.7607222377737929 0.00041194338493126504 0
          0.7622222907895294 0.0012661103850197801 0 0.7649594794686903 -0.002029027853066842 0
          0.7591489721882507 0.007007317162144034 0 0.7604760927025102 0 0
          0.7654467489355845 -0.0010326579185645638 0 0.7602817873105429 0.009693169198293902 0
          0.7617480722074236 0 0 0.7776104811593997 0 0
          0.765958337340834 -0.0016981377332392906 0 0.7704712849556798 0.009139201727238245 0
          0.7631396063366498 -0.004629979185034408 0 0.7486275007093057 0.004154124106396174 0
          0.7648402256841892 -0.001500200264887462 0 0.7716617106961853 0.010866767278025114 0
          0.7694105917353679 0 0 0.7526217019702562 -0.0021321495436047925 0
          0.7663416416963857 -0.001382241702937587 0 0.78564850807198 0.01010021846844529 0
          0.7658599525463898 0 0 0.7769338745439718 0 0
          0.7477701163789255 0.035464221917299796 0 0.7624057244394447 -0.008018090495848649 0
          0.7670974063114319 -0.002866015454310486 0 0.7096934180372597 0.03293477153088977 0
          0.7469448748542303 -0.028984570819701287 0 0.766167866302649 0 0
          0.7288170982407716 0.03941557228400567 0 0.8067693414306215 0.007097149610671908 0
          0.770891968822815 -0.012992853528038953 0 0.7839677747808557 0 0
          0.7739516311847814 -0.002800209700878811 0 0.7645317898504544 -0.019174694620587452 0
          0.7693580711477258 0 0 0.6706359717611172 -0.0026387967088867827 0
          0.7066661150186813 -0.054059801856873285 0 0.7783684109176391 0.04320087041313597 0
          0.8119510337579788 -0.0008592095513036706 0 1.0061145521297004 0.14343778638908683 0
          0.7929406132676748 -0.015153626734676769 0 0.7923030478081198 0 0
          0.7732068019466743 0 0 0 0 0
          0.776515137831499 -0.010700519461042106 0 1.0861804414463516 -0.18111966966971746 0
          1.0435291269160885 -0.03728955625509782 0 0.7850912299702605 -0.009066481367863756 0
          0.759110152829655 -0.05326866709718132 0 0.7995096214729982 -0.007522585973323523 0
          0 0 0 0.786410805552177 0 0
          0 0 0 0.7949413252914567 0 0
          0 0 0 0 0 0
          0.8063864028853149 -0.008983116443075692 0 0.8149643299834118 -0.012610750065283822 0
          1.0099869332930362 -0.21631532879077803 0 0.7408842362807629 -0.06023955238052807 0
          0.9706970830839113 0.02323300344721691 0 0.5861556609843186 0.04519315050105526 0
          0.8010536689091099 0.014638799058707255 0 1.0895937600569265 0.25335289767012276 0
          0.7878579400062079 0 0 0.7695533611379738 0 0
          0.6940959766922937 -0.02006944618878903 0 0.7421600357858479 -0.0189115114539798 0
          0.7796073620459967 -0.041071543018552245 0 0.6441441962577524 -0.02078417405359038 0
          0.6842023821286396 0.06648517601239527 0 0.7984482640310775 0.005940220101861281 0
          0.79398573457375 0 0 0.7218642453027883 0.06406556480327572 0
          0.778135408521531 0.009787317490638622 0 0.7570767084926038 -0.011540495392975395 0
          0.744256132666576 0 0 0.7272809294049352 0.001557398376354312 0
          0.7342633190288109 0.00531259600893329 0 0.7691886611449666 -0.013688103421259661 0
          0.7258248867346416 0.04162689053841761 0 0.7948825203440854 0 0
          0.7933571808698525 0.011000309231450447 0 0.7862396455833432 0.022605719156307852 0
          0.7300062696519095 -0.005821442539795179 0 0.9999999471853185 0 0
          0.999999947185318 0 0 0.7453476036848359 0.01881888483591499 0
          0.9999999471853185 0 0 0.7560294542926557 0 0
          0.9999999471853185 0 0 0.7250160236492226 0.010061728283405583 0
          0.9999999471853185 0 0 0.9999999471853178 0 0
          0.7875274380678388 0 0 0.9999999471853183 0 0
          0.9999999471853185 0 0 0.999999947185318 0 0
          <InformationKey name="L2_NORM_RANGE" location="vtkDataArray" length="2">
            <Value index="0">
              0
            </Value>
            <Value index="1">
              1.1511292127
            </Value>
          </InformationKey>
        </DataArray>
        <DataArray type="Float64" Name="Pressure" format="ascii" RangeMin="1.0452753824105079" RangeMax="121.09315631672256">
          1.3076523767922354 1.2173973345539566 7.447790141000413 7.766737769726807 1.156790315842637 15.475076492631917
          15.63360528857928 11.626164798500913 7.642610743472449 1.1374961924812004 23.117142638461196 19.294468523754805
          23.112524834597174 15.599106014379181 11.043827563812904 1.1413994797368787 30.79633683671194 26.973814263171807
          23.133966622134583 30.78991358635162 19.316124901210344 7.690574805103092 30.796453859761524 34.604869758955054
          15.594709366972841 1.1345306487659015 38.43356168361931 26.983235037367507 38.436742038873994 23.15601251421609
          11.052588617281607 38.42491099439224 34.60736824380648 42.25797099430566 19.32301027014895 1.0936092968511577
          46.094032845772695 30.781283049386925 46.087107539792136 7.630935344465389 26.97182532060162 15.571389507987064
          42.24907037754984 46.0713959722451 38.43196124674784 49.9053755184398 23.128336047826256 1.0452753824105079
          53.7570887274827 34.616971674491126 53.745467186868844 11.010191105061427 30.78553645611963 49.883665573530365
          46.06811742588433 53.71570093305328 19.258900908739584 42.25386613755513 57.55675072690486 26.976716229664586
          1.0816557768413 61.44036451227813 38.43592271280975 7.5690425510519415 61.41077061046027 15.526279875310074
          53.70111976077426 57.5010769734346 34.60619828081041 49.889209660669145 61.32308102827254 23.119264201812904
          46.083872950393314 65.21742371044807 30.760787258132225 69.14927414263813 42.25527146324605 69.41980347103164
          56.63427997903977 66.02092280719668 53.74327426886277 68.91026836144232 38.43796591162903 63.13406864615769
          49.922033938785226 74.40405582031086 46.110072477460264 76.96263045048262 72.54629337628569 62.65338676835378
          57.79699654770486 76.64145708349851 72.64553540061621 53.76084479686699 80.18864195771891 82.24541988634853
          71.30207676319984 84.81969817019535 65.27350825256883 69.99175221576239 61.443679308885564 79.81709806044822
          78.56217151783596 87.82833391600236 89.45707921491594 85.40850521326519 77.21506097668738 92.75011565007048
          69.157185821852 86.1337891078727 75.8671441256581 85.11425815200411 94.05890318885812 95.53648746837453
          84.56291838987536 96.32236042790161 93.75849100457914 76.93298725210552 93.22081873114419 100.6758973861794
          99.93907534102458 99.31235602050447 86.17400550902937 102.12340478005432 101.06920698239664 101.70684912800894
          94.22327802181951 102.61388527444652 92.64279598048371 100.0681029915623 84.8001543783444 108.56389632010064
          107.79942102308425 109.30428637512293 109.24842436606949 107.23302526004578 105.2052285504984 96.54276479661539
          92.74844690657 103.31850668198712 101.37486379801184 114.25452913348708 115.96458126660939 115.78777715836542
          112.52593316570253 114.84057751646654 110.81185258405061 100.6786208581982 105.11706389333746 109.14370024175932
          117.08179611494627 120.3371714277854 120.89598323253851 115.51325862354831 120.80687046832622 108.59012429718656
          120.78394607922725 114.18581157351599 121.09315631672256 120.67679276086804 115.92216605710941 120.83996424516486
          121.03565326749421 120.30795551009983
        </DataArray>
        <DataArray type="Float64" Name="Sigma" NumberOfComponents="6" format="ascii" RangeMin="0.000014550605293276401" RangeMax="0.04477847683396005">
          0.01544066358874599 0.0005883903977514986 0 -0.002738895086991152 0 0
          0.013093326588868266 -0.0003742350036214304 0 -0.0007862113025227549 0 0
          0.00010943225726706851 -0.001027189692115326 0 0.00009755069093077649 0 0
          -0.00011142595665648328 0.00048444362037726696 0 0.0015022780094896696 0 0
          0.007233421618099038 0.0006241262313279261 0 0.00032018478853662553 0 0
          -0.00048143222410843494 0.00004278704636180257 0 0.0008844661280360953 0 0
          -0.0033441132419799098 0.000046772502247748056 0 -0.0004943289460046684 0 0
          -0.0024027766169112267 0.0005252503221058704 0 -0.0010743258620690467 0 0
          0.0009894770513262814 -0.0007929028782389966 0 0.00035765224158141153 0 0
          0.020486501611480537 -0.00046441317341653233 0 0.00033266907131612104 0 0
          -0.00016595629143078018 -0.00008899737565949075 0 -0.0007163073925068852 0 0
          0.0021957796342392064 -0.0000619582646546233 0 0.000299539173191642 0 0
          0.0014193670935436786 -0.000013378682721825007 0 -0.000050387499775627205 0 0
          -0.0029772385928869827 -0.00025196959471205315 0 0.00020903710356772636 0 0
          -0.0027024711108162487 0.00001388532369359044 0 0.0002934745158208081 0 0
          0.008692382462033224 0.00020020911929384801 0 -0.0009686593760136282 0 0
          -0.0006871543560201164 -0.0000017173839429339966 0 -0.00021340169646904005 0 0
          -0.0013398035593126013 0.000010210818680821237 0 0.000002554933842377513 0 0
          0.0006422850302088749 0.00007685570304323225 0 -0.000049562500570244825 0 0
          -0.00014227743086471758 0.000001939002818186667 0 0.00006598191744488126 0 0
          0.001858583071663637 0.00006653628505816116 0 -0.00038161415895185516 0 0
          0.0008294073147682553 0.0008741863645015984 0 0.00002296277412013659 0 0
          0.00022492314526079076 -0.000004365849765065434 0 -0.000051549787990327906 0 0
          0.0004515201622549141 -0.000014146144775507698 0 -0.00004656086762541648 0 0
          -0.0018398218378628108 0.00016935171732019953 0 0.00003351050162482723 0 0
          0.008731036778055794 0.00006261701186909719 0 0.0010069635882493345 0 0
          0.00034971086633770246 0.000006022595377663517 0 0.000023320037417820494 0 0
          -0.0008741605077685403 0.000004544197655297669 0 0.00012296850858313564 0 0
          -0.0001298977675792313 0.000012283883294554496 0 -0.000019718800920109893 0 0
          0.00009335277308094413 -0.00008251693116048741 0 -0.000010439895224552154 0 0
          -0.0026309108098249256 -0.00008822302046468889 0 -0.00036896188503783307 0 0
          -0.00023024760159708648 -0.0000049158895774674805 0 0.00001613751756942579 0 0
          0.00020274954320285217 -0.0000025574988390846785 0 -0.000016770953959444926 0 0
          -0.00008891083504713454 7.441413515431588e-7 0 0.000001994612504886412 0 0
          0.0017300408071975852 0.00007674463436249303 0 0.0002817723927449432 0 0
          0.019538052050756167 -0.00020839173029294593 0 -0.0005740799238312563 0 0
          -0.00010054279722778692 0.000007505344965193347 0 0.000017955228155130283 0 0
          0.00024209960812202126 0.000023905104797196832 0 -0.000005151218969444693 0 0
          0.00006463856354459134 0.000013076963793741372 0 -0.00001976294732235576 0 0
          0.000735682260051898 -0.00026898249252312257 0 -0.00022979242077341013 0 0
          -0.0008075509033123453 0.000008865089237956096 0 -0.000034005830633618965 0 0
          -0.0024866305249237044 -0.00006376929530244811 0 0.00014767655361870008 0 0
          0.000011021694895992294 -0.000006760928186990778 0 -0.00000667324554251784 0 0
          0.00011428020990354531 -0.00001182805749174602 0 -0.00003578411104851105 0 0
          -0.0001471777296053756 -0.000020861479115120332 0 0.00001005683600939991 0 0
          -0.00002970123018196085 -0.0000027557661427811348 0 -0.000008895083328839997 0 0
          0.00040800295569466964 0.000027307684189190954 0 -0.00003884589470472075 0 0
          0.007800728554738739 0.00012491068801577873 0 -0.000055027839615940243 0 0
          0.000005224774814735619 0.00005480442253722778 0 -0.00004549585748988448 0 0
          0.00018465044341450622 0.0000020111744563888957 0 0.00001600334929049975 0 0
          -0.00007782383728033475 0.000007193017625650956 0 0.0000016307668617284717 0 0
          -0.003239374952181877 0.00008941999525368183 0 0.0005022123443486088 0 0
          0.000207280606786939 0.000013592925119812219 0 0.00003409664998424681 0 0
          -0.00004764781207034246 -0.000025859610027825286 0 0.000005151836405714795 0 0
          0.00006239366431904638 -0.000012560707341603996 0 -0.0000018286240105864035 0 0
          -0.00001929460401234869 -0.000018820182984175907 0 -0.00004329194790173357 0 0
          0.0022446809046391476 -0.00003748864657994187 0 -0.00019893023561855624 0 0
          0.000013058116163336075 0.00001413264783498867 0 0.000012564293587755283 0 0
          0.00018354664238190454 0.00005388035343804334 0 -0.0001247397638809311 0 0
          -0.0009606292348758488 -0.000011358299185134355 0 0.000041503581897297815 0 0
          0.019344362413950225 -0.00010082980408244821 0 0.006522368520400923 0 0
          -0.0001720711073910359 0.00003012445397623156 0 0.00006125524356286853 0 0
          -0.00014905541039001008 0.00000711973194909891 0 -5.563470881944958e-7 0 0
          0.0005157215044159114 -0.0002107586998191577 0 -0.0026351979590521143 0 0
          0.00006705868588023879 0.00009062180913763657 0 -0.00011166393673070337 0 0
          -0.002180940756750114 -0.00012789066706730935 0 0.000398381391929299 0 0
          0.00009761904144479642 -0.00007648837428311579 0 -0.0000041528553846827065 0 0
          0.0004050889583665123 -0.00003835994646386936 0 -0.00003829827443854382 0 0
          0.00021020408777916701 0.000004376306318642569 0 0.000028470563352680457 0 0
          -0.00006789392195308791 -0.000005562969876922922 0 0.00004360504122554634 0 0
          -0.00003332079620330154 -0.00005951651464978459 0 -0.00006558624352659977 0 0
          0.00020067631976381227 -0.000008323277186316036 0 0.00033942184870204084 0 0
          0.000026365224486435994 -0.000013146592438528232 0 0.00002379819401243543 0 0
          -0.0006197025830562206 -0.0000419695487024686 0 0.00007129410621829161 0 0
          0.0003255029272769734 -0.00005404025257101256 0 -0.0002506452850864906 0 0
          0.00005518972980158275 0.000181720084250364 0 -0.00017140575009038056 0 0
          -0.000015243980722530295 -0.000010155544036830986 0 0.00002352888158914812 0 0
          -0.00021561047782137034 0.0001486558651625048 0 -0.00007527416799880104 0 0
          0.00023829599157719893 -0.00004776501247684401 0 0.00003100881554612891 0 0
          -0.0005974281668222189 -0.00046157137263272863 0 -0.0002540726990201892 0 0
          0.000046337569227266655 0.000056379112231596016 0 0.000052422169598984224 0 0
          0.0008482190282851362 0.0002933331325430607 0 -0.0003426952770929444 0 0
          -0.0002348582731494299 0.000010532869225569216 0 0.0001260615560232711 0 0
          -0.00021942336810221129 0.000030019272528924343 0 0.0001996893038224582 0 0
          -0.00002227786764896461 -0.000007452065215524545 0 -0.0000012886245269029747 0 0
          0.0007282219309837824 0.00008541749340754437 0 -0.0003805927559971262 0 0
          0.00008807149589313457 0.00006293369074002745 0 -0.000025827943123657992 0 0
          -0.0007407242869960079 0.0001386211713732624 0 0.0005215906488060175 0 0
          0.0022849669601043526 -0.0003309966283404754 0 -0.00010016612399805743 0 0
          -0.00009888711276284614 -0.00010402186177756677 0 0.00009606913724702809 0 0
          -0.00009136671818235627 0.00005604665092315076 0 0.000025381334716640543 0 0
          -0.0031491087944475814 0.00012184418750742366 0 -0.0005034914748445191 0 0
          0.0017564506304001456 -0.0006670160157646864 0 0.00020862420453891413 0 0
          5.285655007448302e-7 0.00006887373037385083 0 0.000024939393355179425 0 0
          -0.0023287503913402567 0.0013437359453958016 0 0.0006403123391035089 0 0
          0.00041629047088985227 0.00026682310401534285 0 -0.0010447361593697835 0 0
          0.0005806559627170032 0.00024045047859984155 0 0.00037050325601161913 0 0
          -0.0005302093867206326 -0.000053333085061775975 0 0.0009095696819276561 0 0
          0.00016675085028491237 0.0002628014051475057 0 0.00026139969237304447 0 0
          -0.000698473549546671 0.000006829250666314493 0 -0.00017844159497957282 0 0
          -0.00019922656717334897 0.0000013489588860259375 0 -0.0001260499051943183 0 0
          -0.0004115815332463824 -0.002762959142746001 0 0.0002024884921430294 0 0
          -0.00442264071298752 0.00033267389697938055 0 0.0005979614774719613 0 0
          -0.0034855446858188333 0.0013968484953970385 0 0.003269191042505406 0 0
          0.0006438322713281888 0.0003682776281454032 0 -0.0005914441871584152 0 0
          0.0036850297380382623 0.00019207291464192337 0 -0.0046726633084109934 0 0
          0.0012269481633752567 0.00018073784039096278 0 0.0011736432506421358 0 0
          -0.00013258933132070968 -0.0002605704948523551 0 0.000377077827777779 0 0
          -0.000059776432304887083 0.00007479001758084071 0 0.000044564750078498034 0 0
          0.02701785564018169 -0.005994652027807894 0 0.0005601277487674249 0 0
          -0.0006306533673452794 0.00023092304606078524 0 -0.0003068746105154763 0 0
          0.004498380183571427 0.00009867851989883589 0 0.006127647702053341 0 0
          0.00016927713243636728 -0.0009608474724821976 0 0.0017639615152255433 0 0
          0.0007656223980292227 -0.00030051046257888013 0 0.0009424949959507609 0 0
          -0.0035384304418906 0.0026437523084533853 0 -0.0029728977018386935 0 0
          -0.00034213425676868017 -0.00009996425072752897 0 0.000023456938640449942 0 0
          -0.0008112784244971903 0.0010363303968001507 0 -0.014001855080436628 0 0
          0.0001110804738443932 0.0003023731660301495 0 0.00039245132616111227 0 0
          0.0005402784318160596 0.0003897682657022997 0 0.01254945835505768 0 0
          0.0005868224734975154 -0.00013274550427205836 0 0.00024488211525067064 0 0
          -0.04247354427990985 0.0055920723476776 0 -0.007397090382535427 0 0
          -0.04120590894008774 0.009075310123418437 0 0.014994125588191961 0 0
          0.00026440148860468383 0.00005280889640153176 0 0.00035992692629554493 0 0
          -0.0006678256285928025 -0.0004405854323827925 0 -0.0004099676188082103 0 0
          -0.004523814091402123 0.0004968836416454647 0 -0.0038267353339269507 0 0
          0.004996988593754023 -0.00249193134745048 0 0.001742860869790705 0 0
          0.00012572560648665962 -0.0007596453600263494 0 -0.0027972527939274204 0 0
          -0.007043814715802578 0.0069726315485816965 0 0.0010146762598877857 0 0
          -0.0005480080505101542 -0.00034624085847280103 0 -0.0007438984451772305 0 0
          -0.007924878374350765 -0.00047441118883381517 0 0.004105201232300721 0 0
          -0.0003143151735592301 0.0002444053138038891 0 -0.0001981961933062092 0 0
          0.00032678312006449673 -0.0005595757066987469 0 -0.0006307446565737375 0 0
          0.003222557036671144 -0.00031740359517338726 0 -0.001014626694025764 0 0
          0.002391909091882904 -0.00040340351484696735 0 0.00028991153942775036 0 0
          -0.00029060451170823343 0.0003475661585394176 0 -0.0010191403348543233 0 0
          0.002111856382632658 0.001824077824675805 0 -0.002064111239414439 0 0
          0.0051481988537906455 0.0013021089877993575 0 0.003463032131209121 0 0
          0.00009718285463891623 -0.0002064288377986119 0 0.00008047467276843696 0 0
          -0.00009385772610139387 0.0000716171981047739 0 -0.00039879616483412056 0 0
          0.0061467701783714185 -0.003057659776299388 0 -0.000941402863655197 0 0
          0.0005467598148407 -0.00011835026289535187 0 0.0002766560560011285 0 0
          -0.00247152486907335 0.00006341551364224458 0 0.00001351183494083662 0 0
          -0.0026164102158332957 0.00005710648697731192 0 -0.0003894428011458036 0 0
          -0.0021608040464326543 -0.00017389166964435943 0 0.00016440620656887458 0 0
          -0.002749843035428102 0.0005301253095883776 0 -0.00018549132724522677 0 0
          -0.0042605582063961365 -0.000027280946824372272 0 0.0005328020544815278 0 0
          -0.001261311578217471 0.00039846893191396106 0 0.0007756177412612098 0 0
          -0.000028890117085737264 -0.00025262817262451643 0 -0.00012112935641060928 0 0
          0.0010045139265843258 -0.000154463275776127 0 -0.00030392272895550363 0 0
          -0.00004109603328644089 -0.0003875542253785875 0 0.0005925120892045005 0 0
          -0.0026831161846592295 0.0001539837792747491 0 -0.0002518243462420004 0 0
          -0.0053864240760838015 -0.000077707278595198 0 0.00019602369543292094 0 0
          -0.00717443662246175 0.0000914376754139335 0 -0.00005813772965582165 0 0
          -0.0016675696110882814 -0.00004755666587902098 0 0.0005779770799653489 0 0
          -0.005510953900985919 -0.00013134254302744035 0 0.0005115226455025032 0 0
          0.0014793388587069445 -0.0002569639834746816 0 0.00022837987180427478 0 0
          -0.0036871660082733286 -0.000019529703166635035 0 -0.000355118447669504 0 0
          -0.0008564917142312944 -0.0002559963203484168 0 -0.00007815515082420707 0 0
          -0.003793512967133065 -0.00004375673067325933 0 -0.000744582411157299 0 0
          -0.008948873185356851 -0.00013927348577560367 0 0.000014924802351067767 0 0
          -0.0035716516886464536 -0.00007493132540048972 0 0.00043622198700565216 0 0
          -0.006526030325148424 0.0003093659111041406 0 0.0006169569956666349 0 0
          -0.006082120839704831 -0.00014175934282885115 0 5.646286939397005e-7 0 0
          -0.003737553692093434 0.00009773453468037706 0 -0.0001803181123476852 0 0
          <InformationKey name="L2_NORM_RANGE" location="vtkDataArray" length="2">
            <Value index="0">
              1.4550605293e-05
            </Value>
            <Value index="1">
              0.044778476834
            </Value>
          </InformationKey>
        </DataArray>
      </PointData>
      <CellData>
        <DataArray type="UInt8" Name="vtkGhostType" format="ascii" RangeMin="0" RangeMax="0">
          0 0 0 0 0 0
          0 0 0 0 0 0
          0 0 0 0 0 0
          0 0 0 0 0 0
          0 0 0 0 0 0
          0 0 0 0 0 0
          0 0 0 0 0 0
          0 0 0 0 0 0
          0 0 0 0 0 0
          0 0 0 0 0 0
          0 0 0 0 0 0
          0 0 0 0 0 0
          0 0 0 0 0 0
          0 0 0 0 0 0
          0 0 0 0 0 0
          0 0 0 0 0 0
          0 0 0 0 0 0
          0 0 0 0 0 0
          0 0 0 0 0 0
          0 0 0 0 0 0
          0 0 0 0 0 0
          0 0 0 0 0 0
          0 0 0 0 0 0
          0 0 0 0 0 0
          0 0 0 0 0 0
          0 0 0 0 0 0
          0 0 0 0 0 0
          0 0 0 0 0 0
          0 0 0 0 0 0
          0 0 0 0 0 0
          0 0 0 0 0 0
          0 0 0 0 0 0
          0 0 0 0 0 0
          0 0 0 0 0 0
          0 0 0 0 0 0
          0 0 0 0 0 0
          0 0 0 0 0 0
          0 0 0 0 0 0
          0 0 0 0 0 0
          0 0 0 0 0 0
          0 0 0 0 0 0
          0 0 0 0 0 0
          0 0 0 0 0 0
          0 0 0 0 0 0
          0 0 0 0 0 0
          0 0 0 0 0
        </DataArray>
        <DataArray type="Float64" Name="Velocity_SGS" NumberOfComponents="3" format="ascii" RangeMin="0" RangeMax="0.06884217550355608">
          6.9031963876537e-310 4.6563357640748e-310 4.6563357640748e-310 0.00980949474038896 -0.002183482106477905 0
          -0.003835455980836032 0.001313522943670817 0 0.008816309059119098 -0.000027285453258365892 0
          0.04026223357859122 0.003561085032714855 0 0.04874756633145001 0.001580062735541533 0
          -0.013338308581243307 0.00007699320669829306 0 0.06690857371129663 0.016201478080175316 0
          -0.010266623144499125 0.0005068542774960363 0 0.041998539672776315 -0.009903828093220619 0
          -0.037124831268064346 -0.013717332462692014 0 -0.034356272274262356 -0.015504405435860534 0
          0.0051533959992574405 -0.0008515367708482412 0 -0.01593857571129901 0.004159183162512511 0
          -0.010401472657004734 -0.0030036189040309005 0 -0.03853992423173281 0.006019617591001816 0
          0.005231606856349027 0.006515403679479963 0 -0.010343226976322121 0.004270335324049912 0
          -0.0330799385941975 -0.0049135842641943 0 -0.0302007306859128 0.00013283223940784006 0
          -0.01632956289437332 -0.00542538251729269 0 0.006292674006764871 0.0016751052702686196 0
          0.004565880033373854 -0.0008455337654907605 0 0.01723828621043128 -0.0056548387413746055 0
          0.007480688202189441 0.0009777817556470055 0 0.03311040919848496 -0.011278968969832982 0
          -0.013529791900707194 0.008563141211412204 0 -0.013499172941127166 0.0012149357677193105 0
          0.004779583788966139 -0.000747888703770078 0 0.003361522100931827 -0.00023837395001764924 0
          -0.006204212104709072 -0.0011861785540718428 0 -0.006567218779104339 -0.0015132639966584287 0
          -0.002666206363685653 0.00017624006541873562 0 0.0021705562820269436 0.00025527311608561647 0
          -0.004269617476161174 -0.0007567069799736798 0 -0.0011789331525151356 0.002266357816762795 0
          -0.01117516823508996 0.00047820239847314885 0 -0.02551854592323192 0.012364633733997807 0
          0.004629955415870751 -0.0021341474712797282 0 -0.004900693778394378 0.0006338362415884753 0
          -0.007493893870769799 0.00016555455543564436 0 -0.004757150271002078 0.000018869484917615175 0
          0.005080158787327257 0.00017649295555485138 0 0.0026829477047784368 -0.0002442756774413119 0
          -0.00024016139108007785 -0.0016413902146282108 0 0.002644039693265391 0.0006274987266013536 0
          -0.004330229632879762 -0.00008820358101480105 0 -0.001143653385704135 -0.000057546713681851946 0
          0.004011238066817836 -0.0008009383080350238 0 0.0061840102028987015 0.00032829333837936246 0
          0.0006821061149960519 -0.00375443581511633 0 0.0018782425787360441 0.00023365828255554906 0
          0.005331657537606662 -0.000132082731789755 0 0.006588375408947506 -0.00008411713453047517 0
          -0.004459044001124145 -0.00011183267417880428 0 -0.003250927498480576 -0.002070860290412318 0
          -0.0010781169040370308 0.00011532296249849565 0 0.002146422801672194 -0.00006252355683356451 0
          0.0004520214564830501 -0.0007055616367350002 0 -0.008759911600651872 0.0019177802752529574 0
          0.003678663600240409 -0.00041832524368867454 0 -0.0038009254228237896 0.0012313056971469602 0
          -0.006036404970531614 0.0009021683418176118 0 -0.00275312602832776 -0.0012679707050043424 0
          -0.0029078211018845187 -0.0004938328856194137 0 0.0008109024043003283 0.00008763788782858672 0