<?xml version="1.0"?>
<VTKFile type="UnstructuredGrid" version="0.1" byte_order="LittleEndian" header_type="UInt32" compressor="vtkZLibDataCompressor">
  <UnstructuredGrid>
    <Piece NumberOfPoints="44" NumberOfCells="60">
      <PointData>
        <DataArray type="Float64" Name="Density" format="ascii" RangeMin="0.9921495778448862" RangeMax="1.7">
          1.7 1.291225019901385 1.7 1.2975802900286644 1.0217387571981722 1.0359173668452657
          1.7 1.2889757632779857 0.9921495778448862 1.032660251875789 1.0059913663174742 1.7
          1.289039027614354 1.0021788875464954 1.033277406909043 1.0024090039232025 1.7 1.2889326277548272
          1.0333583248384193 1.0023911584866558 1.7 1.2888513675580802 1.0333572338988801 1.0023744566925248
          1.7 1.2881685886146192 1.0332508757377428 1.002366342270752 1.7 1.283967038582414
          1.0324224131083335 1.0022898918151355 1.7 1.2642702610676022 1.0282223017883698 1.0017771302356524
          1.7 1.1927945775080828 1.0152490865029313 1.0000989990171776 1 1
          1 1
        </DataArray>
        <DataArray type="Float64" Name="Momentum" NumberOfComponents="3" format="ascii" RangeMin="2.875001985967669" RangeMax="4.535233026008696">
          4.4528099999999995 -0.86071 0 3.6820197349616586 -0.25402601420256976 0
          4.4528099999999995 -0.86071 0 3.697352564817873 -0.26228447680306227 0
          2.963073629077675 -0.013041020792346644 0 3.003899207039729 -0.026378687749532427 0
          4.4528099999999995 -0.86071 0 3.6704185440456545 -0.25562450676167897 0
          2.874993647362896 0.006924372970356772 0 2.993747520779054 -0.023601585182011584 0
          2.9181521730645676 0 0 4.4528099999999995 -0.86071 0
          3.670584592780282 -0.25572074100116526 0 2.906306917933329 0 0
          2.9957992241953786 -0.02398627556246752 0 2.9069963978979367 0 0
          4.4528099999999995 -0.86071 0 3.6702239500554814 -0.2556612334640999 0
          2.99606184420046 -0.02404360834524066 0 2.906943254061594 0 0
          4.4528099999999995 -0.86071 0 3.6699474809286476 -0.2556027453512195 0
          2.9960600364359395 -0.024040738677605065 0 2.9068870078317053 0 0
          4.4528099999999995 -0.86071 0 3.667671069000892 -0.2550509883981978 0
          2.9957156826939975 -0.023968376580763184 0 2.9068614695002317 0 0
          4.4528099999999995 -0.86071 0 3.654171182866544 -0.2512230845517159 0
          2.993089844279643 -0.023370546715925828 0 2.906625471737943 0 0
          4.4528099999999995 -0.86071 0 3.594688373675922 -0.2318055747601916 0
          2.9802553535598424 -0.0201455218725952 0 2.90507059259905 0 0
          4.4528099999999995 -0.86071 0 3.3959558578646396 -0.16264039135078318 0
          2.9425823840047967 -0.00999357203405518 0 2.900147589030146 0 0
          2.9 0 0 2.9 0 0
          2.9 0 0 2.9 0 0
          <InformationKey name="L2_NORM_RANGE" location="vtkDataArray" length="2">
            <Value index="0">
              2.875001986
            </Value>
            <Value index="1">
              4.535233026
            </Value>
          </InformationKey>
        </DataArray>
        <DataArray type="Float64" Name="Energy" format="ascii" RangeMin="4.874277559609984" RangeMax="7.585636452999999">
          7.585636452999999 6.373402362461215 7.585636452999999 6.405844036249175 5.033856622530591 5.114052521525352
          7.585636452999999 6.353047976360271 4.874277559609984 5.093724657313766 4.957711991585006 7.585636452999999
          6.353382844229448 4.934320569800194 5.097784523922431 4.935587410440929 7.585636452999999 6.352659420936065
          5.098297682614113 4.93549971872451 7.585636452999999 6.352089273822804 5.09829507022378 4.935388665027438
          7.585636452999999 6.347412431259895 5.097619121714279 4.935340644504053 7.585636452999999 6.319962368966932
          5.09250257825543 4.934900860975482 7.585636452999999 6.201811558027874 5.067885564043268 4.932022333912106
          7.585636452999999 5.822743932018986 4.997737848126676 4.923059171438844 4.923 4.923
          4.923 4.923
        </DataArray>
      </PointData>
      <CellData>
        <DataArray type="UInt8" Name="vtkGhostType" format="ascii" RangeMin="0" RangeMax="0">
          0 0 0 0 0 0
          0 0 0 0 0 0
          0 0 0 0 0 0
          0 0 0 0 0 0
          0 0 0 0 0 0
          0 0 0 0 0 0
          0 0 0 0 0 0
          0 0 0 0 0 0
          0 0 0 0 0 0
          0 0 0 0 0 0
        </DataArray>
      </CellData>
      <Points>
        <DataArray type="Float32" Name="Points" NumberOfComponents="3" format="ascii" RangeMin="0" RangeMax="4.2201894765504395">
          4.099999904632568 1 0 4.099999904632568 0.6666666865348816 0
          3.690000057220459 1 0 3.690000057220459 0.6666666865348816 0
          4.099999904632568 0.3333333134651184 0 3.690000057220459 0.3333333134651184 0
          3.2799999713897705 1 0 3.2799999713897705 0.6666666865348816 0
          4.099999904632568 0 0 3.2799999713897705 0.3333333134651184 0
          3.690000057220459 0 0 2.869999885559082 1 0
          2.869999885559082 0.6666666865348816 0 3.2799999713897705 0 0
          2.869999885559082 0.3333333134651184 0 2.869999885559082 0 0
          2.4600000381469727 1 0 2.4600000381469727 0.6666666865348816 0
          2.4600000381469727 0.3333333134651184 0 2.4600000381469727 0 0
          2.049999952316284 1 0 2.049999952316284 0.6666666865348816 0
          2.049999952316284 0.3333333134651184 0 2.049999952316284 0 0
          1.6399999856948853 1 0 1.6399999856948853 0.6666666865348816 0
          1.6399999856948853 0.3333333134651184 0 1.6399999856948853 0 0
          1.2300000190734863 1 0 1.2300000190734863 0.6666666865348816 0
          1.2300000190734863 0.3333333134651184 0 1.2300000190734863 0 0
          0.8199999928474426 1 0 0.8199999928474426 0.6666666865348816 0
          0.8199999928474426 0.3333333134651184 0 0.8199999928474426 0 0
          0.4099999964237213 1 0 0.4099999964237213 0.6666666865348816 0
          0.4099999964237213 0.3333333134651184 0 0.4099999964237213 0 0
          0 1 0 0 0.6666666865348816 0
          0 0.3333333134651184 0 0 0 0
          <InformationKey name="L2_NORM_RANGE" location="vtkDataArray" length="2">
            <Value index="0">
              0
            </Value>
            <Value index="1">
              4.2201894766
            </Value>
          </InformationKey>
        </DataArray>
      </Points>
      <Cells>
        <DataArray type="Int64" Name="connectivity" format="ascii" RangeMin="0" RangeMax="43">
          39 38 43 38 42 43
          35 34 39 34 38 39
          31 30 35 30 34 35
          27 26 31 26 30 31
          23 22 27 22 26 27
          19 18 23 18 22 23
          15 14 19 14 18 19
          13 9 15 9 14 15
          10 5 13 5 9 13
          8 4 10 4 5 10
          38 37 42 37 41 42
          34 33 38 33 37 38
          30 29 34 29 33 34
          26 25 30 25 29 30
          22 21 26 21 25 26
          18 17 22 17 21 22
          14 12 18 12 17 18
          9 7 14 7 12 14
          5 3 9 3 7 9
          4 1 5 1 3 5
          37 36 41 36 40 41
          33 32 37 32 36 37
          29 28 33 28 32 33
          25 24 29 24 28 29
          21 20 25 20 24 25
          17 16 21 16 20 21
          12 11 17 11 16 17
          7 6 12 6 11 12
          3 2 7 2 6 7
          1 0 3 0 2 3
        </DataArray>
        <DataArray type="Int64" Name="offsets" format="ascii" RangeMin="3" RangeMax="180">
          3 6 9 12 15 18
          21 24 27 30 33 36
          39 42 45 48 51 54
          57 60 63 66 69 72
          75 78 81 84 87 90
          93 96 99 102 105 108
          111 114 117 120 123 126
          129 132 135 138 141 144
          147 150 153 156 159 162
          165 168 171 174 177 180
        </DataArray>
        <DataArray type="UInt8" Name="types" format="ascii" RangeMin="5" RangeMax="5">
          5 5 5 5 5 5
          5 5 5 5 5 5
          5 5 5 5 5 5
          5 5 5 5 5 5
          5 5 5 5 5 5
          5 5 5 5 5 5
          5 5 5 5 5 5
          5 5 5 5 5 5
          5 5 5 5 5 5
          5 5 5 5 5 5
        </DataArray>
      </Cells>
    </Piece>
  </UnstructuredGrid>
</VTKFile>
