<?xml version="1.0"?>
<VTKFile type="UnstructuredGrid" version="0.1" byte_order="LittleEndian" header_type="UInt32" compressor="vtkZLibDataCompressor">
  <UnstructuredGrid>
    <Piece NumberOfPoints="44" NumberOfCells="60">
      <PointData>
        <DataArray type="Float64" Name="Density" format="ascii" RangeMin="0.9958861595346074" RangeMax="1.7">
          1.7 1.0568915997205237 1.7 1.0632673580210619 0.9958861595346074 0.9994205430769907
          1.7 1.0610590138497689 1 0.9995396791206745 1 1.7
          1.0610590138497689 1 0.9995396791206745 1 1.7 1.0610590138497689
          0.9995396791206745 1 1.7 1.0610590138497689 0.9995396791206745 1
          1.7 1.0610590138497689 0.9995396791206745 1 1.7 1.0610590138497689
          0.9995396791206745 1 1.7 1.0610590138497689 0.9995396791206745 1
          1.7 1.0585008657239063 0.9995396791206745 1 1 1
          1 1
        </DataArray>
        <DataArray type="Float64" Name="Momentum" NumberOfComponents="3" format="ascii" RangeMin="2.887893658328455" RangeMax="4.535233026008696">
          4.4528099999999995 -0.86071 0 3.0537730467215507 -0.04692153346309252 0
          4.4528099999999995 -0.86071 0 3.0710894151168766 -0.05378459139490321 0
          2.887891217608682 0.0037546068171216717 0 2.8984035677151034 0.0004998936563589368 0
          4.4528099999999995 -0.86071 0 3.0639582755194747 -0.052381653480932336 0
          2.9 0 0 2.898687934502938 0.00037743237557301976 0
          2.9 0 0 4.4528099999999995 -0.86071 0
          3.063958275519475 -0.052381653480932336 0 2.9 0 0
          2.898687934502938 0.00037743237557301185 0 2.9 0 0
          4.4528099999999995 -0.86071 0 3.0639582755194747 -0.052381653480932336 0
          2.898687934502938 0.00037743237557301906 0 2.9 0 0
          4.4528099999999995 -0.86071 0 3.0639582755194747 -0.052381653480932336 0
          2.898687934502938 0.00037743237557302036 0 2.9 0 0
          4.4528099999999995 -0.86071 0 3.0639582755194747 -0.05238165348093233 0
          2.898687934502938 0.00037743237557301233 0 2.9 0 0
          4.4528099999999995 -0.86071 0 3.0639582755194747 -0.052381653480932336 0
          2.898687934502938 0.00037743237557301564 0 2.9 0 0
          4.4528099999999995 -0.86071 0 3.0639582755194747 -0.052381653480932336 0
          2.898687934502938 0.000377432375573024 0 2.9 0 0
          4.4528099999999995 -0.86071 0 3.0560343832603594 -0.05001736591426133 0
          2.898687934502938 0.0003774323755730244 0 2.9 0 0
          2.9 0 0 2.9 0 0
          2.9 0 0 2.9 0 0
          <InformationKey name="L2_NORM_RANGE" location="vtkDataArray" length="2">
            <Value index="0">
              2.8878936583
            </Value>
            <Value index="1">
              4.535233026
            </Value>
          </InformationKey>
        </DataArray>
        <DataArray type="Float64" Name="Energy" format="ascii" RangeMin="4.899287726164759" RangeMax="7.585636452999999">
          7.585636452999999 5.205894685396652 7.585636452999999 5.240065629492356 4.899287726164759 4.920121445789055
          7.585636452999999 5.226191412171418 4.923 4.920572876048079 4.923 7.585636452999999
          5.226191412171418 4.923 4.920572876048079 4.923 7.585636452999999 5.226191412171418
          4.920572876048079 4.923 7.585636452999999 5.226191412171418 4.920572876048079 4.923
          7.585636452999999 5.226191412171418 4.920572876048079 4.923 7.585636452999999 5.226191412171418
          4.920572876048079 4.923 7.585636452999999 5.226191412171417 4.920572876048079 4.923
          7.585636452999999 5.210430062383536 4.920572876048079 4.923 4.923 4.923
          4.923 4.923
        </DataArray>
      </PointData>
      <CellData>
        <DataArray type="UInt8" Name="vtkGhostType" format="ascii" RangeMin="0" RangeMax="0">
          0 0 0 0 0 0
          0 0 0 0 0 0
          0 0 0 0 0 0
          0 0 0 0 0 0
          0 0 0 0 0 0
          0 0 0 0 0 0
          0 0 0 0 0 0
          0 0 0 0 0 0
          0 0 0 0 0 0
          0 0 0 0 0 0
        </DataArray>
      </CellData>
      <Points>
        <DataArray type="Float32" Name="Points" NumberOfComponents="3" format="ascii" RangeMin="0" RangeMax="4.2201894765504395">
          4.099999904632568 1 0 4.099999904632568 0.6666666865348816 0
          3.690000057220459 1 0 3.690000057220459 0.6666666865348816 0
          4.099999904632568 0.3333333134651184 0 3.690000057220459 0.3333333134651184 0
          3.2799999713897705 1 0 3.2799999713897705 0.6666666865348816 0
          4.099999904632568 0 0 3.2799999713897705 0.3333333134651184 0
          3.690000057220459 0 0 2.869999885559082 1 0
          2.869999885559082 0.6666666865348816 0 3.2799999713897705 0 0
          2.869999885559082 0.3333333134651184 0 2.869999885559082 0 0
          2.4600000381469727 1 0 2.4600000381469727 0.6666666865348816 0
          2.4600000381469727 0.3333333134651184 0 2.4600000381469727 0 0
          2.049999952316284 1 0 2.049999952316284 0.6666666865348816 0
          2.049999952316284 0.3333333134651184 0 2.049999952316284 0 0
          1.6399999856948853 1 0 1.6399999856948853 0.6666666865348816 0
          1.6399999856948853 0.3333333134651184 0 1.6399999856948853 0 0
          1.2300000190734863 1 0 1.2300000190734863 0.6666666865348816 0
          1.2300000190734863 0.3333333134651184 0 1.2300000190734863 0 0
          0.8199999928474426 1 0 0.8199999928474426 0.6666666865348816 0
          0.8199999928474426 0.3333333134651184 0 0.8199999928474426 0 0
          0.4099999964237213 1 0 0.4099999964237213 0.6666666865348816 0
          0.4099999964237213 0.3333333134651184 0 0.4099999964237213 0 0
          0 1 0 0 0.6666666865348816 0
          0 0.3333333134651184 0 0 0 0
          <InformationKey name="L2_NORM_RANGE" location="vtkDataArray" length="2">
            <Value index="0">
              0
            </Value>
            <Value index="1">
              4.2201894766
            </Value>
          </InformationKey>
        </DataArray>
      </Points>
      <Cells>
        <DataArray type="Int64" Name="connectivity" format="ascii" RangeMin="0" RangeMax="43">
          39 38 43 38 42 43
          35 34 39 34 38 39
          31 30 35 30 34 35
          27 26 31 26 30 31
          23 22 27 22 26 27
          19 18 23 18 22 23
          15 14 19 14 18 19
          13 9 15 9 14 15
          10 5 13 5 9 13
          8 4 10 4 5 10
          38 37 42 37 41 42
          34 33 38 33 37 38
          30 29 34 29 33 34
          26 25 30 25 29 30
          22 21 26 21 25 26
          18 17 22 17 21 22
          14 12 18 12 17 18
          9 7 14 7 12 14
          5 3 9 3 7 9
          4 1 5 1 3 5
          37 36 41 36 40 41
          33 32 37 32 36 37
          29 28 33 28 32 33
          25 24 29 24 28 29
          21 20 25 20 24 25
          17 16 21 16 20 21
          12 11 17 11 16 17
          7 6 12 6 11 12
          3 2 7 2 6 7
          1 0 3 0 2 3
        </DataArray>
        <DataArray type="Int64" Name="offsets" format="ascii" RangeMin="3" RangeMax="180">
          3 6 9 12 15 18
          21 24 27 30 33 36
          39 42 45 48 51 54
          57 60 63 66 69 72
          75 78 81 84 87 90
          93 96 99 102 105 108
          111 114 117 120 123 126
          129 132 135 138 141 144
          147 150 153 156 159 162
          165 168 171 174 177 180
        </DataArray>
        <DataArray type="UInt8" Name="types" format="ascii" RangeMin="5" RangeMax="5">
          5 5 5 5 5 5
          5 5 5 5 5 5
          5 5 5 5 5 5
          5 5 5 5 5 5
          5 5 5 5 5 5
          5 5 5 5 5 5
          5 5 5 5 5 5
          5 5 5 5 5 5
          5 5 5 5 5 5
          5 5 5 5 5 5
        </DataArray>
      </Cells>
    </Piece>
  </UnstructuredGrid>
</VTKFile>
