<?xml version="1.0"?>
<VTKFile type="UnstructuredGrid" version="0.1" byte_order="LittleEndian" header_type="UInt32" compressor="vtkZLibDataCompressor">
  <UnstructuredGrid>
    <Piece NumberOfPoints="38" NumberOfCells="54">
      <PointData>
        <DataArray type="Float64" Name="ale_BC" NumberOfComponents="3" format="ascii" RangeMin="0" RangeMax="1">
          0 0 0 0 0 0
          0 0 0 0 0 0
          0 0 0 0 0 0
          0 0 0 0 0 0
          0 0 0 1 0 0
          0 0 0 0 0 0
          0 0 0 0 0 0
          1 0 0 0 0 0
          0 0 0 1 0 0
          0 0 0 0 0 0
          1 0 0 0 0 0
          0 0 0 0 0 0
          0 0 0 0 0 0
          0 0 0 0 0 0
          0 0 0 0 0 0
          0 0 0 0 0 0
          0 0 0 0 0 0
          0 0 0 0 0 0
          0 0 0 0 0 0
          <InformationKey name="L2_NORM_RANGE" location="vtkDataArray" length="2">
            <Value index="0">
              0
            </Value>
            <Value index="1">
              1
            </Value>
          </InformationKey>
        </DataArray>
        <DataArray type="Float64" Name="ale_FIXNO" NumberOfComponents="3" format="ascii" RangeMin="1.4142135623730951" RangeMax="3.1622776601683795">
          1 1 0 1 1 0
          1 1 0 -1 -1 0
          -1 -1 0 1 1 0
          1 1 0 -1 -1 0
          -1 -1 0 1 1 0
          -1 -1 0 1 1 0
          1 1 0 -1 -1 0
          1 1 0 -1 -1 0
          -1 -1 0 1 1 0
          -1 -1 0 1 1 0
          1 1 0 -1 -1 0
          1 1 0 1 3 0
          -1 -1 0 -1 -1 0
          1 3 0 -1 -1 0
          -1 -1 0 -1 -1 0
          1 1 0 1 1 0
          1 3 0 1 1 0
          -1 -1 0 1 3 0
          1 1 0 1 1 0
          <InformationKey name="L2_NORM_RANGE" location="vtkDataArray" length="2">
            <Value index="0">
              1.4142135624
            </Value>
            <Value index="1">
              3.1622776602
            </Value>
          </InformationKey>
        </DataArray>
        <DataArray type="Float64" Name="nsi_BC" NumberOfComponents="3" format="ascii" RangeMin="0" RangeMax="1">
          0 0 0 0 0 0
          0 0 0 0 0 0
          0 0 0 0 0 0
          0 0 0 0 0 0
          0 0 0 0 0 0
          0 0 0 0 0 0
          0 0 0 0 0 0
          0 0 0 0 0 0
          0 0 0 0 0 0
          0 0 0 0 0 0
          0 0 0 0 0 0
          0 0 0 0 0 0
          0 0 0 0 0 0
          0 0 0 0 0 0
          0 0 0 0 0 0
          0 0 0 1 0 0
          0 0 0 1 0 0
          0 0 0 0 0 0
          1 0 0 0 0 0
          <InformationKey name="L2_NORM_RANGE" location="vtkDataArray" length="2">
            <Value index="0">
              0
            </Value>
            <Value index="1">
              1
            </Value>
          </InformationKey>
        </DataArray>
        <DataArray type="Float64" Name="nsi_FIXNO" NumberOfComponents="3" format="ascii" RangeMin="1.4142135623730951" RangeMax="1.4142135623730951">
          1 1 0 1 1 0
          -1 -1 0 -1 -1 0
          -1 -1 0 1 1 0
          -1 -1 0 -1 -1 0
          -1 -1 0 1 1 0
          -1 -1 0 1 1 0
          -1 -1 0 -1 -1 0
          1 1 0 -1 -1 0
          -1 -1 0 1 1 0
          -1 -1 0 1 1 0
          1 1 0 -1 -1 0
          1 1 0 1 1 0
          -1 -1 0 -1 -1 0
          1 1 0 -1 -1 0
          -1 -1 0 -1 -1 0
          1 1 0 1 1 0
          1 1 0 1 1 0
          -1 -1 0 1 1 0
          1 1 0 1 1 0
          <InformationKey name="L2_NORM_RANGE" location="vtkDataArray" length="2">
            <Value index="0">
              1.4142135624
            </Value>
            <Value index="1">
              1.4142135624
            </Value>
          </InformationKey>
        </DataArray>
        <DataArray type="Float64" Name="Velocity" NumberOfComponents="3" format="ascii" RangeMin="0" RangeMax="1.0059487324268104">
          0 0 0 0 0 0
          0.8584286149172675 0.09611002208463905 0 0.7936816677844534 0.25566046778706975 0
          0.7989433544397051 0.1850786219997069 0 0 0 0
          1.004416631279414 0.055498496199628114 0 0.8210354328681675 0.06865623951909529 0
          0.3632338372552805 -0.01208815226025658 0 0.009998833357303978 0 0
          0.8393922404806433 -0.0649147781974992 0 0 0 0
          0.9610373373723002 -0.012864341391734044 0 0.8285876799519692 -0.0746632343141791 0
          0.009998833357303973 0 0 0.731050157817665 -0.0500065398248343 0
          0.854830490097908 -0.17817073357880875 0 0.009998833357303977 0 0
          0.837741760305172 -0.2688008476915054 0 0 0 0
          0.009998833357303973 0 0 0.8290949190183372 -0.0013047161343329274 0
          0 0 0 0 0 0
          0.44383876470289935 -0.03685256174240391 0 0.6357669552724816 -0.11857076831175646 0
          0 0 0 0.9621914110305467 -0.11521769673359868 0
          0.8399046306428837 0.17522742999243027 0 0.73738129879966 0.22236628731356067 0
          0 0 0 0.9999999999991321 0 0
          0 0 0 0.9999999999991319 0 0
          0.676118628331177 0.16894325902835386 0 0 0 0
          0.9999999999991321 0 0 0 0 0
          <InformationKey name="L2_NORM_RANGE" location="vtkDataArray" length="2">
            <Value index="0">
              0
            </Value>
            <Value index="1">
              1.0059487324
            </Value>
          </InformationKey>
        </DataArray>
        <DataArray type="Float64" Name="Pressure" format="ascii" RangeMin="0.9706672514775699" RangeMax="12.619101398152303">
          2.1158681150105934 2.6728894491548636 1.592174077637928 2.5935267798188226 1.6434216840990756 4.994793378602953
          0.9706672514775699 4.9619090907235215 2.660776402864192 4.673140571203614 1.6626466559709334 8.30594797168974
          1.4562812058130585 8.395444743550145 4.608477592458345 2.0941764372210057 3.479561492938129 9.525776307189561
          10.866508211937052 11.189366289676322 9.482225100273158 6.626243645777786 1.8435646346990289 2.730187331452574
          11.662157068152622 12.164249700771409 5.110968790481723 12.357001825297854 9.618785343467495 11.735797497443283
          12.344960249773065 12.567683242117687 8.051986919072483 12.619101398152303 11.192808502793646 10.627655808688132
          11.978142111156131 11.430060831962821
        </DataArray>
        <DataArray type="Float64" Name="ALEdispl" NumberOfComponents="3" format="ascii" RangeMin="0" RangeMax="0.001999866668962539">
          0 0 0 0 0 0
          0 0 0 0.0006447702540267761 0 0
          0.0004037772238175249 0 0 0 0 0
          0 0 0 0.0007661438827007293 0 0
          0.0011265114358339323 0 0 0.001999866668962539 0 0
          0.00042189247076105405 0 0 0 0 0
          0 0 0 0.0008949169818637028 0 0
          0.0019998666689625385 0 0 0.0002526891045862082 0 0
          0.0007266503786502604 0 0 0.001999866668962539 0 0
          0.0008565797963394337 0 0 0 0 0
          0.0019998666689625385 0 0 0.0009036048645633931 0 0
          0 0 0 0 0 0
          0.0010868178530255169 0 0 0.00023446969982550498 0 0
          0 0 0 0.00041089818012556646 0 0
          0.0006525737926837314 0 0 0.0006805601940938135 0 0
          0 0 0 0 0 0
          0 0 0 0 0 0
          0.0002742509450991622 0 0 0 0 0
          0 0 0 0 0 0
          <InformationKey name="L2_NORM_RANGE" location="vtkDataArray" length="2">
            <Value index="0">
              0
            </Value>
            <Value index="1">
              0.001999866669
            </Value>
          </InformationKey>
        </DataArray>
        <DataArray type="Float64" Name="ALEveloc" NumberOfComponents="3" format="ascii" RangeMin="0" RangeMax="0.009998833357312657">
          0 0 0 0 0 0
          0 0 0 0.003223690070853743 0 0
          0.002018785170575486 0 0 0 0 0
          0 0 0 0.0038305278695519806 0 0
          0.005632275539575731 0 0 0.009998833357312657 0 0
          0.0021093568762926874 0 0 0 0 0
          0 0 0 0.004474361170750616 0 0
          0.00999883335731265 0 0 0.0012633823480226092 0 0
          0.0036330702230870566 0 0 0.009998833357312657 0 0
          0.0042826848278250135 0 0 0 0 0
          0.009998833357312654 0 0 0.00451779841218789 0 0
          0 0 0 0 0 0
          0.005433817549342848 0 0 0.0011722898792600762 0 0
          0 0 0 0.0020543881718024367 0 0
          0.003262705813172566 0 0 0.0034026308233310867 0 0
          0 0 0 0 0 0
          0 0 0 0 0 0
          0.0013711861599026397 0 0 0 0 0
          0 0 0 0 0 0
          <InformationKey name="L2_NORM_RANGE" location="vtkDataArray" length="2">
            <Value index="0">
              0
            </Value>
            <Value index="1">
              0.0099988333573
            </Value>
          </InformationKey>
        </DataArray>
      </PointData>
      <CellData>
        <DataArray type="UInt8" Name="vtkGhostType" format="ascii" RangeMin="0" RangeMax="0">
          0 0 0 0 0 0
          0 0 0 0 0 0
          0 0 0 0 0 0
          0 0 0 0 0 0
          0 0 0 0 0 0
          0 0 0 0 0 0
          0 0 0 0 0 0
          0 0 0 0 0 0
          0 0 0 0 0 0
        </DataArray>
      </CellData>
      <Points>
        <DataArray type="Float32" Name="Points" NumberOfComponents="3" format="ascii" RangeMin="0.27486616442409084" RangeMax="4.3142984182665565">
          3.42372989654541 -1.1242899894714355 0 2.454237937927246 -1.1288100481033325 0
          3.361582040786743 -0.11299250274896622 0 2.235898971557617 0.03558244928717613 0
          2.7337710857391357 0.5622639060020447 0 1.484745979309082 -1.13332998752594 0
          3.2994349002838135 0.8983049988746643 0 1.4636809825897217 -0.3740426003932953 0
          2.0009939670562744 0.8546469211578369 0 1.401129961013794 0.41242900490760803 0
          2.639246940612793 1.318418025970459 0 0.515254020690918 -1.137850046157837 0
          3.2372870445251465 1.9096020460128784 0 0.4851810038089752 -0.291694700717926 0
          1.31072998046875 1.1355899572372437 0 2.5410780906677246 2.125011920928955 0
          1.834494948387146 1.8600540161132812 0 0.2598870098590851 0.4802260100841522 0
          -0.27462801337242126 0.011439519934356213 0 -0.45423799753189087 -1.1423699855804443 0
          0.1468929946422577 1.1468900442123413 0 0.7959300875663757 1.9558650255203247 0
          3.175139904022217 2.9209001064300537 0 2.228247880935669 2.8711841106414795 0
          -0.39127838611602783 0.712766706943512 0 -0.9148772954940796 -0.4425585865974426 0
          1.2813559770584106 2.8214681148529053 0 -0.9641628861427307 0.2571151852607727 0
          -0.13235770165920258 1.9994369745254517 0 -0.6724379062652588 1.3821619749069214 0
          -1.4237300157546997 -1.1468900442123413 0 -1.4576270580291748 -0.19208750128746033 0
          0.33446401357650757 2.771752119064331 0 -1.4915250539779663 0.7627149820327759 0
          -0.8304513096809387 2.0797200202941895 0 -0.6124280095100403 2.7220358848571777 0
          -1.5254219770431519 1.7175179719924927 0 -1.5593199729919434 2.6723198890686035 0
          <InformationKey name="L2_NORM_RANGE" location="vtkDataArray" length="2">
            <Value index="0">
              0.27486616442
            </Value>
            <Value index="1">
              4.3142984183
            </Value>
          </InformationKey>
        </DataArray>
      </Points>
      <Cells>
        <DataArray type="Int64" Name="connectivity" format="ascii" RangeMin="0" RangeMax="37">
          17 20 24 24 20 29
          17 24 18 29 20 28
          24 29 33 18 24 27
          17 18 13 14 9 8
          28 20 21 27 24 33
          27 33 31 27 31 25
          13 18 19 29 28 34
          18 27 25 18 25 19
          19 25 30 17 13 9
          8 9 3 14 8 16
          21 20 14 21 14 16
          28 21 32 34 28 35
          29 34 36 3 9 7
          8 3 4 16 8 10
          25 31 30 7 9 13
          4 3 2 10 8 4
          10 4 6 6 4 2
          10 6 12 3 7 1
          16 10 15 10 12 15
          15 12 22 16 23 26
          22 23 15 15 23 16
          26 32 21 35 37 34
          35 28 32 37 36 34
          36 33 29 11 5 7
          7 5 1 1 0 2
          19 11 13 13 11 7
          21 16 26 2 3 1
        </DataArray>
        <DataArray type="Int64" Name="offsets" format="ascii" RangeMin="3" RangeMax="162">
          3 6 9 12 15 18
          21 24 27 30 33 36
          39 42 45 48 51 54
          57 60 63 66 69 72
          75 78 81 84 87 90
          93 96 99 102 105 108
          111 114 117 120 123 126
          129 132 135 138 141 144
          147 150 153 156 159 162
        </DataArray>
        <DataArray type="UInt8" Name="types" format="ascii" RangeMin="5" RangeMax="5">
          5 5 5 5 5 5
          5 5 5 5 5 5
          5 5 5 5 5 5
          5 5 5 5 5 5
          5 5 5 5 5 5
          5 5 5 5 5 5
          5 5 5 5 5 5
          5 5 5 5 5 5
          5 5 5 5 5 5
        </DataArray>
      </Cells>
    </Piece>
  </UnstructuredGrid>
</VTKFile>
