<?xml version="1.0"?>
<VTKFile type="UnstructuredGrid" version="0.1" byte_order="LittleEndian" header_type="UInt32" compressor="vtkZLibDataCompressor">
  <UnstructuredGrid>
    <Piece NumberOfPoints="21" NumberOfCells="27">
      <PointData>
        <DataArray type="Float64" Name="Velocity" NumberOfComponents="3" format="ascii" RangeMin="0" RangeMax="0.19104965836521196">
          0.017301842767222433 0.0793839187831992 0 0.013690688450216721 -0.03705383342489915 0
          0 0 0 -0.008305434688752363 0.06315220229672094 0
          0.00809626818371148 0.02649947780613826 0 -0.023862269027704316 -0.02995101536039097 0
          0 0 0 -0.07029559255254089 -0.0037712826144709055 0
          -0.026412544615914246 0.05119285537925311 0 -0.07848959404019673 -0.024147653838480998 0
          0 0 0 0 0 0
          0 0 0 0.07575670470834737 0.06822549170147957 0
          0.05924039459663147 -0.042989105167983786 0 0.05911058662510779 0.011298396093305518 0
          0.06413272517652904 -0.06701065350992626 0 0 0 0
          -0.08479861201929689 0.05073429710227159 0 -0.015402989576011855 -0.19042772874134029 0
          0.00111044060020965 -0.17354749413640502 0
          <InformationKey name="L2_NORM_RANGE" location="vtkDataArray" length="2">
            <Value index="0">
              0
            </Value>
            <Value index="1">
              0.19104965837
            </Value>
          </InformationKey>
        </DataArray>
        <DataArray type="Float64" Name="Pressure" format="ascii" RangeMin="-0.0484419365164752" RangeMax="1.152053538817294">
          0.19129450575245574 0.3447272765412358 0.40966160687252956 0.443794065084205 0.5795464127401074 0.602359158233515
          0.6661168623125476 0.7053777534586249 0.8451027686160218 0.8705801460685962 0.8978351328907822 0.9688719175365289
          0.1615657320684309 -0.0484419365164752 0.09297735560173 0.3082400404165163 0.4908190897018534 1.152053538817294
          1.11246018035814 1.0643486941945037 0.7866562344739592
        </DataArray>
        <DataArray type="Float64" Name="Temperature" format="ascii" RangeMin="552.0673213578949" RangeMax="960.0000000010568">
          663.4143308568327 594.3000404091565 960.0000000010565 660.1847071952919 596.3408188361292 597.6398460684584
          960.0000000010567 647.2121995250877 600.7300602874712 597.8105037889413 960.0000000010568 651.322130097351
          960.0000000010565 670.1238639819319 589.0897610127597 598.2123137243331 576.528874263179 600.8624265719336
          601.5465338702621 552.0673213578949 557.4135927218307
        </DataArray>
        <DataArray type="Float64" Name="Density" format="ascii" RangeMin="0.36540946676946534" RangeMax="0.6354172299788422">
          0.5287692348249489 0.590262601795489 0.3654094667694655 0.5313559739809353 0.5882426240479586 0.5869640225743755
          0.3654094667694654 0.5420062977126796 0.5839446222005366 0.5867964612126009 0.36540946676946534 0.5385861648008813
          0.3654094667694655 0.5234749976140697 0.5954832545315191 0.5864023191283299 0.6084571020790536 0.5838159828039721
          0.5831520395307104 0.6354172299788422 0.6293228092737437
        </DataArray>
        <DataArray type="Float64" Name="stream" format="ascii" RangeMin="-0.016595657488182276" RangeMax="0.0014959200558972395">
          -0.010192707061343228 -0.014930408164236658 -0.004079038864734401 -0.011351524084870062 -0.015064892662167297 -0.013198447743289118
          -0.004076011745930811 -0.006498998672289236 -0.016595657488182276 -0.00546241435507164 -0.0017693476227728273 0.00007190736972926236
          -0.002045414078513764 -0.0020604956008314357 -0.007446955551180386 -0.007012383547646666 -0.0009267316049701609 0.0014959200558972395
          -0.00863724694886965 -0.0036801170482336013 -0.0038395122845675082
        </DataArray>
      </PointData>
      <CellData>
        <DataArray type="UInt8" Name="vtkGhostType" format="ascii" RangeMin="0" RangeMax="1">
          0 0 1 0 0 0
          1 1 1 1 1 1
          0 0 0 0 0 0
          0 0 0 0 0 0
          0 0 1
        </DataArray>
      </CellData>
      <Points>
        <DataArray type="Float32" Name="Points" NumberOfComponents="3" format="ascii" RangeMin="0" RangeMax="1.1313708667572155">
          0.20000000298023224 0.6000000238418579 0 0.4000000059604645 0.6000000238418579 0
          0 0.4000000059604645 0 0.20000000298023224 0.4000000059604645 0
          0.6000000238418579 0.6000000238418579 0 0.4000000059604645 0.4000000059604645 0
          0 0.20000000298023224 0 0.20000000298023224 0.20000000298023224 0
          0.6000000238418579 0.4000000059604645 0 0.4000000059604645 0.20000000298023224 0
          0 0 0 0.20000000298023224 0 0
          0 0.6000000238418579 0 0.20000000298023224 0.800000011920929 0
          0.4000000059604645 0.800000011920929 0 0.6000000238418579 0.800000011920929 0
          0.800000011920929 0.800000011920929 0 0.4000000059604645 0 0
          0.6000000238418579 0.20000000298023224 0 0.800000011920929 0.4000000059604645 0
          0.800000011920929 0.6000000238418579 0
          <InformationKey name="L2_NORM_RANGE" location="vtkDataArray" length="2">
            <Value index="0">
              0
            </Value>
            <Value index="1">
              1.1313708668
            </Value>
          </InformationKey>
        </DataArray>
      </Points>
      <Cells>
        <DataArray type="Int64" Name="connectivity" format="ascii" RangeMin="0" RangeMax="20">
          3 2 6 3 0 2
          0 12 2 5 1 3
          1 0 3 4 1 5
          0 13 12 1 14 0
          14 13 0 4 15 1
          15 14 1 16 15 4
          11 7 10 7 6 10
          17 9 11 9 7 11
          18 9 17 7 3 6
          9 5 7 5 3 7
          18 8 9 8 5 9
          19 8 18 8 4 5
          19 20 8 20 4 8
          20 16 4
        </DataArray>
        <DataArray type="Int64" Name="offsets" format="ascii" RangeMin="3" RangeMax="81">
          3 6 9 12 15 18
          21 24 27 30 33 36
          39 42 45 48 51 54
          57 60 63 66 69 72
          75 78 81
        </DataArray>
        <DataArray type="UInt8" Name="types" format="ascii" RangeMin="5" RangeMax="5">
          5 5 5 5 5 5
          5 5 5 5 5 5
          5 5 5 5 5 5
          5 5 5 5 5 5
          5 5 5
        </DataArray>
      </Cells>
    </Piece>
  </UnstructuredGrid>
</VTKFile>
