<?xml version="1.0"?>
<VTKFile type="UnstructuredGrid" version="0.1" byte_order="LittleEndian" header_type="UInt32" compressor="vtkZLibDataCompressor">
  <UnstructuredGrid>
    <Piece NumberOfPoints="21" NumberOfCells="27">
      <PointData>
        <DataArray type="Float64" Name="Velocity" NumberOfComponents="3" format="ascii" RangeMin="0" RangeMax="0.06991902298906849">
          0.012717969661497974 -0.009965011067470109 0 0.018059373506690513 -0.02328058546099082 0
          0 0 0 0.00307778053152441 -0.009806194335452323 0
          0.017108184709274 -0.011836256559737829 0 0.007152929341041447 -0.020640411031173422 0
          0 0 0 -0.014933267092598124 -0.0156118929297136 0
          0.008565159845508041 -0.01066291438023148 0 -0.006430607030097485 -0.013554735495759307 0
          0 0 0 0 0 0
          0 0 0 0.04048915838588635 -0.011637488805301688 0
          0.04032442397803071 -0.01957949819204111 0 0.03327129637140602 -0.007872528710237803 0
          0.020809237730384456 -0.03709024962419216 0 0 0 0
          -0.001265024778320252 -0.005022460923696848 0 -0.0006408872629074525 -0.06991608569751406 0
          0.004592700180633569 -0.06386937798642234 0
          <InformationKey name="L2_NORM_RANGE" location="vtkDataArray" length="2">
            <Value index="0">
              0
            </Value>
            <Value index="1">
              0.069919022989
            </Value>
          </InformationKey>
        </DataArray>
        <DataArray type="Float64" Name="Pressure" format="ascii" RangeMin="5.872884118961718" RangeMax="6.984589873088113">
          6.214673190089996 6.194743954690987 6.459597588815325 6.459541123684558 6.174001553019048 6.454141231892938
          6.694145682857742 6.704289431858349 6.445079919460089 6.715505075107809 6.905411785855861 6.9485774843874255
          6.221597541933822 5.973959997993414 5.934498206590535 5.900584117163203 5.872884118961718 6.984589873088113
          6.717384996446164 6.434967291158449 6.15600877500704
        </DataArray>
        <DataArray type="Float64" Name="Temperature" format="ascii" RangeMin="558.1035934617177" RangeMax="959.9999999997517">
          644.6231810032698 591.269097574713 959.9999999997516 646.8500185767264 597.4945607432843 594.6571832582458
          959.9999999997515 643.0074465072126 597.5110822237281 597.9225362844027 959.9999999997517 638.6828036189303
          959.9999999997517 641.7872867331832 589.651509978998 598.9278698057836 564.8875360173215 602.6447459533483
          597.7976106344573 558.1035934617177 559.9243093929448
        </DataArray>
        <DataArray type="Float64" Name="Density" format="ascii" RangeMin="0.3641272016928719" RangeMax="0.6263391200491246">
          0.5422735699343296 0.5912064659880112 0.36412720169287194 0.5404067459010256 0.5850465202398005 0.5878380409192163
          0.364127201692872 0.5436361826350102 0.5850303434107335 0.5846277609760421 0.3641272016928719 0.5473172467527913
          0.3641272016928719 0.5446697384804907 0.5928283192856018 0.5836464309774403 0.6188171827787465 0.5800467289764222
          0.5847499344369539 0.6263391200491246 0.6243024418854982
        </DataArray>
        <DataArray type="Float64" Name="stream" format="ascii" RangeMin="-0.00545192629979818" RangeMax="0.012825499199234378">
          -0.0026807476928102443 0.0007681754667172628 -0.005244654839569433 -0.0046461116448824015 0.003910054255173063 -0.0014627980740278476
          -0.00545192629979818 -0.00462019557585525 0.00028264695521249775 -0.0027403029212874973 -0.004889920089120007 -0.0035828560343003236
          -0.0035981684440385656 0.0028695615885128184 0.0062369699670486965 0.008899747365996875 0.012825499199234378 -0.002755399620541301
          -0.0010924862545105968 0.00727566208323739 0.009452843660711313
        </DataArray>
      </PointData>
      <CellData>
        <DataArray type="UInt8" Name="vtkGhostType" format="ascii" RangeMin="0" RangeMax="1">
          0 0 1 0 0 0
          1 1 1 1 1 1
          0 0 0 0 0 0
          0 0 0 0 0 0
          0 0 1
        </DataArray>
      </CellData>
      <Points>
        <DataArray type="Float32" Name="Points" NumberOfComponents="3" format="ascii" RangeMin="0" RangeMax="1.1313708667572155">
          0.20000000298023224 0.6000000238418579 0 0.4000000059604645 0.6000000238418579 0
          0 0.4000000059604645 0 0.20000000298023224 0.4000000059604645 0
          0.6000000238418579 0.6000000238418579 0 0.4000000059604645 0.4000000059604645 0
          0 0.20000000298023224 0 0.20000000298023224 0.20000000298023224 0
          0.6000000238418579 0.4000000059604645 0 0.4000000059604645 0.20000000298023224 0
          0 0 0 0.20000000298023224 0 0
          0 0.6000000238418579 0 0.20000000298023224 0.800000011920929 0
          0.4000000059604645 0.800000011920929 0 0.6000000238418579 0.800000011920929 0
          0.800000011920929 0.800000011920929 0 0.4000000059604645 0 0
          0.6000000238418579 0.20000000298023224 0 0.800000011920929 0.4000000059604645 0
          0.800000011920929 0.6000000238418579 0
          <InformationKey name="L2_NORM_RANGE" location="vtkDataArray" length="2">
            <Value index="0">
              0
            </Value>
            <Value index="1">
              1.1313708668
            </Value>
          </InformationKey>
        </DataArray>
      </Points>
      <Cells>
        <DataArray type="Int64" Name="connectivity" format="ascii" RangeMin="0" RangeMax="20">
          3 2 6 3 0 2
          0 12 2 5 1 3
          1 0 3 4 1 5
          0 13 12 1 14 0
          14 13 0 4 15 1
          15 14 1 16 15 4
          11 7 10 7 6 10
          17 9 11 9 7 11
          18 9 17 7 3 6
          9 5 7 5 3 7
          18 8 9 8 5 9
          19 8 18 8 4 5
          19 20 8 20 4 8
          20 16 4
        </DataArray>
        <DataArray type="Int64" Name="offsets" format="ascii" RangeMin="3" RangeMax="81">
          3 6 9 12 15 18
          21 24 27 30 33 36
          39 42 45 48 51 54
          57 60 63 66 69 72
          75 78 81
        </DataArray>
        <DataArray type="UInt8" Name="types" format="ascii" RangeMin="5" RangeMax="5">
          5 5 5 5 5 5
          5 5 5 5 5 5
          5 5 5 5 5 5
          5 5 5 5 5 5
          5 5 5
        </DataArray>
      </Cells>
    </Piece>
  </UnstructuredGrid>
</VTKFile>
