<?xml version="1.0"?>
<VTKFile type="UnstructuredGrid" version="0.1" byte_order="LittleEndian" header_type="UInt32" compressor="vtkZLibDataCompressor">
  <UnstructuredGrid>
    <Piece NumberOfPoints="18" NumberOfCells="20">
      <PointData>
        <DataArray type="Float64" Name="Velocity" NumberOfComponents="3" format="ascii" RangeMin="0" RangeMax="0.1023995000504067">
          0.05342288520544797 -0.06822759605869577 0 0.07076209570898695 0.010781009118923324 0
          0.04308583143860399 -0.0745994069301156 0 0 0 0
          0 0 0 0 0 0
          0.026557599513444663 -0.06920057035168761 0 0 0 0
          0 0 0 0 0 0
          0 0 0 0 0 0
          0.05411681793046008 -0.01666426488333328 0 0 0 0
          0.08539768088312383 0.009897797253344623 0 0.10188678437271903 0.010234294345986883 0
          0.09772611531134051 -0.01986630708743347 0 0 0 0
          <InformationKey name="L2_NORM_RANGE" location="vtkDataArray" length="2">
            <Value index="0">
              0
            </Value>
            <Value index="1">
              0.10239950005
            </Value>
          </InformationKey>
        </DataArray>
        <DataArray type="Float64" Name="Pressure" format="ascii" RangeMin="-3.9035046301330554" RangeMax="-1.8969999546828615">
          -3.128862428051869 -2.348015165840394 -2.7869672825139764 -3.508757586325384 -1.9552907418732535 -3.1615578796801067
          -2.431887515802919 -2.0430293569324354 -2.810538496041894 -2.0868732694289958 -2.409400238113709 -2.028234302286891
          -2.239392044070398 -1.8969999546828615 -2.6727727188234156 -2.999156833375909 -3.4627129383667037 -3.9035046301330554
        </DataArray>
        <DataArray type="Float64" Name="Temperature" format="ascii" RangeMin="239.99999999351255" RangeMax="655.6223423991003">
          562.3067072426448 597.3627917888825 559.5864796605346 239.99999999351255 602.9612533951048 239.99999999351255
          555.4679994167593 601.1818187026897 239.99999999351255 546.3939668292907 239.99999999351257 239.9999999935126
          593.133252294384 655.6223423991003 598.740777537013 599.0317821021877 568.9837466787582 239.99999999351257
        </DataArray>
        <DataArray type="Float64" Name="Density" format="ascii" RangeMin="0.5349238427001007" RangeMax="1.4612834281901996">
          0.6236952507216519 0.5870938524743498 0.6267271199420689 1.4612834281901996 0.5816427188006359 1.4612834281901996
          0.631373946157854 0.5833643198208696 1.4612834281901996 0.6418592518349298 1.4612834281901994 1.4612834281901994
          0.5912803259630847 0.5349238427001007 0.5857426718100687 0.585458122982098 0.6163761703270124 1.4612834281901994
        </DataArray>
        <DataArray type="Float64" Name="stream" format="ascii" RangeMin="-0.03890995636946296" RangeMax="0.006593847276536448">
          -0.0020063588301611115 -0.030567976248196106 -0.014195933601092812 0.0063039248587428015 -0.037789669664772686 -0.0014432558141620772
          -0.02889901690751085 -0.03626127747546142 -0.0175052278296718 -0.030983636765847283 -0.028582389594245895 -0.030983636765847283
          -0.03183184808808363 -0.03890995636946296 -0.017264868792405096 -0.0046636437417030005 0.0037374493144121637 0.006593847276536448
        </DataArray>
      </PointData>
      <CellData>
        <DataArray type="UInt8" Name="vtkGhostType" format="ascii" RangeMin="0" RangeMax="1">
          1 1 1 1 1 1
          0 1 0 1 1 0
          0 0 0 0 0 0
          0 0
        </DataArray>
      </CellData>
      <Points>
        <DataArray type="Float32" Name="Points" NumberOfComponents="3" format="ascii" RangeMin="0.20000000298023224" RangeMax="1.4142135623730951">
          0.800000011920929 0.6000000238418579 0 0.6000000238418579 0.20000000298023224 0
          0.800000011920929 0.4000000059604645 0 1 0.800000011920929 0
          0.4000000059604645 0 0 1 0.6000000238418579 0
          0.800000011920929 0.20000000298023224 0 0.6000000238418579 0 0
          1 0.4000000059604645 0 0.800000011920929 0 0
          1 0.20000000298023224 0 1 0 0
          0.4000000059604645 0.20000000298023224 0 0.20000000298023224 0 0
          0.6000000238418579 0.4000000059604645 0 0.6000000238418579 0.6000000238418579 0
          0.800000011920929 0.800000011920929 0 1 1 0
          <InformationKey name="L2_NORM_RANGE" location="vtkDataArray" length="2">
            <Value index="0">
              0.20000000298
            </Value>
            <Value index="1">
              1.4142135624
            </Value>
          </InformationKey>
        </DataArray>
      </Points>
      <Cells>
        <DataArray type="Int64" Name="connectivity" format="ascii" RangeMin="0" RangeMax="17">
          4 12 13 1 12 4
          1 14 12 2 14 1
          2 0 14 0 15 14
          5 0 2 0 16 15
          5 3 0 3 16 0
          3 17 16 7 1 4
          9 6 7 6 1 7
          11 10 9 10 6 9
          6 2 1 10 8 6
          8 2 6 8 5 2
        </DataArray>
        <DataArray type="Int64" Name="offsets" format="ascii" RangeMin="3" RangeMax="60">
          3 6 9 12 15 18
          21 24 27 30 33 36
          39 42 45 48 51 54
          57 60
        </DataArray>
        <DataArray type="UInt8" Name="types" format="ascii" RangeMin="5" RangeMax="5">
          5 5 5 5 5 5
          5 5 5 5 5 5
          5 5 5 5 5 5
          5 5
        </DataArray>
      </Cells>
    </Piece>
  </UnstructuredGrid>
</VTKFile>
