<?xml version="1.0"?>
<VTKFile type="UnstructuredGrid" version="0.1" byte_order="LittleEndian" header_type="UInt32" compressor="vtkZLibDataCompressor">
  <UnstructuredGrid>
    <Piece NumberOfPoints="21" NumberOfCells="27">
      <PointData>
        <DataArray type="Float64" Name="Velocity" NumberOfComponents="3" format="ascii" RangeMin="0" RangeMax="0.16107935152935887">
          0.058008997866514866 0.05090849708697456 0 0.10023990062514987 -0.028090153585776503 0
          0 0 0 0.040688840997676 0.03665908226765932 0
          0.10188678437271903 0.010234294345986883 0 0.08377616393207865 -0.022086607068460468 0
          0 0 0 0.0038962421824329033 0.001767776487646644 0
          0.08539768088312383 0.009897797253344623 0 0.05411681793046008 -0.01666426488333328 0
          0 0 0 0 0 0
          0 0 0 0.12534650541705084 0.04444537130191206 0
          0.15896150065855685 -0.026034569278142468 0 0.1526644570789839 0.014992740805316873 0
          0.09772611531134051 -0.01986630708743347 0 0 0 0
          0.07076209570898695 0.010781009118923324 0 0.04308583143860399 -0.0745994069301156 0
          0.05342288520544797 -0.06822759605869577 0
          <InformationKey name="L2_NORM_RANGE" location="vtkDataArray" length="2">
            <Value index="0">
              0
            </Value>
            <Value index="1">
              0.16107935153
            </Value>
          </InformationKey>
        </DataArray>
        <DataArray type="Float64" Name="Pressure" format="ascii" RangeMin="-3.4627129383667037" RangeMax="-1.8969999546828615">
          -2.7424520034848254 -2.8536966499461585 -2.427279720100615 -2.4439878213326103 -2.999156833375909 -2.5418991297250937
          -2.152407902210434 -2.159888277369168 -2.6727727188234156 -2.239392044070398 -1.9110847676572869 -1.8969999546828615
          -2.7181181997614767 -3.042171921199074 -3.1641964228315973 -3.320217154035774 -3.4627129383667037 -1.9552907418732535
          -2.348015165840394 -2.7869672825139764 -3.128862428051869
        </DataArray>
        <DataArray type="Float64" Name="Temperature" format="ascii" RangeMin="559.5864796605346" RangeMax="959.9999999740504">
          661.4103605082007 586.3515882500552 959.9999999740501 664.165788631163 599.0317821021877 589.717012603836
          959.9999999740504 657.0658465893031 598.740777537013 593.133252294384 959.9999999740501 655.6223423991003
          959.9999999740503 659.9297384212775 585.4865651529432 600.7257079620326 568.9837466787582 602.9612533951048
          597.3627917888825 559.5864796605346 562.3067072426448
        </DataArray>
        <DataArray type="Float64" Name="Density" format="ascii" RangeMin="0.36532085704754985" RangeMax="0.6267271199420689">
          0.5302427111766108 0.5981189951285766 0.36532085704754996 0.5280428904339872 0.585458122982098 0.5947056219518783
          0.36532085704754985 0.533748671577777 0.5857426718100687 0.5912803259630847 0.36532085704754996 0.5349238427001007
          0.36532085704754985 0.5314323667170268 0.5990026819224358 0.5838072486458887 0.6163761703270124 0.5816427188006359
          0.5870938524743498 0.6267271199420689 0.6236952507216519
        </DataArray>
        <DataArray type="Float64" Name="stream" format="ascii" RangeMin="-0.038238610383820135" RangeMax="0.009866034472891302">
          -0.021694899849279192 -0.01848193608099641 -0.027317801463918958 -0.03190928864068797 -0.012401467198457528 -0.02867353676019799
          -0.031360726642411546 -0.03563225111821217 -0.02498850376552516 -0.034668976089965886 -0.03340935880284707 -0.03708584749667633
          -0.017568607744213288 0.0003087106322771545 0.004700020908818065 0.009866034472891302 0.00818772780041416 -0.038238610383820135
          -0.03552509886002044 -0.01813840458099509 -0.007434692041893058
        </DataArray>
      </PointData>
      <CellData>
        <DataArray type="UInt8" Name="vtkGhostType" format="ascii" RangeMin="0" RangeMax="1">
          0 0 1 0 0 0
          1 1 1 1 1 1
          0 0 0 0 0 0
          0 0 0 0 0 0
          0 0 1
        </DataArray>
      </CellData>
      <Points>
        <DataArray type="Float32" Name="Points" NumberOfComponents="3" format="ascii" RangeMin="0" RangeMax="1.1313708667572155">
          0.20000000298023224 0.6000000238418579 0 0.4000000059604645 0.6000000238418579 0
          0 0.4000000059604645 0 0.20000000298023224 0.4000000059604645 0
          0.6000000238418579 0.6000000238418579 0 0.4000000059604645 0.4000000059604645 0
          0 0.20000000298023224 0 0.20000000298023224 0.20000000298023224 0
          0.6000000238418579 0.4000000059604645 0 0.4000000059604645 0.20000000298023224 0
          0 0 0 0.20000000298023224 0 0
          0 0.6000000238418579 0 0.20000000298023224 0.800000011920929 0
          0.4000000059604645 0.800000011920929 0 0.6000000238418579 0.800000011920929 0
          0.800000011920929 0.800000011920929 0 0.4000000059604645 0 0
          0.6000000238418579 0.20000000298023224 0 0.800000011920929 0.4000000059604645 0
          0.800000011920929 0.6000000238418579 0
          <InformationKey name="L2_NORM_RANGE" location="vtkDataArray" length="2">
            <Value index="0">
              0
            </Value>
            <Value index="1">
              1.1313708668
            </Value>
          </InformationKey>
        </DataArray>
      </Points>
      <Cells>
        <DataArray type="Int64" Name="connectivity" format="ascii" RangeMin="0" RangeMax="20">
          3 2 6 3 0 2
          0 12 2 5 1 3
          1 0 3 4 1 5
          0 13 12 1 14 0
          14 13 0 4 15 1
          15 14 1 16 15 4
          11 7 10 7 6 10
          17 9 11 9 7 11
          18 9 17 7 3 6
          9 5 7 5 3 7
          18 8 9 8 5 9
          19 8 18 8 4 5
          19 20 8 20 4 8
          20 16 4
        </DataArray>
        <DataArray type="Int64" Name="offsets" format="ascii" RangeMin="3" RangeMax="81">
          3 6 9 12 15 18
          21 24 27 30 33 36
          39 42 45 48 51 54
          57 60 63 66 69 72
          75 78 81
        </DataArray>
        <DataArray type="UInt8" Name="types" format="ascii" RangeMin="5" RangeMax="5">
          5 5 5 5 5 5
          5 5 5 5 5 5
          5 5 5 5 5 5
          5 5 5 5 5 5
          5 5 5
        </DataArray>
      </Cells>
    </Piece>
  </UnstructuredGrid>
</VTKFile>
