<?xml version="1.0"?>
<VTKFile type="UnstructuredGrid" version="0.1" byte_order="LittleEndian" header_type="UInt32" compressor="vtkZLibDataCompressor">
  <UnstructuredGrid>
    <Piece NumberOfPoints="13" NumberOfCells="11">
      <PointData>
        <DataArray type="Float64" Name="Disp" NumberOfComponents="3" format="ascii" RangeMin="0" RangeMax="0.0750222354268424">
          0 0 0 0 0 0
          -0.0011784444874133892 0.002314687604855191 0 0.0015022723431277918 0.002381919089076561 0
          -0.002925553544404253 0.010594632184337385 0 0.0022955466427959335 0.010862550173238169 0
          -0.004477091291970971 0.022733389536469004 0 0.0024236150352528168 0.023217890903374276 0
          -0.00633051096547543 0.03795827638423671 0 0.0019074994598113645 0.03864726308005407 0
          -0.008322548893192488 0.05540546861023426 0 0.0008141004072522373 0.056254082251611645 0
          -0.010404814882064583 0.07429721149350448 0
          <InformationKey name="L2_NORM_RANGE" location="vtkDataArray" length="2">
            <Value index="0">
              0
            </Value>
            <Value index="1">
              0.075022235427
            </Value>
          </InformationKey>
        </DataArray>
        <DataArray type="Float64" Name="Nodal Stress" NumberOfComponents="6" format="ascii" RangeMin="14056.264032273617" RangeMax="123960.17929466418">
          -118480.43086963445 -17688.56193520217 0 31868.924179764486 0 0
          57590.05626290874 -12242.032554773816 0 4850.28221591681 0 0
          -75545.24734493955 -8290.06808509056 0 6272.682791247805 0 0
          77091.62475490986 2167.5136088867384 0 -170.08007916276563 0 0
          -59337.02009977388 -4159.073580861827 0 8273.160175418785 0 0
          59799.623721240176 578.0812565010095 0 5224.258688417924 0 0
          -45980.16664621758 -3631.265752095253 0 4984.568636103655 0 0
          44791.534896953584 1215.31771731117 0 5836.314770847555 0 0
          -32634.929126991112 -1986.0183259193398 0 4262.887954703375 0 0
          31520.00180598577 969.4793763114182 0 5803.962572300887 0 0
          -22154.20103530263 -1232.9662211870254 0 3341.687708691392 0 0
          20868.980977452076 872.6974913861848 0 4846.723430351784 0 0
          -13789.235777216376 -640.8803995741736 0 2650.4353489127893 0 0
          <InformationKey name="L2_NORM_RANGE" location="vtkDataArray" length="2">
            <Value index="0">
              14056.264032
            </Value>
            <Value index="1">
              123960.17929
            </Value>
          </InformationKey>
        </DataArray>
        <DataArray type="Float64" Name="Nodal Strain" NumberOfComponents="6" format="ascii" RangeMin="0" RangeMax="0">
          0 0 0 0 0 0
          0 0 0 0 0 0
          0 0 0 0 0 0
          0 0 0 0 0 0
          0 0 0 0 0 0
          0 0 0 0 0 0
          0 0 0 0 0 0
          0 0 0 0 0 0
          0 0 0 0 0 0
          0 0 0 0 0 0
          0 0 0 0 0 0
          0 0 0 0 0 0
          0 0 0 0 0 0
          <InformationKey name="L2_NORM_RANGE" location="vtkDataArray" length="2">
            <Value index="0">
              0
            </Value>
            <Value index="1">
              0
            </Value>
          </InformationKey>
        </DataArray>
        <DataArray type="Float64" Name="Sld_traction" NumberOfComponents="3" format="ascii" RangeMin="4460.523205673019" RangeMax="65568.1855780661">
          60051.19767747952 -26325.664616491536 0 -17425.54420685524 -984.6963115262664 0
          27826.05212296345 -12587.320691049163 0 16138.616532634991 -7021.713861214377 0
          31136.408246480798 -11714.358059494572 0 14767.26843958774 -5712.23643151642 0
          24712.771071457908 -8537.486892290357 0 10369.338248764325 -3845.3965290372894 0
          19267.596933983095 -5546.5387019722775 0 7109.86524862011 -2282.3616462948953 0
          14144.682381310804 -3577.232877486942 0 4246.883480432698 -1363.9090776057467 0
          9574.890708189832 -2229.3616682642783 0
          <InformationKey name="L2_NORM_RANGE" location="vtkDataArray" length="2">
            <Value index="0">
              4460.5232057
            </Value>
            <Value index="1">
              65568.185578
            </Value>
          </InformationKey>
        </DataArray>
        <DataArray type="Float64" Name="Velocity" NumberOfComponents="3" format="ascii" RangeMin="0" RangeMax="5.017904722908996">
          0 0 0 0 0 0
          0.09409146492007925 -0.19200996965214578 0 -0.1287746750786517 -0.2036825427245046 0
          0.26517873432666494 -0.8680807713824148 0 -0.14605138627111236 -0.9104540672318295 0
          0.41595775692277526 -1.7724176697970773 0 -0.07719016804262346 -1.8433395742886862 0
          0.6028646195044436 -2.8106883729378964 0 0.06804498756981214 -2.9015973082103983 0
          0.7938205341671738 -3.8841858554910758 0 0.26355039045491824 -3.9840112211025094 0
          0.9794638301232528 -4.921383790528097 0
          <InformationKey name="L2_NORM_RANGE" location="vtkDataArray" length="2">
            <Value index="0">
              0
            </Value>
            <Value index="1">
              5.0179047229
            </Value>
          </InformationKey>
        </DataArray>
        <DataArray type="Float64" Name="Acceleration" NumberOfComponents="3" format="ascii" RangeMin="0" RangeMax="1038.6033492118336">
          0 0 0 0 0 0
          33.24259605204793 -72.81356135855276 0 -47.97079140982305 -76.74053204843631 0
          84.21094644100049 -311.1707371119792 0 -48.93809068535165 -322.50663906795126 0
          106.97178974207873 -579.8788402410428 0 -21.655721847042514 -594.3748691904839 0
          121.08277091308355 -819.9643867898776 0 20.420113833606365 -831.6850303324682 0
          113.4266351439619 -980.9368790623339 0 61.40445419214484 -984.8904526618717 0
          84.50240291186128 -1035.160017048649 0
          <InformationKey name="L2_NORM_RANGE" location="vtkDataArray" length="2">
            <Value index="0">
              0
            </Value>
            <Value index="1">
              1038.6033492
            </Value>
          </InformationKey>
        </DataArray>
        <DataArray type="Float64" Name="Sigma" NumberOfComponents="6" format="ascii" RangeMin="29188.933159068365" RangeMax="177736.81924600314">
          -107257.43855085081 107257.43855085116 0 65280.58610082132 0 0
          125595.99460989972 -125595.99460989996 0 -6455.16782015912 0 0
          -112664.85537706262 112664.85537706218 0 3369.6923375744345 0 0
          106677.91041576894 -106677.91041576822 0 -6440.378583123459 0 0
          -88846.67430511492 88846.67430511543 0 16387.55627746484 0 0
          83123.86618009806 -83123.86618009803 0 3787.922270948896 0 0
          -67795.37687147994 67795.37687147851 0 2924.8926577707985 0 0
          61205.89500725653 -61205.89500725447 0 7887.742193852674 0 0
          -48669.555170051055 48669.555170050546 0 2571.2794580563427 0 0
          42827.55755467739 -42827.55755467599 0 7902.8432060537625 0 0
          -33015.65386743788 33015.65386743595 0 1174.5236676574932 0 0
          27905.378308959873 -27905.37830896311 0 6811.4563282106865 0 0
          -20626.964393085826 20626.964393085455 0 1024.9384456224623 0 0
          <InformationKey name="L2_NORM_RANGE" location="vtkDataArray" length="2">
            <Value index="0">
              29188.933159
            </Value>
            <Value index="1">
              177736.81925
            </Value>
          </InformationKey>
        </DataArray>
        <DataArray type="Float64" Name="Press" format="ascii" RangeMin="-128905.27736453328" RangeMax="120288.78050966062">
          -128905.27736453328 107869.76650034937 -122397.19738095606 120288.78050966062 -100272.63869118624 87476.5502387917
          -75588.92712851455 66618.5295636771 -53734.268372115745 46201.15413341467 -36323.784321750885 30573.84363715519
          -22631.366101661504
        </DataArray>
        <DataArray type="Float64" Name="Dev strain" NumberOfComponents="6" format="ascii" RangeMin="0" RangeMax="0">
          0 0 0 0 0 0
          0 0 0 0 0 0
          0 0 0 0 0 0
          0 0 0 0 0 0
          0 0 0 0 0 0
          0 0 0 0 0 0
          0 0 0 0 0 0
          0 0 0 0 0 0
          0 0 0 0 0 0
          0 0 0 0 0 0
          0 0 0 0 0 0
          0 0 0 0 0 0
          0 0 0 0 0 0
          <InformationKey name="L2_NORM_RANGE" location="vtkDataArray" length="2">
            <Value index="0">
              0
            </Value>
            <Value index="1">
              0
            </Value>
          </InformationKey>
        </DataArray>
        <DataArray type="Float64" Name="J2 Stresses" format="ascii" RangeMin="425734284.7779515" RangeMax="15784771159.946596">
          12569546854.906265 15784771159.946596 12696208343.746862 11390546189.748234 7960869535.2659855 6913164217.509535
          4598351874.41077 3761715702.868355 2370378469.963474 1849813418.784012 1090378276.7558737 790309122.8940389
          425734284.7779515
        </DataArray>
      </PointData>
      <CellData>
        <DataArray type="UInt8" Name="vtkGhostType" format="ascii" RangeMin="0" RangeMax="0">
          0 0 0 0 0 0
          0 0 0 0 0
        </DataArray>
        <DataArray type="Float64" Name="Gauss Stress" NumberOfComponents="6" format="ascii" RangeMin="18309.089550758566" RangeMax="83539.09055708833">
          75123.46642588668 -4615.900006517361 0 -3175.284688569382 0 0
          -79253.00252105124 -16368.802975708859 0 20731.703539412207 0 0
          69482.59811600606 2179.1965888384184 0 4578.366655096759 0 0
          -65738.22494296344 -2515.812098690765 0 4438.956677305272 0 0
          51680.17899660965 657.2561193600891 0 4866.85237419079 0 0
          -53967.73352580199 -4955.610194804392 0 7700.123735394844 0 0
          38149.77090561964 1240.5059776987075 0 6120.621619320926 0 0
          -39321.234323742574 -2481.87630089287 0 4461.304769893271 0 0
          26056.165148339456 911.3104842052744 0 5296.274400640647 0 0
          -27571.51668108784 -1666.4156925471507 0 3882.8821105891993 0 0
          -18039.515579273673 -881.3556115663016 0 3003.63948049688 0 0
          <InformationKey name="L2_NORM_RANGE" location="vtkDataArray" length="2">
            <Value index="0">
              18309.089551
            </Value>
            <Value index="1">
              83539.090557
            </Value>
          </InformationKey>
        </DataArray>
        <DataArray type="Float64" Name="Gauss Strain" NumberOfComponents="6" format="ascii" RangeMin="0" RangeMax="0">
          0 0 0 0 0 0
          0 0 0 0 0 0
          0 0 0 0 0 0
          0 0 0 0 0 0
          0 0 0 0 0 0
          0 0 0 0 0 0
          0 0 0 0 0 0
          0 0 0 0 0 0
          0 0 0 0 0 0
          0 0 0 0 0 0
          0 0 0 0 0 0
          <InformationKey name="L2_NORM_RANGE" location="vtkDataArray" length="2">
            <Value index="0">
              0
            </Value>
            <Value index="1">
              0
            </Value>
          </InformationKey>
        </DataArray>
      </CellData>
      <Points>
        <DataArray type="Float32" Name="Points" NumberOfComponents="3" format="ascii" RangeMin="0" RangeMax="0.6020797527609908">
          0 0.05000000074505806 0 0 0 0
          0.10000000149011612 0.05000000074505806 0 0.10000000149011612 0 0
          0.20000000298023224 0.05000000074505806 0 0.20000000298023224 0 0
          0.30000001192092896 0.05000000074505806 0 0.30000001192092896 0 0
          0.4000000059604645 0.05000000074505806 0 0.4000000059604645 0 0
          0.5 0.05000000074505806 0 0.5 0 0
          0.6000000238418579 0.05000000074505806 0
          <InformationKey name="L2_NORM_RANGE" location="vtkDataArray" length="2">
            <Value index="0">
              0
            </Value>
            <Value index="1">
              0.60207975276
            </Value>
          </InformationKey>
        </DataArray>
      </Points>
      <Cells>
        <DataArray type="Int64" Name="connectivity" format="ascii" RangeMin="0" RangeMax="12">
          3 2 1 2 0 1
          5 4 3 4 2 3
          7 6 5 6 4 5
          9 8 7 8 6 7
          11 10 9 10 8 9
          12 10 11
        </DataArray>
        <DataArray type="Int64" Name="offsets" format="ascii" RangeMin="3" RangeMax="33">
          3 6 9 12 15 18
          21 24 27 30 33
        </DataArray>
        <DataArray type="UInt8" Name="types" format="ascii" RangeMin="5" RangeMax="5">
          5 5 5 5 5 5
          5 5 5 5 5
        </DataArray>
      </Cells>
    </Piece>
  </UnstructuredGrid>
</VTKFile>
