<?xml version="1.0"?>
<VTKFile type="UnstructuredGrid" version="0.1" byte_order="LittleEndian" header_type="UInt32" compressor="vtkZLibDataCompressor">
  <UnstructuredGrid>
    <Piece NumberOfPoints="13" NumberOfCells="11">
      <PointData>
        <DataArray type="Float64" Name="Disp" NumberOfComponents="3" format="ascii" RangeMin="0.004908790640818943" RangeMax="0.06707161227718986">
          -0.0018933586786535881 -0.010300584910534913 0 0.0017216742554712644 -0.018323684021319658 0
          -0.0027662525049899104 -0.018124722761247047 0 0.001715562452587967 -0.028408525899176286 0
          -0.0037726678570682575 -0.02810901665826973 0 0.0014143404696976107 -0.04032416215499378 0
          -0.004896064760966788 -0.03992488692110271 0 0.0007938558233317351 -0.05359623164002884 0
          -0.005931232976698371 -0.053153526125187235 0 -0.0001684464933913386 -0.06707140075502038 0
          -0.006836502057519382 -0.06660686072388677 0 0.0014710003145251879 -0.010412017374968255 0
          -0.0011670000947785412 -0.004768053726016363 0
          <InformationKey name="L2_NORM_RANGE" location="vtkDataArray" length="2">
            <Value index="0">
              0.0049087906408
            </Value>
            <Value index="1">
              0.067071612277
            </Value>
          </InformationKey>
        </DataArray>
        <DataArray type="Float64" Name="Nodal Stress" NumberOfComponents="6" format="ascii" RangeMin="7382.155659556576" RangeMax="38163.32912514216">
          -36603.184329035845 -2551.1398204374927 0 4766.284684054925 0 0
          35724.53681557411 2801.769970310683 0 -6967.18051417602 0 0
          -35117.28510155112 -1993.1945870332713 0 4199.401578952134 0 0
          29993.40131831271 3494.1011999215943 0 -8100.703276145076 0 0
          -29719.985643971508 -1069.1676058554117 0 3148.5982080631334 0 0
          21263.639657343716 3912.3495194810803 0 -8148.2590122782185 0 0
          -21612.68584744722 283.36892408072714 0 1356.0921864190077 0 0
          11474.288828614415 3943.0444222835436 0 -6457.807866201526 0 0
          -14696.47970542818 629.4529145724601 0 -733.2798920151193 0 0
          4981.994237729155 1749.3921119695422 0 -7449.237275039079 0 0
          -7259.0841332369155 -774.8258824843186 0 -1096.1590123443073 0 0
          37798.64361600724 1915.296041100849 0 -4902.435290643073 0 0
          -34673.774739933084 -2839.1816912926133 0 4881.478288905528 0 0
          <InformationKey name="L2_NORM_RANGE" location="vtkDataArray" length="2">
            <Value index="0">
              7382.1556596
            </Value>
            <Value index="1">
              38163.329125
            </Value>
          </InformationKey>
        </DataArray>
        <DataArray type="Float64" Name="Nodal Strain" NumberOfComponents="6" format="ascii" RangeMin="0" RangeMax="0">
          0 0 0 0 0 0
          0 0 0 0 0 0
          0 0 0 0 0 0
          0 0 0 0 0 0
          0 0 0 0 0 0
          0 0 0 0 0 0
          0 0 0 0 0 0
          0 0 0 0 0 0
          0 0 0 0 0 0
          0 0 0 0 0 0
          0 0 0 0 0 0
          0 0 0 0 0 0
          0 0 0 0 0 0
          <InformationKey name="L2_NORM_RANGE" location="vtkDataArray" length="2">
            <Value index="0">
              0
            </Value>
            <Value index="1">
              0
            </Value>
          </InformationKey>
        </DataArray>
        <DataArray type="Float64" Name="Sld_traction" NumberOfComponents="3" format="ascii" RangeMin="365.5554566687934" RangeMax="11560.558480763983">
          -8066.879670362777 6399.891361797331 0 -8712.427303384107 6192.593083707782 0
          -6775.173971715586 5669.287117345556 0 -9705.132663442168 6281.473742057032 0
          -5120.589493228917 4202.528856468888 0 -9571.327613288833 5896.578244766305 0
          -2392.041602720973 2295.0479392552634 0 -8221.289739791815 5007.846782091821 0
          -893.0834969424592 1006.6267291791488 0 -2599.6713286663517 -1510.6377539741916 0
          348.45327747269573 -110.50387015334172 0 -7096.06497141745 5530.447434127706 0
          -8618.365971596295 6495.890008183748 0
          <InformationKey name="L2_NORM_RANGE" location="vtkDataArray" length="2">
            <Value index="0">
              365.55545667
            </Value>
            <Value index="1">
              11560.558481
            </Value>
          </InformationKey>
        </DataArray>
        <DataArray type="Float64" Name="Velocity" NumberOfComponents="3" format="ascii" RangeMin="4.354832989085515" RangeMax="12.325521470104126">
          -0.47161215464149264 -5.700132058847733 0 0.08273476282958225 -7.069628776468303 0
          -0.569031508429008 -7.009515702850905 0 -0.051719126186131836 -8.376484273340218 0
          -0.7030600085036658 -8.302779683600178 0 -0.20808968318322463 -9.68998801646017 0
          -0.8640195997572351 -9.604776876309108 0 -0.38639125864397483 -11.007380794910308 0
          -1.0411716580043355 -10.916850451858348 0 -0.5689029016501307 -12.312385187220706 0
          -1.220864995390326 -12.222552442501247 0 0.1974165804723405 -5.745968089435116 0
          -0.41158613352722195 -4.335339342832991 0
          <InformationKey name="L2_NORM_RANGE" location="vtkDataArray" length="2">
            <Value index="0">
              4.3548329891
            </Value>
            <Value index="1">
              12.32552147
            </Value>
          </InformationKey>
        </DataArray>
        <DataArray type="Float64" Name="Acceleration" NumberOfComponents="3" format="ascii" RangeMin="358.7274646117372" RangeMax="1467.2176336812645">
          -68.13595361460034 -1455.140644413203 0 -111.9649001709588 -1388.660841492373 0
          -45.05701961916111 -1384.9612602493344 0 -132.47057856935794 -1198.46708401666 0
          -17.630139601965766 -1201.104106697454 0 -133.41393350876 -930.6133994412539 0
          9.747916228053327 -938.1968103512518 0 -116.61179983589182 -631.1300311532978 0
          29.75728234303233 -640.447498175592 0 -92.58733626448884 -346.57319433304656 0
          47.010902662408625 -355.7437591747803 0 -70.51575224718067 -1465.5221299148857 0
          -89.41849501304705 -1376.160664980356 0
          <InformationKey name="L2_NORM_RANGE" location="vtkDataArray" length="2">
            <Value index="0">
              358.72746461
            </Value>
            <Value index="1">
              1467.2176337
            </Value>
          </InformationKey>
        </DataArray>
        <DataArray type="Float64" Name="Sigma" NumberOfComponents="6" format="ascii" RangeMin="3348.2476712801117" RangeMax="76598.08193696699">
          -52172.528552876756 52172.52855287634 0 15787.102683435427 0 0
          50523.8162688328 -50523.81626883379 0 -18731.22996999456 0 0
          -48904.786147273466 48904.78614727519 0 16307.689228430585 0 0
          42689.57800872362 -42689.57800872351 0 -20339.204281258066 0 0
          -40213.17520911663 40213.17520911423 0 15143.212216888618 0 0
          30023.50606801001 -30023.506068010913 0 -19123.295288234785 0 0
          -27585.253025317033 27585.253025323527 0 9734.153776946547 0 0
          16543.701143448714 -16543.701143457914 0 -12307.897091497314 0 0
          -18987.099566381246 18987.09956638197 0 5684.97741751997 0 0
          8957.474851071836 -8957.474851068178 0 -15320.22105183615 0 0
          -1469.4458930936464 1469.4458930999476 0 2625.3037924694745 0 0
          53138.841030641786 -53138.84103064192 0 -14825.427624950828 0 0
          -50463.66955972307 50463.66955972413 0 13517.64353965345 0 0
          <InformationKey name="L2_NORM_RANGE" location="vtkDataArray" length="2">
            <Value index="0">
              3348.2476713
            </Value>
            <Value index="1">
              76598.081937
            </Value>
          </InformationKey>
        </DataArray>
        <DataArray type="Float64" Name="Press" format="ascii" RangeMin="-59733.82181203036" RangeMax="59736.33478477629">
          -59733.82181203036 58515.926854192156 -56211.66689067306 51387.73289014248 -46214.780232945224 38294.991761099605
          -31120.39028279772 24174.141212479797 -20225.603073475082 11749.43298412332 -3795.8249710495993 59736.33478477629
          -57691.880098798494
        </DataArray>
        <DataArray type="Float64" Name="Dev strain" NumberOfComponents="6" format="ascii" RangeMin="0" RangeMax="0">
          0 0 0 0 0 0
          0 0 0 0 0 0
          0 0 0 0 0 0
          0 0 0 0 0 0
          0 0 0 0 0 0
          0 0 0 0 0 0
          0 0 0 0 0 0
          0 0 0 0 0 0
          0 0 0 0 0 0
          0 0 0 0 0 0
          0 0 0 0 0 0
          0 0 0 0 0 0
          0 0 0 0 0 0
          <InformationKey name="L2_NORM_RANGE" location="vtkDataArray" length="2">
            <Value index="0">
              0
            </Value>
            <Value index="1">
              0
            </Value>
          </InformationKey>
        </DataArray>
        <DataArray type="Float64" Name="J2 Stresses" format="ascii" RangeMin="3882326.233427695" RangeMax="2878684752.1454897">
          2784280888.3850527 2640370754.41403 2458163290.103403 1925820878.261581 1674428679.4604473 992836022.2861166
          784634621.9092522 311565130.22762036 368589692.00311667 138913648.97683257 3882326.233427695 2878684752.1454897
          2592263617.1492577
        </DataArray>
      </PointData>
      <CellData>
        <DataArray type="UInt8" Name="vtkGhostType" format="ascii" RangeMin="0" RangeMax="1">
          1 1 0 0 0 0
          0 0 0 0 0
        </DataArray>
        <DataArray type="Float64" Name="Gauss Stress" NumberOfComponents="6" format="ascii" RangeMin="8265.055164334302" RangeMax="37218.63242754979">
          -35728.908069336874 -2730.6700146980043 0 4826.439532712684 0 0
          36669.52285784532 2342.770360112909 0 -5923.184970503323 0 0
          -35994.35342660957 -2292.021139064509 0 4454.520647290483 0 0
          -32489.032527047428 -1536.7769619366354 0 3703.899054687048 0 0
          32666.866994648175 3127.794907793152 0 -7587.581674274016 0 0
          -25605.03364035567 -421.7521960721649 0 1918.0235685334605 0 0
          25322.617761971294 3656.011850225557 0 -8106.429117534745 0 0
          -19066.834530680862 952.2664348181938 0 1037.078034323069 0 0
          16776.898958974463 4122.262834878795 0 -7232.346200928519 0 0
          -7923.688556268139 -257.64148399587407 0 -2336.646613948901 0 0
          7404.015850422449 3061.2982316613043 0 -7314.380241937833 0 0
          <InformationKey name="L2_NORM_RANGE" location="vtkDataArray" length="2">
            <Value index="0">
              8265.0551643
            </Value>
            <Value index="1">
              37218.632428
            </Value>
          </InformationKey>
        </DataArray>
        <DataArray type="Float64" Name="Gauss Strain" NumberOfComponents="6" format="ascii" RangeMin="0" RangeMax="0">
          0 0 0 0 0 0
          0 0 0 0 0 0
          0 0 0 0 0 0
          0 0 0 0 0 0
          0 0 0 0 0 0
          0 0 0 0 0 0
          0 0 0 0 0 0
          0 0 0 0 0 0
          0 0 0 0 0 0
          0 0 0 0 0 0
          0 0 0 0 0 0
          <InformationKey name="L2_NORM_RANGE" location="vtkDataArray" length="2">
            <Value index="0">
              0
            </Value>
            <Value index="1">
              0
            </Value>
          </InformationKey>
        </DataArray>
      </CellData>
      <Points>
        <DataArray type="Float32" Name="Points" NumberOfComponents="3" format="ascii" RangeMin="0.4000000059604645" RangeMax="1.0012492197622458">
          0.5 0 0 0.6000000238418579 0.05000000074505806 0
          0.6000000238418579 0 0 0.699999988079071 0.05000000074505806 0
          0.699999988079071 0 0 0.800000011920929 0.05000000074505806 0
          0.800000011920929 0 0 0.8999999761581421 0.05000000074505806 0
          0.8999999761581421 0 0 1 0.05000000074505806 0
          1 0 0 0.5 0.05000000074505806 0
          0.4000000059604645 0 0
          <InformationKey name="L2_NORM_RANGE" location="vtkDataArray" length="2">
            <Value index="0">
              0.40000000596
            </Value>
            <Value index="1">
              1.0012492198
            </Value>
          </InformationKey>
        </DataArray>
      </Points>
      <Cells>
        <DataArray type="Int64" Name="connectivity" format="ascii" RangeMin="0" RangeMax="12">
          0 11 12 1 11 0
          2 1 0 4 3 2
          3 1 2 6 5 4
          5 3 4 8 7 6
          7 5 6 10 9 8
          9 7 8
        </DataArray>
        <DataArray type="Int64" Name="offsets" format="ascii" RangeMin="3" RangeMax="33">
          3 6 9 12 15 18
          21 24 27 30 33
        </DataArray>
        <DataArray type="UInt8" Name="types" format="ascii" RangeMin="5" RangeMax="5">
          5 5 5 5 5 5
          5 5 5 5 5
        </DataArray>
      </Cells>
    </Piece>
  </UnstructuredGrid>
</VTKFile>
