<?xml version="1.0"?>
<VTKFile type="UnstructuredGrid" version="0.1" byte_order="LittleEndian" header_type="UInt32" compressor="vtkZLibDataCompressor">
  <UnstructuredGrid>
    <Piece NumberOfPoints="13" NumberOfCells="11">
      <PointData>
        <DataArray type="Float64" Name="Disp" NumberOfComponents="3" format="ascii" RangeMin="0" RangeMax="0.0655642216370117">
          0 0 0 0 0 0
          -0.0010857630287059673 0.0021600442660720145 0 0.0013982479480693613 0.0022216585809978415 0
          -0.0026350025621950965 0.009789265051034191 0 0.002115282989613326 0.01001416845132064 0
          -0.0038965041764021076 0.020725767440533102 0 0.002238006573085781 0.021111893581710534 0
          -0.005323526372758935 0.03413643018727503 0 0.0018363947176450453 0.03465911937757106 0
          -0.00675985250236029 0.049153393349572284 0 0.0010025120997475651 0.04976676306418218 0
          -0.008179599638644496 0.06505198927487675 0
          <InformationKey name="L2_NORM_RANGE" location="vtkDataArray" length="2">
            <Value index="0">
              0
            </Value>
            <Value index="1">
              0.065564221637
            </Value>
          </InformationKey>
        </DataArray>
        <DataArray type="Float64" Name="Nodal Stress" NumberOfComponents="6" format="ascii" RangeMin="8847.312444574" RangeMax="113291.74111602333">
          -108037.0051962543 -15879.37633763259 0 30180.61497803531 0 0
          52713.69712192407 -10903.105800866522 0 5386.2446669057945 0 0
          -67566.50304689977 -7549.571652427721 0 6807.3962169005745 0 0
          69692.87823955141 1734.500965016483 0 304.32839360229264 0 0
          -51532.869840560765 -3816.410115920277 0 8823.351614144085 0 0
          52532.66370302138 353.3077607414405 0 4959.538349414199 0 0
          -38204.583986486345 -3208.205936307046 0 5758.114041558629 0 0
          37745.62062162523 849.8569552536528 0 5175.301839991858 0 0
          -25305.360616212038 -1705.1148041568601 0 4873.856965279823 0 0
          25094.398277924392 568.8213595951032 0 4835.130403507989 0 0
          -15630.226333212348 -1040.0091482285793 0 3652.812674810224 0 0
          15385.085481628654 468.6757161579632 0 3735.7707959596573 0 0
          -8443.041354062749 -530.3452143025432 0 2590.1204873840516 0 0
          <InformationKey name="L2_NORM_RANGE" location="vtkDataArray" length="2">
            <Value index="0">
              8847.3124446
            </Value>
            <Value index="1">
              113291.74112
            </Value>
          </InformationKey>
        </DataArray>
        <DataArray type="Float64" Name="Nodal Strain" NumberOfComponents="6" format="ascii" RangeMin="0" RangeMax="0">
          0 0 0 0 0 0
          0 0 0 0 0 0
          0 0 0 0 0 0
          0 0 0 0 0 0
          0 0 0 0 0 0
          0 0 0 0 0 0
          0 0 0 0 0 0
          0 0 0 0 0 0
          0 0 0 0 0 0
          0 0 0 0 0 0
          0 0 0 0 0 0
          0 0 0 0 0 0
          0 0 0 0 0 0
          <InformationKey name="L2_NORM_RANGE" location="vtkDataArray" length="2">
            <Value index="0">
              0
            </Value>
            <Value index="1">
              0
            </Value>
          </InformationKey>
        </DataArray>
        <DataArray type="Float64" Name="Sld_traction" NumberOfComponents="3" format="ascii" RangeMin="2501.920244316188" RangeMax="60663.85723468033">
          55606.783368133016 -24248.488984660515 0 -16416.271385438158 -1399.9246478217326 0
          25832.56878747105 -11498.766667560649 0 13928.304489989336 -6076.88940207427 0
          28356.022357456088 -10599.98239918952 0 12217.202281681766 -4897.7938947999455 0
          21698.325053907483 -7628.935397727227 0 7801.938201131592 -3185.037513617212 0
          16051.99661067207 -4851.425098945772 0 4723.896043550383 -1771.7489367564024 0
          10947.279607860379 -3029.4160239215116 0 2301.0453338196867 -982.2399302745841 0
          6651.696240177127 -1777.0629893680434 0
          <InformationKey name="L2_NORM_RANGE" location="vtkDataArray" length="2">
            <Value index="0">
              2501.9202443
            </Value>
            <Value index="1">
              60663.857235
            </Value>
          </InformationKey>
        </DataArray>
        <DataArray type="Float64" Name="Velocity" NumberOfComponents="3" format="ascii" RangeMin="0" RangeMax="5.699930592915775">
          0 0 0 0 0 0
          -0.08710430193523283 0.16883123701816072 0 0.1125007736192194 0.17761808262899326 0
          -0.24912854465431578 0.7877760592319487 0 0.1451445442304652 0.824755465931768 0
          -0.41439663811934047 1.6968576987952257 0 0.1068625355244025 1.763059462939795 0
          -0.6281326166251842 2.844163928807596 0 -0.0041375762226542045 2.935688586126094 0
          -0.865971087804033 4.1622060233258935 0 -0.17458042241461114 4.271635632396347 0
          -1.1172986702324246 5.589351701723022 0
          <InformationKey name="L2_NORM_RANGE" location="vtkDataArray" length="2">
            <Value index="0">
              0
            </Value>
            <Value index="1">
              5.6999305929
            </Value>
          </InformationKey>
        </DataArray>
        <DataArray type="Float64" Name="Acceleration" NumberOfComponents="3" format="ascii" RangeMin="0" RangeMax="1231.5297516216363">
          0 0 0 0 0 0
          45.93182974700403 -102.67381690100342 0 -67.28171665235789 -108.10186410096958 0
          111.058189609083 -431.81418636639137 0 -68.1299739941694 -445.44603376690156 0
          129.24394196843014 -784.7493937007148 0 -32.57514084163245 -799.6823896828482 0
          128.6010380553962 -1074.1400520874158 0 17.97375614319776 -1082.1800939702407 0
          92.84072626293482 -1228.0252964317224 0 62.014430671324135 -1223.283754511147 0
          25.846037452838573 -1209.631200541 0
          <InformationKey name="L2_NORM_RANGE" location="vtkDataArray" length="2">
            <Value index="0">
              0
            </Value>
            <Value index="1">
              1231.5297516
            </Value>
          </InformationKey>
        </DataArray>
        <DataArray type="Float64" Name="Sigma" NumberOfComponents="6" format="ascii" RangeMin="18595.1491489975" RangeMax="161726.3448048454">
          -98678.4980110409 98678.49801103998 0 60553.7390459888 0 0
          114306.8449590841 -114306.84495908416 0 -4827.110412612272 0 0
          -101265.10665424666 101265.1066542466 0 4442.092232775941 0 0
          96047.80256028929 -96047.80256028991 0 -6216.330041117876 0 0
          -77867.57582719302 77867.57582719388 0 17287.91476276003 0 0
          72367.20734537336 -72367.207345374 0 2553.3901029136027 0 0
          -56889.04047041775 56889.04047041777 0 5094.528744257873 0 0
          50876.716533599574 -50876.71653359796 0 5760.883689789171 0 0
          -38327.452200782594 38327.452200781976 0 4679.543207253852 0 0
          33391.55894523037 -33391.558945229524 0 5446.200368303556 0 0
          -23812.18848672617 23812.18848672821 0 2893.224744490313 0 0
          19874.976893001167 -19874.976893000316 0 4428.592612368382 0 0
          -13069.195537904214 13069.195537908605 0 2042.5052894416008 0 0
          <InformationKey name="L2_NORM_RANGE" location="vtkDataArray" length="2">
            <Value index="0">
              18595.149149
            </Value>
            <Value index="1">
              161726.3448
            </Value>
          </InformationKey>
        </DataArray>
        <DataArray type="Float64" Name="Press" format="ascii" RangeMin="-118211.27162705478" RangeMax="107878.52643097397">
          -118211.27162705478 98804.0676834428 -110214.28749710601 107878.52643097397 -88076.90729677225 75990.35269272291
          -63576.097155277974 55166.54132540012 -42422.00312895186 35728.48912046181 -26324.18181637474 21571.64041831641
          -14468.536221211485
        </DataArray>
        <DataArray type="Float64" Name="Dev strain" NumberOfComponents="6" format="ascii" RangeMin="0" RangeMax="0">
          0 0 0 0 0 0
          0 0 0 0 0 0
          0 0 0 0 0 0
          0 0 0 0 0 0
          0 0 0 0 0 0
          0 0 0 0 0 0
          0 0 0 0 0 0
          0 0 0 0 0 0
          0 0 0 0 0 0
          0 0 0 0 0 0
          0 0 0 0 0 0
          0 0 0 0 0 0
          0 0 0 0 0 0
          <InformationKey name="L2_NORM_RANGE" location="vtkDataArray" length="2">
            <Value index="0">
              0
            </Value>
            <Value index="1">
              0
            </Value>
          </InformationKey>
        </DataArray>
        <DataArray type="Float64" Name="J2 Stresses" format="ascii" RangeMin="171846828.972382" RangeMax="13071880053.233982">
          10654134797.82734 13071880053.233982 10259554871.547068 9234841066.455399 6138077364.414835 5238642649.222721
          3242851481.4263477 2596737230.461982 1474468123.3603897 1122411483.4056935 569113007.8829556 399917814.62889427
          171846828.972382
        </DataArray>
      </PointData>
      <CellData>
        <DataArray type="UInt8" Name="vtkGhostType" format="ascii" RangeMin="0" RangeMax="0">
          0 0 0 0 0 0
          0 0 0 0 0
        </DataArray>
        <DataArray type="Float64" Name="Gauss Stress" NumberOfComponents="6" format="ascii" RangeMin="12494.558617296076" RangeMax="75932.02097436119">
          68519.28249414584 -4207.078082605569 0 -2200.449406984736 0 0
          -71752.7503823072 -14661.577244838521 0 20056.240288717487 0 0
          62113.135301798095 1748.1792494848605 0 4541.658274851919 0 0
          -57832.51609468491 -2442.596147251242 0 5171.225651472701 0 0
          44645.22675713341 408.63781809695297 0 4469.600845653549 0 0
          -46017.35357052159 -4424.414269029891 0 8311.944536643834 0 0
          31471.28353165247 844.0680129548523 0 5295.542421782193 0 0
          -31723.778365476835 -2163.927607075978 0 5178.318547100298 0 0
          20143.431691302947 507.2001236339473 0 4256.005908387417 0 0
          -20588.59252238107 -1423.2046941947133 0 4339.656106682573 0 0
          -12075.828250299677 -738.2234958777743 0 3121.4408821000984 0 0
          <InformationKey name="L2_NORM_RANGE" location="vtkDataArray" length="2">
            <Value index="0">
              12494.558617
            </Value>
            <Value index="1">
              75932.020974
            </Value>
          </InformationKey>
        </DataArray>
        <DataArray type="Float64" Name="Gauss Strain" NumberOfComponents="6" format="ascii" RangeMin="0" RangeMax="0">
          0 0 0 0 0 0
          0 0 0 0 0 0
          0 0 0 0 0 0
          0 0 0 0 0 0
          0 0 0 0 0 0
          0 0 0 0 0 0
          0 0 0 0 0 0
          0 0 0 0 0 0
          0 0 0 0 0 0
          0 0 0 0 0 0
          0 0 0 0 0 0
          <InformationKey name="L2_NORM_RANGE" location="vtkDataArray" length="2">
            <Value index="0">
              0
            </Value>
            <Value index="1">
              0
            </Value>
          </InformationKey>
        </DataArray>
      </CellData>
      <Points>
        <DataArray type="Float32" Name="Points" NumberOfComponents="3" format="ascii" RangeMin="0" RangeMax="0.6020797527609908">
          0 0.05000000074505806 0 0 0 0
          0.10000000149011612 0.05000000074505806 0 0.10000000149011612 0 0
          0.20000000298023224 0.05000000074505806 0 0.20000000298023224 0 0
          0.30000001192092896 0.05000000074505806 0 0.30000001192092896 0 0
          0.4000000059604645 0.05000000074505806 0 0.4000000059604645 0 0
          0.5 0.05000000074505806 0 0.5 0 0
          0.6000000238418579 0.05000000074505806 0
          <InformationKey name="L2_NORM_RANGE" location="vtkDataArray" length="2">
            <Value index="0">
              0
            </Value>
            <Value index="1">
              0.60207975276
            </Value>
          </InformationKey>
        </DataArray>
      </Points>
      <Cells>
        <DataArray type="Int64" Name="connectivity" format="ascii" RangeMin="0" RangeMax="12">
          3 2 1 2 0 1
          5 4 3 4 2 3
          7 6 5 6 4 5
          9 8 7 8 6 7
          11 10 9 10 8 9
          12 10 11
        </DataArray>
        <DataArray type="Int64" Name="offsets" format="ascii" RangeMin="3" RangeMax="33">
          3 6 9 12 15 18
          21 24 27 30 33
        </DataArray>
        <DataArray type="UInt8" Name="types" format="ascii" RangeMin="5" RangeMax="5">
          5 5 5 5 5 5
          5 5 5 5 5
        </DataArray>
      </Cells>
    </Piece>
  </UnstructuredGrid>
</VTKFile>
