<?xml version="1.0"?>
<VTKFile type="UnstructuredGrid" version="0.1" byte_order="LittleEndian" header_type="UInt32" compressor="vtkZLibDataCompressor">
  <UnstructuredGrid>
    <Piece NumberOfPoints="13" NumberOfCells="11">
      <PointData>
        <DataArray type="Float64" Name="Disp" NumberOfComponents="3" format="ascii" RangeMin="0" RangeMax="0.053879391135474686">
          0 0 0 0 0 0
          0.0008844515186147205 -0.0017230509318007766 0 -0.0010243804031295398 -0.0016914850020649712 0
          0.001640223101022547 -0.0076427169624952145 0 -0.0020878535699729367 -0.007515724574646929 0
          0.0018964029767151761 -0.0165605707196825 0 -0.003115029296732316 -0.016310063963790086 0
          0.0017539469718997338 -0.02771659538928862 0 -0.004198594029191983 -0.0273644046305053 0
          0.0012577719476939383 -0.04037770790528977 0 -0.005284789626835418 -0.03994891443091934 0
          0.000495126328012647 -0.05387711609810585 0
          <InformationKey name="L2_NORM_RANGE" location="vtkDataArray" length="2">
            <Value index="0">
              0
            </Value>
            <Value index="1">
              0.053879391135
            </Value>
          </InformationKey>
        </DataArray>
        <DataArray type="Float64" Name="Nodal Stress" NumberOfComponents="6" format="ascii" RangeMin="10995.394018727306" RangeMax="101798.93790635788">
          98114.04263438383 742.3261237314199 0 -27131.298323649065 0 0
          -49957.07783044392 -5466.385151523728 0 -1061.9364973813424 0 0
          69135.5703413768 4987.519334060746 0 -10509.048655577964 0 0
          -62421.409746140576 -1597.9230443919757 0 3950.675008789537 0 0
          52695.25099642804 5079.001577595719 0 -13552.669370374322 0 0
          -52980.75003049225 -2069.8302884746718 0 3454.9054327735203 0 0
          42038.01895152464 5327.623887933168 0 -12141.525332546953 0 0
          -40820.57591812182 -1003.1189771869427 0 3337.676732369754 0 0
          29177.31570285568 4965.83533053388 0 -10688.149611524681 0 0
          -29242.300358276385 -311.6324256111447 0 2076.980080456434 0 0
          18098.71251893599 4225.440462258137 0 -8271.02889018596 0 0
          -18251.888170271417 385.4391279702036 0 797.4763273616419 0 0
          8959.895265080175 3069.4355792866345 0 -5585.47506399119 0 0
          <InformationKey name="L2_NORM_RANGE" location="vtkDataArray" length="2">
            <Value index="0">
              10995.394019
            </Value>
            <Value index="1">
              101798.93791
            </Value>
          </InformationKey>
        </DataArray>
        <DataArray type="Float64" Name="Nodal Strain" NumberOfComponents="6" format="ascii" RangeMin="0" RangeMax="0">
          0 0 0 0 0 0
          0 0 0 0 0 0
          0 0 0 0 0 0
          0 0 0 0 0 0
          0 0 0 0 0 0
          0 0 0 0 0 0
          0 0 0 0 0 0
          0 0 0 0 0 0
          0 0 0 0 0 0
          0 0 0 0 0 0
          0 0 0 0 0 0
          0 0 0 0 0 0
          0 0 0 0 0 0
          <InformationKey name="L2_NORM_RANGE" location="vtkDataArray" length="2">
            <Value index="0">
              0
            </Value>
            <Value index="1">
              0
            </Value>
          </InformationKey>
        </DataArray>
        <DataArray type="Float64" Name="Sld_traction" NumberOfComponents="3" format="ascii" RangeMin="2707.9711197439624" RangeMax="47646.10974311021">
          -45508.407021617706 14111.579075612974 0 15776.6304410821 11792.47530757258 0
          -18873.865566053126 12083.25240756655 0 -11728.952203971496 9015.328614727196 0
          -17363.926501309357 9986.631389282702 0 -8983.21472143132 7386.454512261293 0
          -15047.156976027525 9193.586424354102 0 -6348.017026870443 5517.448848158075 0
          -12747.413511450186 7681.468332587709 0 -3961.5812824508375 3573.338187317491 0
          -10040.72239711428 5932.144985215862 0 -2006.2772537313967 1818.7795816226258 0
          -7012.683939063915 3969.753002476974 0
          <InformationKey name="L2_NORM_RANGE" location="vtkDataArray" length="2">
            <Value index="0">
              2707.9711197
            </Value>
            <Value index="1">
              47646.109743
            </Value>
          </InformationKey>
        </DataArray>
        <DataArray type="Float64" Name="Velocity" NumberOfComponents="3" format="ascii" RangeMin="0" RangeMax="9.262677385724583">
          0 0 0 0 0 0
          0.23804926567136905 -0.5118342659144711 0 -0.30614856002428137 -0.4971946094356632 0
          0.35434530626670063 -2.1409306073832157 0 -0.5935343652388607 -2.0758259604571747 0
          0.2347750831328802 -4.249256293502537 0 -0.833521090974019 -4.142805136703775 0
          -0.03779551332589848 -6.392542497597708 0 -1.02735625398229 -6.274490253592915 0
          -0.38909147100216346 -8.158915553452527 0 -1.113674173121814 -8.061669172130385 0
          -0.7227238347383069 -9.234438944013586 0
          <InformationKey name="L2_NORM_RANGE" location="vtkDataArray" length="2">
            <Value index="0">
              0
            </Value>
            <Value index="1">
              9.2626773857
            </Value>
          </InformationKey>
        </DataArray>
        <DataArray type="Float64" Name="Acceleration" NumberOfComponents="3" format="ascii" RangeMin="0" RangeMax="1219.2125614833476">
          0 0 0 0 0 0
          6.706498177841155 -27.644085904886254 0 -12.924878548317793 -20.919618505930657 0
          -29.38483396821266 -66.73350018392102 0 -28.163512507210726 -46.17530069874306 0
          -102.46392811845703 -8.983123321001585 0 -31.426364590506637 14.354024865818246 0
          -177.8179198205778 230.58819478780424 0 -10.980933411479782 240.48282157529502 0
          -206.84159719080344 671.3863825544431 0 40.811661109282795 657.977393555735 0
          -153.41888885846924 1209.5213576536044 0
          <InformationKey name="L2_NORM_RANGE" location="vtkDataArray" length="2">
            <Value index="0">
              0
            </Value>
            <Value index="1">
              1219.2125615
            </Value>
          </InformationKey>
        </DataArray>
        <DataArray type="Float64" Name="Sigma" NumberOfComponents="6" format="ascii" RangeMin="20779.455717997665" RangeMax="146074.71884106708">
          96240.43080347987 -96240.43080348017 0 -53041.32767963062 0 0
          -94794.03687109191 94794.03687109178 0 15656.99670736279 0 0
          97056.60828543712 -97056.60828543619 0 -18099.534642697847 0 0
          -90925.89054238424 90925.89054238549 0 18802.327055407026 0 0
          75465.06331633005 -75465.06331633007 0 -32624.415033620986 0 0
          -71755.90471891775 71755.90471891689 0 20937.56148099169 0 0
          59415.466651972674 -59415.466651972594 0 -27798.878133585167 0 0
          -55129.541985517 55129.541985516975 0 18338.105883557884 0 0
          41076.21990578533 -41076.21990578694 0 -24437.897451653313 0 0
          -38091.09074211198 38091.09074211399 0 13861.74595799186 0 0
          25315.418467045463 -25315.418467044827 0 -18004.23054682046 0 0
          -23036.812719811198 23036.812719809204 0 8461.109275431696 0 0
          12317.815290001723 -12317.815289997538 0 -11328.2228482286 0 0
          <InformationKey name="L2_NORM_RANGE" location="vtkDataArray" length="2">
            <Value index="0">
              20779.455718
            </Value>
            <Value index="1">
              146074.71884
            </Value>
          </InformationKey>
        </DataArray>
        <DataArray type="Float64" Name="Press" format="ascii" RangeMin="-112451.9525767417" RangeMax="113263.42074600975">
          98450.63467348118 -112451.9525767417 113263.42074600975 -98744.81849303016 86566.68879958661 -81319.4396457442
          72048.0377647356 -62423.60275621319 51671.95670464968 -43390.0564964373 33786.5469017394 -25891.254984385676
          17863.332228018
        </DataArray>
        <DataArray type="Float64" Name="Dev strain" NumberOfComponents="6" format="ascii" RangeMin="0" RangeMax="0">
          0 0 0 0 0 0
          0 0 0 0 0 0
          0 0 0 0 0 0
          0 0 0 0 0 0
          0 0 0 0 0 0
          0 0 0 0 0 0
          0 0 0 0 0 0
          0 0 0 0 0 0
          0 0 0 0 0 0
          0 0 0 0 0 0
          0 0 0 0 0 0
          0 0 0 0 0 0
          0 0 0 0 0 0
          <InformationKey name="L2_NORM_RANGE" location="vtkDataArray" length="2">
            <Value index="0">
              0
            </Value>
            <Value index="1">
              0
            </Value>
          </InformationKey>
        </DataArray>
        <DataArray type="Float64" Name="J2 Stresses" format="ascii" RangeMin="183810731.7433308" RangeMax="9965566131.743916">
          9965566131.743916 9047194812.791512 9501883500.443245 8355899446.600375 5961063895.409193 5258505232.222918
          3723392083.843152 3123337931.3820252 1836558549.712881 1498968194.1748614 721908491.5573761 548592332.8303082
          183810731.7433308
        </DataArray>
      </PointData>
      <CellData>
        <DataArray type="UInt8" Name="vtkGhostType" format="ascii" RangeMin="0" RangeMax="0">
          0 0 0 0 0 0
          0 0 0 0 0
        </DataArray>
        <DataArray type="Float64" Name="Gauss Stress" NumberOfComponents="6" format="ascii" RangeMin="15594.648139228673" RangeMax="68467.40697178342">
          -62198.88981726709 -3090.010398573684 0 5453.263040023991 0 0
          65921.70168685813 253.03354164156008 0 -18494.621871655225 0 0
          -60238.10042805325 -2093.6124647384854 0 2371.8245009259135 0 0
          60893.69070398305 6496.503331061811 0 -10640.540873637274 0 0
          -46388.328229894636 -1408.3415282535125 0 3825.596410321471 0 0
          46806.63738932101 4723.553889730748 0 -13161.910562071485 0 0
          -35428.70512328149 -665.7632420522611 0 2587.318129965478 0 0
          35552.84542847104 5311.41571364318 0 -11299.556567226866 0 0
          -23769.083191320435 105.9068052649327 0 1439.5415622010323 0 0
          23456.33158022354 4589.299826411339 0 -9526.794013493974 0 0
          13451.681727535904 3720.734369379522 0 -6957.1147065391215 0 0
          <InformationKey name="L2_NORM_RANGE" location="vtkDataArray" length="2">
            <Value index="0">
              15594.648139
            </Value>
            <Value index="1">
              68467.406972
            </Value>
          </InformationKey>
        </DataArray>
        <DataArray type="Float64" Name="Gauss Strain" NumberOfComponents="6" format="ascii" RangeMin="0" RangeMax="0">
          0 0 0 0 0 0
          0 0 0 0 0 0
          0 0 0 0 0 0
          0 0 0 0 0 0
          0 0 0 0 0 0
          0 0 0 0 0 0
          0 0 0 0 0 0
          0 0 0 0 0 0
          0 0 0 0 0 0
          0 0 0 0 0 0
          0 0 0 0 0 0
          <InformationKey name="L2_NORM_RANGE" location="vtkDataArray" length="2">
            <Value index="0">
              0
            </Value>
            <Value index="1">
              0
            </Value>
          </InformationKey>
        </DataArray>
      </CellData>
      <Points>
        <DataArray type="Float32" Name="Points" NumberOfComponents="3" format="ascii" RangeMin="0" RangeMax="0.6020797527609908">
          0 0.05000000074505806 0 0 0 0
          0.10000000149011612 0.05000000074505806 0 0.10000000149011612 0 0
          0.20000000298023224 0.05000000074505806 0 0.20000000298023224 0 0
          0.30000001192092896 0.05000000074505806 0 0.30000001192092896 0 0
          0.4000000059604645 0.05000000074505806 0 0.4000000059604645 0 0
          0.5 0.05000000074505806 0 0.5 0 0
          0.6000000238418579 0.05000000074505806 0
          <InformationKey name="L2_NORM_RANGE" location="vtkDataArray" length="2">
            <Value index="0">
              0
            </Value>
            <Value index="1">
              0.60207975276
            </Value>
          </InformationKey>
        </DataArray>
      </Points>
      <Cells>
        <DataArray type="Int64" Name="connectivity" format="ascii" RangeMin="0" RangeMax="12">
          3 2 1 2 0 1
          5 4 3 4 2 3
          7 6 5 6 4 5
          9 8 7 8 6 7
          11 10 9 10 8 9
          12 10 11
        </DataArray>
        <DataArray type="Int64" Name="offsets" format="ascii" RangeMin="3" RangeMax="33">
          3 6 9 12 15 18
          21 24 27 30 33
        </DataArray>
        <DataArray type="UInt8" Name="types" format="ascii" RangeMin="5" RangeMax="5">
          5 5 5 5 5 5
          5 5 5 5 5
        </DataArray>
      </Cells>
    </Piece>
  </UnstructuredGrid>
</VTKFile>
