<?xml version="1.0"?>
<VTKFile type="UnstructuredGrid" version="0.1" byte_order="LittleEndian" header_type="UInt32" compressor="vtkZLibDataCompressor">
  <UnstructuredGrid>
    <Piece NumberOfPoints="13" NumberOfCells="11">
      <PointData>
        <DataArray type="Float64" Name="Disp" NumberOfComponents="3" format="ascii" RangeMin="0.0396403702117789" RangeMax="0.1761224366078107">
          -0.009590536664292784 -0.058247309276579486 0 -0.0012409618289920478 -0.08093167156527592 0
          -0.012385397022935663 -0.07967898224510363 0 -0.003636434902205327 -0.10397567769894467 0
          -0.015340082803252988 -0.10258968696484377 0 -0.006367188661106191 -0.1277935570582539 0
          -0.018340565670087402 -0.12634175610420229 0 -0.009288914800643356 -0.15184728211122123 0
          -0.021266236182931317 -0.1503946649033606 0 -0.012239249664936376 -0.17569665177319588 0
          -0.024137486490361137 -0.17425695022828347 0 0.0006560962771452256 -0.05930257204515718 0
          -0.0070641274260551026 -0.03900585922954838 0
          <InformationKey name="L2_NORM_RANGE" location="vtkDataArray" length="2">
            <Value index="0">
              0.039640370212
            </Value>
            <Value index="1">
              0.17612243661
            </Value>
          </InformationKey>
        </DataArray>
        <DataArray type="Float64" Name="Nodal Stress" NumberOfComponents="6" format="ascii" RangeMin="893.1786187587352" RangeMax="61666.67445874375">
          -46859.684519630704 -2603.3864218157464 0 8627.575864046781 0 0
          29241.71360967013 8284.196504361327 0 -14249.624833937696 0 0
          -33427.0011573847 -1332.6108065842625 0 6002.152319031483 0 0
          17136.664201027426 6669.076822576702 0 -10358.116960959911 0 0
          -20899.089229096233 -126.1217082418636 0 3322.1809109277715 0 0
          7659.919401371741 4683.323921848579 0 -6479.169226321873 0 0
          -10761.616975461251 535.0876851855002 0 1162.768325290592 0 0
          2148.0459017373514 2459.4941530937294 0 -3113.3466132580215 0 0
          -4635.93451399067 291.85360099932296 0 214.61503277241084 0 0
          74.32759673136759 1206.3086979589696 0 -1577.0344603861824 0 0
          705.6603177427961 91.7545162162725 0 539.807993387293 0 0
          43016.76318370458 9244.285450591611 0 -17551.52774965952 0 0
          -60658.75290559085 -3827.0837240519813 0 10423.428654154459 0 0
          <InformationKey name="L2_NORM_RANGE" location="vtkDataArray" length="2">
            <Value index="0">
              893.17861876
            </Value>
            <Value index="1">
              61666.674459
            </Value>
          </InformationKey>
        </DataArray>
        <DataArray type="Float64" Name="Nodal Strain" NumberOfComponents="6" format="ascii" RangeMin="0" RangeMax="0">
          0 0 0 0 0 0
          0 0 0 0 0 0
          0 0 0 0 0 0
          0 0 0 0 0 0
          0 0 0 0 0 0
          0 0 0 0 0 0
          0 0 0 0 0 0
          0 0 0 0 0 0
          0 0 0 0 0 0
          0 0 0 0 0 0
          0 0 0 0 0 0
          0 0 0 0 0 0
          0 0 0 0 0 0
          <InformationKey name="L2_NORM_RANGE" location="vtkDataArray" length="2">
            <Value index="0">
              0
            </Value>
            <Value index="1">
              0
            </Value>
          </InformationKey>
        </DataArray>
        <DataArray type="Float64" Name="Sld_traction" NumberOfComponents="3" format="ascii" RangeMin="172.84409448874024" RangeMax="19480.00786375375">
          -6049.984353632946 7020.302750489585 0 -13005.768908001215 10076.310543813095 0
          -3819.879775448402 4537.3881647628705 0 -10339.942255520855 7709.476376927855 0
          -2056.037945764022 2317.571832342581 0 -7219.474840395652 5170.113673633639 0
          -567.7273288108908 814.8050245666742 0 -3930.5391005601773 2774.852835900907 0
          -337.9873558277861 409.68471006585196 0 -983.3270400830351 496.7333074412402 0
          170.40091404687766 28.958755008134826 0 -15295.176635863436 12063.510187737447 0
          -8574.7060323539 9571.080370010211 0
          <InformationKey name="L2_NORM_RANGE" location="vtkDataArray" length="2">
            <Value index="0">
              172.84409449
            </Value>
            <Value index="1">
              19480.007864
            </Value>
          </InformationKey>
        </DataArray>
        <DataArray type="Float64" Name="Velocity" NumberOfComponents="3" format="ascii" RangeMin="0.884427279695306" RangeMax="4.246903518053334">
          -0.33423889395412587 -1.3096972019156752 0 -0.19374686645436884 -1.8847858205063517 0
          -0.4628802918799124 -1.8225648013854112 0 -0.3214371665838547 -2.444054516150551 0
          -0.604690055351238 -2.3746014044914574 0 -0.46315493020633713 -3.021680104130816 0
          -0.7529142515627836 -2.9486444290831457 0 -0.6116300151684722 -3.6034993533818493 0
          -0.9008915903811019 -3.5304376651627223 0 -0.7587934309046593 -4.178566981737845 0
          -1.0458560211175527 -4.106244856488004 0 -0.08848030805061802 -1.3612799359139522 0
          -0.22468280997687895 -0.8554117417771003 0
          <InformationKey name="L2_NORM_RANGE" location="vtkDataArray" length="2">
            <Value index="0">
              0.8844272797
            </Value>
            <Value index="1">
              4.2469035181
            </Value>
          </InformationKey>
        </DataArray>
        <DataArray type="Float64" Name="Acceleration" NumberOfComponents="3" format="ascii" RangeMin="67.24227464713812" RangeMax="2241.170908182043">
          88.53158615804932 37.47676911207236 0 6.190958849197159 361.2285914779495 0
          179.66424447964528 323.2204480651417 0 76.25662595437143 762.3920502039837 0
          292.25481477483663 711.9262373489328 0 174.8145469669962 1229.7938454507967 0
          415.56485514008637 1171.9147043522098 0 292.2638312936442 1723.271357482503 0
          535.7819571659711 1664.6314670940628 0 412.96037639650604 2202.1522440693516 0
          650.4447607835427 2144.7071251923335 0 -29.26467087234107 60.5400903406553 0
          24.51428894513083 -128.26600140267692 0
          <InformationKey name="L2_NORM_RANGE" location="vtkDataArray" length="2">
            <Value index="0">
              67.242274647
            </Value>
            <Value index="1">
              2241.1709082
            </Value>
          </InformationKey>
        </DataArray>
        <DataArray type="Float64" Name="Sigma" NumberOfComponents="6" format="ascii" RangeMin="3162.610950021114" RangeMax="116231.71290500583">
          -57760.5319208752 57760.53192087306 0 33576.275817135145 0 0
          39651.935811274816 -39651.93581127869 0 -36044.07262015087 0 0
          -39550.00579902874 39550.00579903271 0 24420.5851402543 0 0
          23137.47644715482 -23137.476447152723 0 -25314.86658180896 0 0
          -23418.570419912292 23418.570419903906 0 14893.850132493064 0 0
          10066.863494436735 -10066.86349442783 0 -14833.038720870572 0 0
          -11095.75297199736 11095.75297199088 0 6467.820500551425 0 0
          3301.474754993741 -3301.474754987901 0 -6115.883765908298 0 0
          -4543.100839052031 4543.10083905558 0 2162.8602324556186 0 0
          -465.3120152316132 465.312015221354 0 -3093.392551579122 0 0
          3118.1122286644772 -3118.112228668859 0 1544.8821463363374 0 0
          58804.77180957967 -58804.77180957717 0 -45044.69856352441 0 0
          -77082.20910499892 77082.20910499766 0 40329.60654182405 0 0
          <InformationKey name="L2_NORM_RANGE" location="vtkDataArray" length="2">
            <Value index="0">
              3162.61095
            </Value>
            <Value index="1">
              116231.71291
            </Value>
          </InformationKey>
        </DataArray>
        <DataArray type="Float64" Name="Press" format="ascii" RangeMin="-94408.71770268839" RangeMax="80815.8894157887">
          -71972.14117578843 58331.31921607467 -49809.749042395386 37231.62800856676 -29307.14435438346 19070.662955090178
          -13258.136078778167 7463.669742088597 -5596.270049069628 1502.1196348455953 2844.4900410749533 80815.8894157887
          -94408.71770268839
        </DataArray>
        <DataArray type="Float64" Name="Dev strain" NumberOfComponents="6" format="ascii" RangeMin="0" RangeMax="0">
          0 0 0 0 0 0
          0 0 0 0 0 0
          0 0 0 0 0 0
          0 0 0 0 0 0
          0 0 0 0 0 0
          0 0 0 0 0 0
          0 0 0 0 0 0
          0 0 0 0 0 0
          0 0 0 0 0 0
          0 0 0 0 0 0
          0 0 0 0 0 0
          0 0 0 0 0 0
          0 0 0 0 0 0
          <InformationKey name="L2_NORM_RANGE" location="vtkDataArray" length="2">
            <Value index="0">
              0
            </Value>
            <Value index="1">
              0
            </Value>
          </InformationKey>
        </DataArray>
        <DataArray type="Float64" Name="J2 Stresses" format="ascii" RangeMin="2608784.6410554284" RangeMax="6348286251.4612665">
          3618120622.2194023 1897069806.3432894 1713294203.3514662 695553433.8562925 603886133.4544857 156346500.03924477
          133573909.52235466 20250744.117366873 21809256.330095883 2608784.6410554284 10319289.082077809 3965257404.7462835
          6348286251.4612665
        </DataArray>
      </PointData>
      <CellData>
        <DataArray type="UInt8" Name="vtkGhostType" format="ascii" RangeMin="0" RangeMax="1">
          1 1 0 0 0 0
          0 0 0 0 0
        </DataArray>
        <DataArray type="Float64" Name="Gauss Stress" NumberOfComponents="6" format="ascii" RangeMin="1087.6682867008483" RangeMax="54812.043945602236">
          -53867.64622632753 -3175.6667487981904 0 9620.394598478262 0 0
          35957.08105201809 8826.297252030714 0 -15837.498455513385 0 0
          -40369.72430357942 -1930.6563644940256 0 7317.59611241286 0 0
          -27238.788386666103 -684.721872142733 0 4666.52289697947 0 0
          22997.534880548985 7504.597240949116 0 -12312.784687235182 0 0
          -15980.692458514788 317.6141397985027 0 2176.210637391306 0 0
          12260.305376984248 5736.4590291989425 0 -8418.01839006216 0 0
          -7909.371813938283 315.54755676645334 0 838.2656556995817 0 0
          5182.927298611244 3667.8704469919185 0 -4827.033995409149 0 0
          -1046.6536662560811 213.54675081966508 0 204.7832757376117 0 0
          554.19374285822 1692.1524757178656 0 -2348.8053616772672 0 0
          <InformationKey name="L2_NORM_RANGE" location="vtkDataArray" length="2">
            <Value index="0">
              1087.6682867
            </Value>
            <Value index="1">
              54812.043946
            </Value>
          </InformationKey>
        </DataArray>
        <DataArray type="Float64" Name="Gauss Strain" NumberOfComponents="6" format="ascii" RangeMin="0" RangeMax="0">
          0 0 0 0 0 0
          0 0 0 0 0 0
          0 0 0 0 0 0
          0 0 0 0 0 0
          0 0 0 0 0 0
          0 0 0 0 0 0
          0 0 0 0 0 0
          0 0 0 0 0 0
          0 0 0 0 0 0
          0 0 0 0 0 0
          0 0 0 0 0 0
          <InformationKey name="L2_NORM_RANGE" location="vtkDataArray" length="2">
            <Value index="0">
              0
            </Value>
            <Value index="1">
              0
            </Value>
          </InformationKey>
        </DataArray>
      </CellData>
      <Points>
        <DataArray type="Float32" Name="Points" NumberOfComponents="3" format="ascii" RangeMin="0.4000000059604645" RangeMax="1.0012492197622458">
          0.5 0 0 0.6000000238418579 0.05000000074505806 0
          0.6000000238418579 0 0 0.699999988079071 0.05000000074505806 0
          0.699999988079071 0 0 0.800000011920929 0.05000000074505806 0
          0.800000011920929 0 0 0.8999999761581421 0.05000000074505806 0
          0.8999999761581421 0 0 1 0.05000000074505806 0
          1 0 0 0.5 0.05000000074505806 0
          0.4000000059604645 0 0
          <InformationKey name="L2_NORM_RANGE" location="vtkDataArray" length="2">
            <Value index="0">
              0.40000000596
            </Value>
            <Value index="1">
              1.0012492198
            </Value>
          </InformationKey>
        </DataArray>
      </Points>
      <Cells>
        <DataArray type="Int64" Name="connectivity" format="ascii" RangeMin="0" RangeMax="12">
          0 11 12 1 11 0
          2 1 0 4 3 2
          3 1 2 6 5 4
          5 3 4 8 7 6
          7 5 6 10 9 8
          9 7 8
        </DataArray>
        <DataArray type="Int64" Name="offsets" format="ascii" RangeMin="3" RangeMax="33">
          3 6 9 12 15 18
          21 24 27 30 33
        </DataArray>
        <DataArray type="UInt8" Name="types" format="ascii" RangeMin="5" RangeMax="5">
          5 5 5 5 5 5
          5 5 5 5 5
        </DataArray>
      </Cells>
    </Piece>
  </UnstructuredGrid>
</VTKFile>
