<?xml version="1.0"?>
<VTKFile type="UnstructuredGrid" version="0.1" byte_order="LittleEndian" header_type="UInt32" compressor="vtkZLibDataCompressor">
  <UnstructuredGrid>
    <Piece NumberOfPoints="13" NumberOfCells="11">
      <PointData>
        <DataArray type="Float64" Name="Disp" NumberOfComponents="3" format="ascii" RangeMin="0" RangeMax="0.035869394882456274">
          0 0 0 0 0 0
          -0.0004552106064354566 0.0008354812915436655 0 0.0005262327519442451 0.0008420109972882441 0
          -0.001067021722149021 0.0039590152404443265 0 0.001019352119611925 0.004003653027547631 0
          -0.0016928381310971378 0.009123118801371068 0 0.0013947684674917831 0.0092186767654452 0
          -0.0024205494127245808 0.01625700085413939 0 0.0016165504409238769 0.016422122951427906 0
          -0.003235246466861349 0.025183366677748155 0 0.0016349410896414965 0.025423881528966425 0
          -0.004119534980571221 0.035632049067902766 0
          <InformationKey name="L2_NORM_RANGE" location="vtkDataArray" length="2">
            <Value index="0">
              0
            </Value>
            <Value index="1">
              0.035869394882
            </Value>
          </InformationKey>
        </DataArray>
        <DataArray type="Float64" Name="Nodal Stress" NumberOfComponents="6" format="ascii" RangeMin="15980.321318664555" RangeMax="51240.82281381789">
          -49833.37176313212 -2825.1236687222186 0 11587.73738099773 0 0
          26937.672150932507 -344.48081340893856 0 -952.2033608471457 0 0
          -36606.39233476435 -2747.3945826432964 0 1893.4752905473188 0 0
          36219.25471632157 1353.7872734646253 0 -2166.4245422306994 0 0
          -31995.187445124702 -1830.3873883281258 0 2867.5537103765405 0 0
          33874.999331321946 1146.8579059237202 0 -647.865389670253 0 0
          -29565.42696051444 -1921.197896320555 0 2102.2922065834227 0 0
          30527.490132742158 915.2601393491045 0 106.3026417972583 0 0
          -25491.070831186007 -1593.0085279888988 0 2188.6390161277936 0 0
          26490.441669745924 705.5504107992334 0 1005.1938965159536 0 0
          -20934.19837552883 -1361.1955549907418 0 2281.9286031850847 0 0
          21576.915729298566 485.4895335213923 0 1670.693763570738 0 0
          -15753.419312081396 -1064.0672036169303 0 2463.373786434489 0 0
          <InformationKey name="L2_NORM_RANGE" location="vtkDataArray" length="2">
            <Value index="0">
              15980.321319
            </Value>
            <Value index="1">
              51240.822814
            </Value>
          </InformationKey>
        </DataArray>
        <DataArray type="Float64" Name="Nodal Strain" NumberOfComponents="6" format="ascii" RangeMin="0" RangeMax="0">
          0 0 0 0 0 0
          0 0 0 0 0 0
          0 0 0 0 0 0
          0 0 0 0 0 0
          0 0 0 0 0 0
          0 0 0 0 0 0
          0 0 0 0 0 0
          0 0 0 0 0 0
          0 0 0 0 0 0
          0 0 0 0 0 0
          0 0 0 0 0 0
          0 0 0 0 0 0
          0 0 0 0 0 0
          <InformationKey name="L2_NORM_RANGE" location="vtkDataArray" length="2">
            <Value index="0">
              0
            </Value>
            <Value index="1">
              0
            </Value>
          </InformationKey>
        </DataArray>
        <DataArray type="Float64" Name="Sld_traction" NumberOfComponents="3" format="ascii" RangeMin="5409.524994726917" RangeMax="23722.513897942164">
          22363.93988522372 -7912.765537292173 0 -7363.188583650702 -3225.4286487771446 0
          9716.219879072678 -5939.861546650434 0 8063.860892693106 -4825.023396382917 0
          10552.508421491802 -5486.803038929462 0 8021.572991792384 -4377.380190590694 0
          10331.425063362425 -5047.265507023078 0 7293.731805775662 -3681.4868355949257 0
          10132.988329744428 -4323.55069042198 0 6337.331475164838 -2892.958937986449 0
          9591.663098354358 -3602.575014151063 0 4992.719853333686 -2082.2365703019677 0
          8538.308425497253 -2835.2463846669193 0
          <InformationKey name="L2_NORM_RANGE" location="vtkDataArray" length="2">
            <Value index="0">
              5409.5249947
            </Value>
            <Value index="1">
              23722.513898
            </Value>
          </InformationKey>
        </DataArray>
        <DataArray type="Float64" Name="Velocity" NumberOfComponents="3" format="ascii" RangeMin="0" RangeMax="6.911942188171029">
          0 0 0 0 0 0
          0.09540355219508967 -0.18070677732723628 0 -0.11584736909976551 -0.18312724503354016 0
          0.23381914996693853 -0.8437497300013921 0 -0.19797767432405744 -0.8601159417123774 0
          0.3740433925663147 -1.8802986396088963 0 -0.2342378265270615 -1.9165976373860731 0
          0.5546730050133517 -3.256288677622276 0 -0.21420654280334728 -3.318038749045108 0
          0.7748271259278687 -4.9258317899286155 0 -0.12765230790965743 -5.014879730904884 0
          1.033475632207967 -6.834242674228861 0
          <InformationKey name="L2_NORM_RANGE" location="vtkDataArray" length="2">
            <Value index="0">
              0
            </Value>
            <Value index="1">
              6.9119421882
            </Value>
          </InformationKey>
        </DataArray>
        <DataArray type="Float64" Name="Acceleration" NumberOfComponents="3" format="ascii" RangeMin="0" RangeMax="461.10563864923324">
          0 0 0 0 0 0
          -22.595385312005988 56.29263224380543 0 38.61996854227573 59.688975828889625 0
          -51.84397328526529 227.6803764105207 0 33.98688667360125 235.93182647886078 0
          -54.61573518679779 375.93042723374856 0 1.411961288995144 388.5814676908267 0
          -54.408689956874696 444.71134827924834 0 -49.4402510229304 458.4474578104964 0
          -43.940766539643846 391.3906010881328 0 -106.8131847343393 402.34082571159524 0
          -23.40884373094559 196.6915174698297 0
          <InformationKey name="L2_NORM_RANGE" location="vtkDataArray" length="2">
            <Value index="0">
              0
            </Value>
            <Value index="1">
              461.10563865
            </Value>
          </InformationKey>
        </DataArray>
        <DataArray type="Float64" Name="Sigma" NumberOfComponents="6" format="ascii" RangeMin="34072.6864982459" RangeMax="75002.38344964873">
          -46745.765457734175 46745.76545773482 0 25883.32883969073 0 0
          52469.59809043344 -52469.598090434214 0 -8332.903879330455 0 0
          -52994.56336378494 52994.56336378432 0 2917.19572393992 0 0
          51501.50099998127 -51501.500999981705 0 -5847.540164685164 0 0
          -47069.84448510004 47069.844485101115 0 7853.882122169312 0 0
          47114.85944260407 -47114.859442604116 0 -4036.9704464394454 0 0
          -43504.455869815625 43504.455869814694 0 4198.727710057372 0 0
          42699.205106122055 -42699.20510612256 0 -1743.5379019788033 0 0
          -37977.491527469356 37977.49152747009 0 3800.304243309311 0 0
          36794.75744080307 -36794.757440804126 0 -184.38090545593866 0 0
          -31483.853526285202 31483.85352628452 0 3147.3431779732455 0 0
          29753.963679709173 -29753.96367970816 0 1039.4980843926844 0 0
          -23999.195762531068 23999.19576253135 0 3004.19218945069 0 0
          <InformationKey name="L2_NORM_RANGE" location="vtkDataArray" length="2">
            <Value index="0">
              34072.686498
            </Value>
            <Value index="1">
              75002.38345
            </Value>
          </InformationKey>
        </DataArray>
        <DataArray type="Float64" Name="Press" format="ascii" RangeMin="-59658.58598665508" RangeMax="57043.907679375705">
          -50107.45844026783 54556.51200348211 -59658.58598665508 57043.907679375705 -52005.62042959239 51153.797852468066
          -48428.58946805499 46340.40067200431 -41966.69995583049 39667.54510473107 -34814.20211742332 31943.681775102217
          -26518.318500655507
        </DataArray>
        <DataArray type="Float64" Name="Dev strain" NumberOfComponents="6" format="ascii" RangeMin="0" RangeMax="0">
          0 0 0 0 0 0
          0 0 0 0 0 0
          0 0 0 0 0 0
          0 0 0 0 0 0
          0 0 0 0 0 0
          0 0 0 0 0 0
          0 0 0 0 0 0
          0 0 0 0 0 0
          0 0 0 0 0 0
          0 0 0 0 0 0
          0 0 0 0 0 0
          0 0 0 0 0 0
          0 0 0 0 0 0
          <InformationKey name="L2_NORM_RANGE" location="vtkDataArray" length="2">
            <Value index="0">
              0
            </Value>
            <Value index="1">
              0
            </Value>
          </InformationKey>
        </DataArray>
        <DataArray type="Float64" Name="J2 Stresses" format="ascii" RangeMin="578217689.9260851" RangeMax="2810551253.841128">
          2352653266.1854153 2770418045.537198 2810551253.841128 2660953036.745495 2230991125.948786 2223884262.8926964
          1897045009.1244955 1823982097.79861 1445900440.8044636 1353862674.2071462 993709475.1345434 885568493.7202864
          578217689.9260851
        </DataArray>
      </PointData>
      <CellData>
        <DataArray type="UInt8" Name="vtkGhostType" format="ascii" RangeMin="0" RangeMax="0">
          0 0 0 0 0 0
          0 0 0 0 0
        </DataArray>
        <DataArray type="Float64" Name="Gauss Stress" NumberOfComponents="6" format="ascii" RangeMin="18568.462964402755" RangeMax="35952.609120353074">
          34306.12314094417 321.7659898570423 0 -3754.4161066919005 0 0
          -34160.087718175506 -2646.267230785291 0 6822.540228100063 0 0
          35912.86701991223 1548.523048255557 0 -676.8761629850994 0 0
          -34394.401861925166 -2019.1306293226821 0 1641.179227141357 0 0
          31791.73924510931 918.6667925018032 0 -527.2602127869592 0 0
          -30913.284319163653 -1940.3237109558756 0 2671.8797952624127 0 0
          28519.2389467869 841.5916004827682 0 624.1284786248561 0 0
          -27612.543681014715 -1757.382153572984 0 2085.16468379596 0 0
          23953.96411887901 577.3857227274034 0 1334.1534523033301 0 0
          -23259.98152715808 -1482.256451857417 0 2254.4221719422058 0 0
          -18372.641484027918 -1219.9177446229667 0 2397.01115060554 0 0
          <InformationKey name="L2_NORM_RANGE" location="vtkDataArray" length="2">
            <Value index="0">
              18568.462964
            </Value>
            <Value index="1">
              35952.60912
            </Value>
          </InformationKey>
        </DataArray>
        <DataArray type="Float64" Name="Gauss Strain" NumberOfComponents="6" format="ascii" RangeMin="0" RangeMax="0">
          0 0 0 0 0 0
          0 0 0 0 0 0
          0 0 0 0 0 0
          0 0 0 0 0 0
          0 0 0 0 0 0
          0 0 0 0 0 0
          0 0 0 0 0 0
          0 0 0 0 0 0
          0 0 0 0 0 0
          0 0 0 0 0 0
          0 0 0 0 0 0
          <InformationKey name="L2_NORM_RANGE" location="vtkDataArray" length="2">
            <Value index="0">
              0
            </Value>
            <Value index="1">
              0
            </Value>
          </InformationKey>
        </DataArray>
      </CellData>
      <Points>
        <DataArray type="Float32" Name="Points" NumberOfComponents="3" format="ascii" RangeMin="0" RangeMax="0.6020797527609908">
          0 0.05000000074505806 0 0 0 0
          0.10000000149011612 0.05000000074505806 0 0.10000000149011612 0 0
          0.20000000298023224 0.05000000074505806 0 0.20000000298023224 0 0
          0.30000001192092896 0.05000000074505806 0 0.30000001192092896 0 0
          0.4000000059604645 0.05000000074505806 0 0.4000000059604645 0 0
          0.5 0.05000000074505806 0 0.5 0 0
          0.6000000238418579 0.05000000074505806 0
          <InformationKey name="L2_NORM_RANGE" location="vtkDataArray" length="2">
            <Value index="0">
              0
            </Value>
            <Value index="1">
              0.60207975276
            </Value>
          </InformationKey>
        </DataArray>
      </Points>
      <Cells>
        <DataArray type="Int64" Name="connectivity" format="ascii" RangeMin="0" RangeMax="12">
          3 2 1 2 0 1
          5 4 3 4 2 3
          7 6 5 6 4 5
          9 8 7 8 6 7
          11 10 9 10 8 9
          12 10 11
        </DataArray>
        <DataArray type="Int64" Name="offsets" format="ascii" RangeMin="3" RangeMax="33">
          3 6 9 12 15 18
          21 24 27 30 33
        </DataArray>
        <DataArray type="UInt8" Name="types" format="ascii" RangeMin="5" RangeMax="5">
          5 5 5 5 5 5
          5 5 5 5 5
        </DataArray>
      </Cells>
    </Piece>
  </UnstructuredGrid>
</VTKFile>
