<?xml version="1.0"?>
<VTKFile type="UnstructuredGrid" version="0.1" byte_order="LittleEndian" header_type="UInt32" compressor="vtkZLibDataCompressor">
  <UnstructuredGrid>
    <Piece NumberOfPoints="13" NumberOfCells="11">
      <PointData>
        <DataArray type="Float64" Name="Disp" NumberOfComponents="3" format="ascii" RangeMin="0.017231711537689424" RangeMax="0.08190904810762076">
          0.0015519035783945491 0.025992159496349258 0 -0.003943741902309906 0.03578980023995753 0
          0.0013193815990936721 0.03607138801165865 0 -0.004726531699832656 0.04672827138639194 0
          0.0009005166532298345 0.04704950183629888 0 -0.005484479966550824 0.058221879434475425 0
          0.00033256891851770503 0.05856437654826296 0 -0.006191668324460662 0.06993346199182014 0
          -0.00035228583279021264 0.07027753925595909 0 -0.006836925508670532 0.08156599678079006 0
          -0.0010433033286284682 0.08190240338391179 0 -0.0031698297336814345 0.025765338817057594 0
          0.0015840429898301553 0.017158749672528846 0
          <InformationKey name="L2_NORM_RANGE" location="vtkDataArray" length="2">
            <Value index="0">
              0.017231711538
            </Value>
            <Value index="1">
              0.081909048108
            </Value>
          </InformationKey>
        </DataArray>
        <DataArray type="Float64" Name="Nodal Stress" NumberOfComponents="6" format="ascii" RangeMin="1209.3735890702196" RangeMax="23735.73584550643">
          18542.861852111946 383.38137078400814 0 1622.8970369894396 0 0
          -12956.436159985504 -922.0883091388835 0 2317.108448274812 0 0
          13412.35598460062 219.769008242016 0 1781.1387123459797 0 0
          -8421.775361385746 -660.5245287083856 0 2146.18229887092 0 0
          8562.045705199513 56.40656406530593 0 1655.9190466803573 0 0
          -4609.493268245992 -470.66622545240676 0 1768.0452565716498 0 0
          4703.579656410201 11.323826567683899 0 1381.4904012387915 0 0
          -2000.8834111699941 -268.2952954339206 0 1003.6797022161924 0 0
          2036.012882616328 -7.0215865890256675 0 638.6698396235557 0 0
          -1087.5751233545163 -98.61264857709001 0 519.6540912391666 0 0
          1715.8567419093845 412.6374613645974 0 698.2069230907275 0 0
          -17792.59848784165 -1225.6173884013704 0 2378.6495789823057 0 0
          23696.108252803282 563.8239410747007 0 1249.684905309375 0 0
          <InformationKey name="L2_NORM_RANGE" location="vtkDataArray" length="2">
            <Value index="0">
              1209.3735891
            </Value>
            <Value index="1">
              23735.735846
            </Value>
          </InformationKey>
        </DataArray>
        <DataArray type="Float64" Name="Nodal Strain" NumberOfComponents="6" format="ascii" RangeMin="0" RangeMax="0">
          0 0 0 0 0 0
          0 0 0 0 0 0
          0 0 0 0 0 0
          0 0 0 0 0 0
          0 0 0 0 0 0
          0 0 0 0 0 0
          0 0 0 0 0 0
          0 0 0 0 0 0
          0 0 0 0 0 0
          0 0 0 0 0 0
          0 0 0 0 0 0
          0 0 0 0 0 0
          0 0 0 0 0 0
          <InformationKey name="L2_NORM_RANGE" location="vtkDataArray" length="2">
            <Value index="0">
              0
            </Value>
            <Value index="1">
              0
            </Value>
          </InformationKey>
        </DataArray>
        <DataArray type="Float64" Name="Sld_traction" NumberOfComponents="3" format="ascii" RangeMin="100.65865060624557" RangeMax="9211.555987658283">
          4031.8208453238612 -1745.6404280059728 0 7264.116054481069 -2442.096024404484 0
          2636.3091012842647 -1079.5454416614655 0 5641.673694835685 -1742.2555935964808 0
          1310.1056512426549 -540.5569769437592 0 3760.1658869287735 -1179.25973057677 0
          204.63086678145254 -219.22545772234798 0 1915.1651159804271 -640.3343808538502 0
          -15.107680471716716 -160.2802038196633 0 222.51344948059148 -104.61973440617416 0
          -37.40175725017146 -93.45197962841381 0 8632.72043154779 -3213.8608657657383 0
          5358.42335094865 -2482.562890296684 0
          <InformationKey name="L2_NORM_RANGE" location="vtkDataArray" length="2">
            <Value index="0">
              100.65865061
            </Value>
            <Value index="1">
              9211.5559877
            </Value>
          </InformationKey>
        </DataArray>
        <DataArray type="Float64" Name="Velocity" NumberOfComponents="3" format="ascii" RangeMin="5.241054954283401" RangeMax="13.241823507487021">
          0.014817656389367273 7.0006299276981006 0 -0.9296247339634904 8.495708888058441 0
          -0.19864536162821445 8.575779182871697 0 -1.0282600735460596 9.849664918115614 0
          -0.4036549718106782 9.923050755976812 0 -1.1292403285455255 11.01385375429281 0
          -0.5794333480498677 11.080749487955291 0 -1.2461693267065868 12.075587209394676 0
          -0.7155039740401166 12.14034980797981 0 -1.3865970271547126 13.148555553104842 0
          -0.8437296100118433 13.214916199076903 0 -0.8214025834164289 6.91883300583327 0
          0.20138746885454817 5.237184369602328 0
          <InformationKey name="L2_NORM_RANGE" location="vtkDataArray" length="2">
            <Value index="0">
              5.2410549543
            </Value>
            <Value index="1">
              13.241823507
            </Value>
          </InformationKey>
        </DataArray>
        <DataArray type="Float64" Name="Acceleration" NumberOfComponents="3" format="ascii" RangeMin="86.73267950013214" RangeMax="1129.2495706890693">
          -141.73273393863508 116.61441134316101 0 -83.53647369032706 -23.32842164952308 0
          -171.35370875547187 -23.44055310312433 0 -54.43877958338385 -232.7654715807803 0
          -177.79299021965312 -242.3311974464741 0 -15.579156245370086 -504.05628493064796 0
          -162.03682815121647 -519.8774470512762 0 23.497275525997793 -807.5220360490239 0
          -128.7719527711596 -824.7855546813298 0 54.39203416004921 -1109.122209647001 0
          -94.2822534786967 -1125.306824639585 0 -94.95232759262171 106.64391931800401 0
          -95.61009564442236 173.40608933888007 0
          <InformationKey name="L2_NORM_RANGE" location="vtkDataArray" length="2">
            <Value index="0">
              86.7326795
            </Value>
            <Value index="1">
              1129.2495707
            </Value>
          </InformationKey>
        </DataArray>
        <DataArray type="Float64" Name="Sigma" NumberOfComponents="6" format="ascii" RangeMin="1639.766691488012" RangeMax="46009.257509135816">
          25289.61359890997 -25289.61359890849 0 963.8229890464971 0 0
          -19840.168037435073 19840.16803743252 0 2889.2226435637235 0 0
          18045.708707429665 -18045.70870743166 0 1359.2351548800093 0 0
          -13041.55958005034 13041.559580051591 0 2587.2468782539477 0 0
          11256.633339755464 -11256.633339756521 0 1305.908285661203 0 0
          -7145.882864446124 7145.882864447226 0 2014.0162059312147 0 0
          5785.8932109162515 -5785.893210912518 0 1475.008249654445 0 0
          -3019.9139164718567 3019.9139164610615 0 984.3256491832487 0 0
          2505.45687259747 -2505.45687258988 0 424.67002389352547 0 0
          -1713.2917051415245 1713.2917051442414 0 325.57026120305215 0 0
          907.1366968155083 -907.1366968232736 0 1021.2937036331662 0 0
          -26936.110154502538 26936.110154504306 0 3242.5683210890297 0 0
          32533.410591096883 -32533.41059109756 0 78.53129399520077 0 0
          <InformationKey name="L2_NORM_RANGE" location="vtkDataArray" length="2">
            <Value index="0">
              1639.7666915
            </Value>
            <Value index="1">
              46009.257509
            </Value>
          </InformationKey>
        </DataArray>
        <DataArray type="Float64" Name="Press" format="ascii" RangeMin="-29859.044619783977" RangeMax="34994.41600294651">
          27128.77724690914 -21979.122106789255 19256.873493724765 -14463.340188270078 11900.673649615643 -8118.562508379786
          6172.988143140151 -3474.0877912515975 2527.9052110323323 -2054.2558410436827 1891.6695182809626 -29859.044619783977
          34994.41600294651
        </DataArray>
        <DataArray type="Float64" Name="Dev strain" NumberOfComponents="6" format="ascii" RangeMin="0" RangeMax="0">
          0 0 0 0 0 0
          0 0 0 0 0 0
          0 0 0 0 0 0
          0 0 0 0 0 0
          0 0 0 0 0 0
          0 0 0 0 0 0
          0 0 0 0 0 0
          0 0 0 0 0 0
          0 0 0 0 0 0
          0 0 0 0 0 0
          0 0 0 0 0 0
          0 0 0 0 0 0
          0 0 0 0 0 0
          <InformationKey name="L2_NORM_RANGE" location="vtkDataArray" length="2">
            <Value index="0">
              0
            </Value>
            <Value index="1">
              0
            </Value>
          </InformationKey>
        </DataArray>
        <DataArray type="Float64" Name="J2 Stresses" format="ascii" RangeMin="1083657.193986583" RangeMax="1058424346.4799509">
          639796794.6706882 395719169.62463 326109482.8050042 171755737.8822778 127138143.25834584 52077707.23183101
          34020472.582242325 9362104.308777794 6322400.297725311 2961867.465656363 1083657.193986583 728182592.5847749
          1058424346.4799509
        </DataArray>
      </PointData>
      <CellData>
        <DataArray type="UInt8" Name="vtkGhostType" format="ascii" RangeMin="0" RangeMax="1">
          1 1 0 0 0 0
          0 0 0 0 0
        </DataArray>
        <DataArray type="Float64" Name="Gauss Stress" NumberOfComponents="6" format="ascii" RangeMin="1494.547616856797" RangeMax="21103.74914728391">
          21050.354221858666 459.0781981899752 0 1428.3075347102422 0 0
          -15398.684690897247 -1074.2416288785876 0 2365.2046512330835 0 0
          15967.22763424974 303.7914549790052 0 1737.42692916341 0 0
          10984.996474068372 144.4748293112449 0 1750.79677293172 0 0
          -10673.869237130111 -783.1899637607067 0 2278.5682255658935 0 0
          6617.247656867199 19.48519938473126 0 1598.3109137489541 0 0
          -6537.346050591741 -583.4733140973095 0 1969.0571232821217 0 0
          3499.413909987584 -14.876868040150157 0 961.3346409104063 0 0
          -3266.521908830989 -346.58619549848817 0 1491.1167015896362 0 0
          1354.873584180356 222.00567466690023 0 590.5113295765813 0 0
          -1742.7290567596197 -257.56322408250816 0 578.1886447599421 0 0
          <InformationKey name="L2_NORM_RANGE" location="vtkDataArray" length="2">
            <Value index="0">
              1494.5476169
            </Value>
            <Value index="1">
              21103.749147
            </Value>
          </InformationKey>
        </DataArray>
        <DataArray type="Float64" Name="Gauss Strain" NumberOfComponents="6" format="ascii" RangeMin="0" RangeMax="0">
          0 0 0 0 0 0
          0 0 0 0 0 0
          0 0 0 0 0 0
          0 0 0 0 0 0
          0 0 0 0 0 0
          0 0 0 0 0 0
          0 0 0 0 0 0
          0 0 0 0 0 0
          0 0 0 0 0 0
          0 0 0 0 0 0
          0 0 0 0 0 0
          <InformationKey name="L2_NORM_RANGE" location="vtkDataArray" length="2">
            <Value index="0">
              0
            </Value>
            <Value index="1">
              0
            </Value>
          </InformationKey>
        </DataArray>
      </CellData>
      <Points>
        <DataArray type="Float32" Name="Points" NumberOfComponents="3" format="ascii" RangeMin="0.4000000059604645" RangeMax="1.0012492197622458">
          0.5 0 0 0.6000000238418579 0.05000000074505806 0
          0.6000000238418579 0 0 0.699999988079071 0.05000000074505806 0
          0.699999988079071 0 0 0.800000011920929 0.05000000074505806 0
          0.800000011920929 0 0 0.8999999761581421 0.05000000074505806 0
          0.8999999761581421 0 0 1 0.05000000074505806 0
          1 0 0 0.5 0.05000000074505806 0
          0.4000000059604645 0 0
          <InformationKey name="L2_NORM_RANGE" location="vtkDataArray" length="2">
            <Value index="0">
              0.40000000596
            </Value>
            <Value index="1">
              1.0012492198
            </Value>
          </InformationKey>
        </DataArray>
      </Points>
      <Cells>
        <DataArray type="Int64" Name="connectivity" format="ascii" RangeMin="0" RangeMax="12">
          0 11 12 1 11 0
          2 1 0 4 3 2
          3 1 2 6 5 4
          5 3 4 8 7 6
          7 5 6 10 9 8
          9 7 8
        </DataArray>
        <DataArray type="Int64" Name="offsets" format="ascii" RangeMin="3" RangeMax="33">
          3 6 9 12 15 18
          21 24 27 30 33
        </DataArray>
        <DataArray type="UInt8" Name="types" format="ascii" RangeMin="5" RangeMax="5">
          5 5 5 5 5 5
          5 5 5 5 5
        </DataArray>
      </Cells>
    </Piece>
  </UnstructuredGrid>
</VTKFile>
