<?xml version="1.0"?>
<VTKFile type="UnstructuredGrid" version="0.1" byte_order="LittleEndian" header_type="UInt32" compressor="vtkZLibDataCompressor">
  <UnstructuredGrid>
    <Piece NumberOfPoints="13" NumberOfCells="11">
      <PointData>
        <DataArray type="Float64" Name="Disp" NumberOfComponents="3" format="ascii" RangeMin="0" RangeMax="0.06208376041885245">
          0 0 0 0 0 0
          0.0011125559354867509 -0.002226516507438812 0 -0.001325800896138646 -0.002178943705474989 0
          0.0019547530583586457 -0.009708133848328528 0 -0.002659154816258247 -0.009512316458648959 0
          0.0020592395663969983 -0.02054159297396783 0 -0.003894312363544961 -0.020187929417183576 0
          0.0016421012503735032 -0.033531523349133174 0 -0.005139120138384879 -0.03307424315796642 0
          0.0008391736055542795 -0.047645024540287434 0 -0.006306524534159665 -0.047133075917291725 0
          -0.0001836553906637723 -0.06208348877473744 0
          <InformationKey name="L2_NORM_RANGE" location="vtkDataArray" length="2">
            <Value index="0">
              0
            </Value>
            <Value index="1">
              0.062083760419
            </Value>
          </InformationKey>
        </DataArray>
        <DataArray type="Float64" Name="Nodal Stress" NumberOfComponents="6" format="ascii" RangeMin="5468.869605720691" RangeMax="126319.32770619265">
          121064.40458583589 -771.3688811459615 0 -36047.01769176932 0 0
          -61876.121511402154 -8294.022544860696 0 -3124.257492977082 0 0
          82896.65037463549 6405.157503313606 0 -15128.384548642303 0 0
          -75555.73460396826 -979.2807457976579 0 4075.7829924194157 0 0
          58669.49048246474 7227.196291218216 0 -18447.76738935387 0 0
          -60666.31555858846 -1635.8088916757367 0 3364.8184246804894 0 0
          42115.64838595917 7165.454698239632 0 -15435.21759793835 0 0
          -42182.404781561905 -112.01556788439734 0 2816.1210997222706 0 0
          24439.68443167986 6107.927910666698 0 -12084.955422620942 0 0
          -25805.80699610212 612.1024125705129 0 956.3816405223524 0 0
          11389.287003501122 4422.135538056041 0 -7864.109251230028 0 0
          -12166.824801607127 1072.0093218822167 0 -404.20913146242316 0 0
          2747.694059270502 2457.267728421023 0 -4039.869729568735 0 0
          <InformationKey name="L2_NORM_RANGE" location="vtkDataArray" length="2">
            <Value index="0">
              5468.8696057
            </Value>
            <Value index="1">
              126319.32771
            </Value>
          </InformationKey>
        </DataArray>
        <DataArray type="Float64" Name="Nodal Strain" NumberOfComponents="6" format="ascii" RangeMin="0" RangeMax="0">
          0 0 0 0 0 0
          0 0 0 0 0 0
          0 0 0 0 0 0
          0 0 0 0 0 0
          0 0 0 0 0 0
          0 0 0 0 0 0
          0 0 0 0 0 0
          0 0 0 0 0 0
          0 0 0 0 0 0
          0 0 0 0 0 0
          0 0 0 0 0 0
          0 0 0 0 0 0
          0 0 0 0 0 0
          <InformationKey name="L2_NORM_RANGE" location="vtkDataArray" length="2">
            <Value index="0">
              0
            </Value>
            <Value index="1">
              0
            </Value>
          </InformationKey>
        </DataArray>
        <DataArray type="Float64" Name="Sld_traction" NumberOfComponents="3" format="ascii" RangeMin="903.8316836174071" RangeMax="60345.589740779804">
          -57815.19761010547 17291.417711308797 0 20673.045797247396 16385.55091444039 0
          -24165.38760400802 15120.873932443537 0 -12811.03247366355 10189.96292891598 0
          -21914.588232345155 12248.985708428243 0 -8833.058914412717 7557.589881911247 0
          -18397.383850197588 10839.83172295875 0 -5407.946725968745 4863.316221759271 0
          -14478.85949253571 8333.963261665338 0 -2581.484470041846 2416.4529852105074 0
          -9926.860591229191 5555.973530429407 0 -649.1360666353185 628.9150016527702 0
          -5424.257710987726 2835.4752406971056 0
          <InformationKey name="L2_NORM_RANGE" location="vtkDataArray" length="2">
            <Value index="0">
              903.83168362
            </Value>
            <Value index="1">
              60345.589741
            </Value>
          </InformationKey>
        </DataArray>
        <DataArray type="Float64" Name="Velocity" NumberOfComponents="3" format="ascii" RangeMin="0" RangeMax="7.662668697640495">
          0 0 0 0 0 0
          0.22559201819462332 -0.5058424702256911 0 -0.30230287882831464 -0.48780367136602243 0
          0.29101912907353245 -2.0503888690351273 0 -0.5718705702009323 -1.9751292137965732 0
          0.11105317583958019 -3.885793078789753 0 -0.7725924228004364 -3.7782124583043597 0
          -0.1811202128649808 -5.564866732335931 0 -0.9224673527296374 -5.4616262721216895 0
          -0.47906644352478667 -6.8283867036829236 0 -0.9971034968982573 -6.751565529572762 0
          -0.7061815291683834 -7.630058926224677 0
          <InformationKey name="L2_NORM_RANGE" location="vtkDataArray" length="2">
            <Value index="0">
              0
            </Value>
            <Value index="1">
              7.6626686976
            </Value>
          </InformationKey>
        </DataArray>
        <DataArray type="Float64" Name="Acceleration" NumberOfComponents="3" format="ascii" RangeMin="0" RangeMax="2058.0098733414893">
          0 0 0 0 0 0
          -19.889697598676605 16.737380552872196 0 9.45613403035037 19.471812051290726 0
          -79.63069786120275 151.02744309980608 0 44.466237907100435 158.46815291028815 0
          -143.87698690211687 536.4680784344109 0 108.47604832274897 529.8793666205729 0
          -148.10041640066356 1155.2290755063023 0 173.66028957879234 1129.303452263588 0
          -59.01374227499059 1783.1978369097415 0 183.8785315951327 1755.0153715159977 0
          87.88423212377484 2056.1325347640086 0
          <InformationKey name="L2_NORM_RANGE" location="vtkDataArray" length="2">
            <Value index="0">
              0
            </Value>
            <Value index="1">
              2058.0098733
            </Value>
          </InformationKey>
        </DataArray>
        <DataArray type="Float64" Name="Sigma" NumberOfComponents="6" format="ascii" RangeMin="8475.650170209492" RangeMax="184621.5697346607">
          121284.22207256083 -121284.22207256065 0 -68303.72584125795 0 0
          -115492.78207707519 115492.78207707567 0 17798.09753331406 0 0
          116595.88486591732 -116595.88486591804 0 -25378.71661787542 0 0
          -109637.12846585043 109637.12846585021 0 23995.41397509569 0 0
          84872.96804473503 -84872.9680447356 0 -43314.92595693533 0 0
          -80128.71023796576 80128.71023796558 0 25397.535715345944 0 0
          59917.35482570697 -59917.35482570776 0 -34197.43593194236 0 0
          -55030.549198748704 55030.549198749744 0 19646.92112476379 0 0
          34563.209319972266 -34563.20931997332 0 -26325.936777106475 0 0
          -31761.186562730298 31761.18656272804 0 11881.093353827595 0 0
          15867.31604383035 -15867.316043829376 0 -15716.670242349006 0 0
          -13991.60813112353 13991.608131128978 0 4741.722805815982 0 0
          3449.8312875506085 -3449.8312875510246 0 -6930.654657580562 0 0
          <InformationKey name="L2_NORM_RANGE" location="vtkDataArray" length="2">
            <Value index="0">
              8475.6501702
            </Value>
            <Value index="1">
              184621.56973
            </Value>
          </InformationKey>
        </DataArray>
        <DataArray type="Float64" Name="Press" format="ascii" RangeMin="-140932.74786744564" RangeMax="137974.41433973715">
          121772.20246854414 -140932.74786744564 137974.41433973715 -117576.81453843231 99345.62219707119 -91068.17473380126
          75805.78861107002 -62047.609158706066 46478.700889037726 -35811.98595435288 23828.16062377834 -15125.176459875738
          7179.142449068965
        </DataArray>
        <DataArray type="Float64" Name="Dev strain" NumberOfComponents="6" format="ascii" RangeMin="0" RangeMax="0">
          0 0 0 0 0 0
          0 0 0 0 0 0
          0 0 0 0 0 0
          0 0 0 0 0 0
          0 0 0 0 0 0
          0 0 0 0 0 0
          0 0 0 0 0 0
          0 0 0 0 0 0
          0 0 0 0 0 0
          0 0 0 0 0 0
          0 0 0 0 0 0
          0 0 0 0 0 0
          0 0 0 0 0 0
          <InformationKey name="L2_NORM_RANGE" location="vtkDataArray" length="2">
            <Value index="0">
              0
            </Value>
            <Value index="1">
              0
            </Value>
          </InformationKey>
        </DataArray>
        <DataArray type="Float64" Name="J2 Stresses" format="ascii" RangeMin="23909829.408225305" RangeMax="15876212264.695663">
          15876212264.695663 13417775780.854176 13755620181.958939 12164244911.196423 7672466407.38636 6581868909.5029335
          3882455565.3895435 3124861722.5366316 1367879175.2943063 1044063066.6930795 313525149.31146514 201386081.88679713
          23909829.408225305
        </DataArray>
      </PointData>
      <CellData>
        <DataArray type="UInt8" Name="vtkGhostType" format="ascii" RangeMin="0" RangeMax="0">
          0 0 0 0 0 0
          0 0 0 0 0
        </DataArray>
        <DataArray type="Float64" Name="Gauss Stress" NumberOfComponents="6" format="ascii" RangeMin="9898.46909263542" RangeMax="84293.94289802673">
          -76356.3912477164 -4000.374129710991 0 5471.598296844779 0 0
          80400.39793407959 -1191.1519735224474 0 -25294.781641939775 0 0
          -71397.41257808119 -1468.8321386940652 0 2026.007911168772 0 0
          70524.98214772603 9303.832517857532 0 -14899.40953323836 0 0
          -50850.63329748161 -689.3635568099185 0 3615.6736360557934 0 0
          49581.616235605405 6473.874480620722 0 -17371.60872451058 0 0
          -34536.47355517598 282.54407249441374 0 1734.0259004949721 0 0
          33228.96509611075 6928.955131490116 0 -13625.48386142835 0 0
          -18998.16014682458 925.4922865257854 0 302.0486390981923 0 0
          17721.40478651184 5275.178919129508 0 -10053.837888542628 0 0
          7069.221937742997 3518.862470906714 0 -5968.534031371195 0 0
          <InformationKey name="L2_NORM_RANGE" location="vtkDataArray" length="2">
            <Value index="0">
              9898.4690926
            </Value>
            <Value index="1">
              84293.942898
            </Value>
          </InformationKey>
        </DataArray>
        <DataArray type="Float64" Name="Gauss Strain" NumberOfComponents="6" format="ascii" RangeMin="0" RangeMax="0">
          0 0 0 0 0 0
          0 0 0 0 0 0
          0 0 0 0 0 0
          0 0 0 0 0 0
          0 0 0 0 0 0
          0 0 0 0 0 0
          0 0 0 0 0 0
          0 0 0 0 0 0
          0 0 0 0 0 0
          0 0 0 0 0 0
          0 0 0 0 0 0
          <InformationKey name="L2_NORM_RANGE" location="vtkDataArray" length="2">
            <Value index="0">
              0
            </Value>
            <Value index="1">
              0
            </Value>
          </InformationKey>
        </DataArray>
      </CellData>
      <Points>
        <DataArray type="Float32" Name="Points" NumberOfComponents="3" format="ascii" RangeMin="0" RangeMax="0.6020797527609908">
          0 0.05000000074505806 0 0 0 0
          0.10000000149011612 0.05000000074505806 0 0.10000000149011612 0 0
          0.20000000298023224 0.05000000074505806 0 0.20000000298023224 0 0
          0.30000001192092896 0.05000000074505806 0 0.30000001192092896 0 0
          0.4000000059604645 0.05000000074505806 0 0.4000000059604645 0 0
          0.5 0.05000000074505806 0 0.5 0 0
          0.6000000238418579 0.05000000074505806 0
          <InformationKey name="L2_NORM_RANGE" location="vtkDataArray" length="2">
            <Value index="0">
              0
            </Value>
            <Value index="1">
              0.60207975276
            </Value>
          </InformationKey>
        </DataArray>
      </Points>
      <Cells>
        <DataArray type="Int64" Name="connectivity" format="ascii" RangeMin="0" RangeMax="12">
          3 2 1 2 0 1
          5 4 3 4 2 3
          7 6 5 6 4 5
          9 8 7 8 6 7
          11 10 9 10 8 9
          12 10 11
        </DataArray>
        <DataArray type="Int64" Name="offsets" format="ascii" RangeMin="3" RangeMax="33">
          3 6 9 12 15 18
          21 24 27 30 33
        </DataArray>
        <DataArray type="UInt8" Name="types" format="ascii" RangeMin="5" RangeMax="5">
          5 5 5 5 5 5
          5 5 5 5 5
        </DataArray>
      </Cells>
    </Piece>
  </UnstructuredGrid>
</VTKFile>
