<?xml version="1.0"?>
<VTKFile type="UnstructuredGrid" version="0.1" byte_order="LittleEndian" header_type="UInt32" compressor="vtkZLibDataCompressor">
  <UnstructuredGrid>
    <Piece NumberOfPoints="13" NumberOfCells="11">
      <PointData>
        <DataArray type="Float64" Name="Disp" NumberOfComponents="3" format="ascii" RangeMin="0.011897912932430085" RangeMax="0.07416939342815072">
          -0.0026548088503905486 -0.019271827290649437 0 0.0015118852718668065 -0.02873461944522655 0
          -0.003460521157288061 -0.02848911950158635 0 0.001227309888249887 -0.03933857973319329 0
          -0.0042889031075037535 -0.039035391224220804 0 0.0007302387544429682 -0.050778004915038116 0
          -0.005086677598485359 -0.05044062385219528 0 0.00007042106561165406 -0.0625476469454495 0
          -0.005781898172510973 -0.06220654265855922 0 -0.0006619229708777766 -0.07416643971150585 0
          -0.006442048298834982 -0.073828793123926 0 0.001560779402059933 -0.01944788807772449 0
          -0.0019169925880176014 -0.011742464458757056 0
          <InformationKey name="L2_NORM_RANGE" location="vtkDataArray" length="2">
            <Value index="0">
              0.011897912932
            </Value>
            <Value index="1">
              0.074169393428
            </Value>
          </InformationKey>
        </DataArray>
        <DataArray type="Float64" Name="Nodal Stress" NumberOfComponents="6" format="ascii" RangeMin="865.9121503593568" RangeMax="30931.31560731696">
          -27548.821879307015 -1183.1480414722093 0 2752.022169334513 0 0
          22037.951568652978 2890.01010780079 0 -6452.1371661041885 0 0
          -22220.42544894066 -472.1135014727156 0 1733.3415319858327 0 0
          14797.019860228947 2847.7188611922716 0 -5888.085997283262 0 0
          -15328.18148224968 218.56829937171162 0 632.8977092852766 0 0
          7776.451168066538 2405.105633691904 0 -4500.742788324037 0 0
          -8621.82036491348 567.1245746040755 0 -258.8304194702424 0 0
          2876.159967838836 1430.3537833556402 0 -2523.4133751421696 0 0
          -3899.379287756657 285.4673836306347 0 -324.413143749083 0 0
          916.4299080506854 717.4268221150971 0 -1447.6421175818914 0 0
          -852.2392329665929 46.365937600271906 0 146.09018366381193 0 0
          27946.49524808652 2562.7154085529332 0 -6089.034011228943 0 0
          -30690.55267338931 -1788.8907562946983 0 3411.177459970305 0 0
          <InformationKey name="L2_NORM_RANGE" location="vtkDataArray" length="2">
            <Value index="0">
              865.91215036
            </Value>
            <Value index="1">
              30931.315607
            </Value>
          </InformationKey>
        </DataArray>
        <DataArray type="Float64" Name="Nodal Strain" NumberOfComponents="6" format="ascii" RangeMin="0" RangeMax="0">
          0 0 0 0 0 0
          0 0 0 0 0 0
          0 0 0 0 0 0
          0 0 0 0 0 0
          0 0 0 0 0 0
          0 0 0 0 0 0
          0 0 0 0 0 0
          0 0 0 0 0 0
          0 0 0 0 0 0
          0 0 0 0 0 0
          0 0 0 0 0 0
          0 0 0 0 0 0
          0 0 0 0 0 0
          <InformationKey name="L2_NORM_RANGE" location="vtkDataArray" length="2">
            <Value index="0">
              0
            </Value>
            <Value index="1">
              0
            </Value>
          </InformationKey>
        </DataArray>
        <DataArray type="Float64" Name="Sld_traction" NumberOfComponents="3" format="ascii" RangeMin="141.66377448388377" RangeMax="9649.810380559642">
          -5078.520589590204 4108.472846512911 0 -8202.097218988689 5049.643025085374 0
          -3488.313171300438 2870.376567766897 0 -7513.51609053783 4330.215348940524 0
          -1905.9439422680155 1526.9438765572456 0 -5793.406517051468 3228.7875324392667 0
          -447.5228146689873 519.5412657807304 0 -3378.993505425556 1869.8229047420618 0
          -194.17990299014505 276.28670912267717 0 -702.2061747562071 282.3521176796165 0
          122.37966880030467 71.35714165623796 0 -8067.723128227241 5294.401184933371 0
          -6375.093979784293 5015.5283075006555 0
          <InformationKey name="L2_NORM_RANGE" location="vtkDataArray" length="2">
            <Value index="0">
              141.66377448
            </Value>
            <Value index="1">
              9649.8103806
            </Value>
          </InformationKey>
        </DataArray>
        <DataArray type="Float64" Name="Velocity" NumberOfComponents="3" format="ascii" RangeMin="3.4772354947724633" RangeMax="16.086343908487425">
          0.7406303408864106 5.174628212132154 0 -0.050798505067975785 7.240657159636825 0
          0.9761927972896212 7.1356105934399565 0 0.1549022681445924 9.376068551827018 0
          1.2410551880249354 9.251370882179167 0 0.40551170169457695 11.594363046755092 0
          1.5210027338931345 11.458659232397132 0 0.6819780677130817 13.837920739963089 0
          1.7978972048106767 13.701171035577687 0 0.9604735675932581 16.057644623919323 0
          2.067644596193011 15.922750657318481 0 -0.19390837362791413 5.254107121551018 0
          0.5419839351985343 3.4347372679860406 0
          <InformationKey name="L2_NORM_RANGE" location="vtkDataArray" length="2">
            <Value index="0">
              3.4772354948
            </Value>
            <Value index="1">
              16.086343908
            </Value>
          </InformationKey>
        </DataArray>
        <DataArray type="Float64" Name="Acceleration" NumberOfComponents="3" format="ascii" RangeMin="156.54725918302725" RangeMax="2151.139309168031">
          -46.665740572955656 -976.4581486260504 0 -205.84147595876482 -669.4038017170242 0
          12.197185861556136 -671.2807130156798 0 -233.09316893328378 -115.13835040140839 0
          85.60966855865536 -131.0649800938263 0 -216.8720432576349 602.0470920928929 0
          161.98674872709853 576.2963816600823 0 -165.4353658467562 1388.970038482803 0
          222.5431807798468 1361.3503681604489 0 -100.15753319353553 2148.8063654020807 0
          274.4036527368298 2121.9604255236773 0 -138.50236965715317 -987.5690066394454 0
          -85.906585296098 -1021.2993162102321 0
          <InformationKey name="L2_NORM_RANGE" location="vtkDataArray" length="2">
            <Value index="0">
              156.54725918
            </Value>
            <Value index="1">
              2151.1393092
            </Value>
          </InformationKey>
        </DataArray>
        <DataArray type="Float64" Name="Sigma" NumberOfComponents="6" format="ascii" RangeMin="1495.7801058337543" RangeMax="62405.76915237638">
          -38008.139469196714 38008.13946919662 0 12088.459147247857 0 0
          31524.019695685576 -31524.019695685805 0 -15430.630204879168 0 0
          -29782.179777001304 29782.179777002802 0 9896.640703674311 0 0
          21308.202005100793 -21308.202005104366 0 -13167.78744327485 0 0
          -19679.433005296476 19679.43300530011 0 6625.37210086513 0 0
          11090.220839344462 -11090.220839346068 0 -9195.156692757084 0 0
          -10312.637481542019 10312.63748154356 0 2716.3825323096953 0 0
          4313.412356314127 -4313.412356318556 0 -4329.1511470845635 0 0
          -4405.9243388124005 4405.924338818482 0 1027.071913280721 0 0
          1140.3442622934833 -1140.3442622985688 0 -2596.1301207820834 0 0
          734.1848676954137 -734.1848676902722 0 1076.709471078305 0 0
          39707.37557460424 -39707.37557460365 0 -15524.814841761352 0 0
          -43211.29123955084 43211.29123955177 0 12651.03325112397 0 0
          <InformationKey name="L2_NORM_RANGE" location="vtkDataArray" length="2">
            <Value index="0">
              1495.7801058
            </Value>
            <Value index="1">
              62405.769152
            </Value>
          </InformationKey>
        </DataArray>
        <DataArray type="Float64" Name="Press" format="ascii" RangeMin="-49179.325700440466" RangeMax="46421.76878346552">
          -43213.33307807804 38233.659204907555 -33691.56570709895 27194.33692266416 -21916.241268058682 15500.390083021472
          -10971.402476927566 6608.559551176154 -4824.790093235245 2277.6673737214833 467.68806438773987 46421.76878346552
          -49179.325700440466
        </DataArray>
        <DataArray type="Float64" Name="Dev strain" NumberOfComponents="6" format="ascii" RangeMin="0" RangeMax="0">
          0 0 0 0 0 0
          0 0 0 0 0 0
          0 0 0 0 0 0
          0 0 0 0 0 0
          0 0 0 0 0 0
          0 0 0 0 0 0
          0 0 0 0 0 0
          0 0 0 0 0 0
          0 0 0 0 0 0
          0 0 0 0 0 0
          0 0 0 0 0 0
          0 0 0 0 0 0
          0 0 0 0 0 0
          <InformationKey name="L2_NORM_RANGE" location="vtkDataArray" length="2">
            <Value index="0">
              0
            </Value>
            <Value index="1">
              0
            </Value>
          </InformationKey>
        </DataArray>
        <DataArray type="Float64" Name="J2 Stresses" format="ascii" RangeMin="828853.2412265881" RangeMax="1907227851.1695838">
          1481151377.0485759 1053289904.9039114 911464106.5740758 497387129.2280743 398253972.27875423 144130724.9165368
          108195175.34118049 23290913.56919839 19675888.458128814 2985357.937559467 828853.2412265881 1636930643.990397
          1907227851.1695838
        </DataArray>
      </PointData>
      <CellData>
        <DataArray type="UInt8" Name="vtkGhostType" format="ascii" RangeMin="0" RangeMax="1">
          1 1 0 0 0 0
          0 0 0 0 0
        </DataArray>
        <DataArray type="Float64" Name="Gauss Stress" NumberOfComponents="6" format="ascii" RangeMin="1553.0052462761155" RangeMax="29359.94470791631">
          -29160.98170973211 -1486.2782869694122 0 3071.5591855368266 0 0
          24888.450237129393 2739.6130364007377 0 -6288.995299797556 0 0
          -24979.17971026063 -801.6466765852736 0 2184.823215347669 0 0
          -18855.626943230156 -86.6864250983092 0 1118.0751204215308 0 0
          18262.15744808595 2895.462832228466 0 -6233.925648159904 0 0
          -12096.367769819606 504.86532851094194 0 48.86598013924731 0 0
          11165.82519225858 2686.498632825542 0 -5245.857345055603 0 0
          -6530.927494342317 405.83881501894274 0 -195.23223383138225 0 0
          5409.51429046221 2015.5171477163315 0 -3602.6417691773167 0 0
          -1536.9432879831745 150.6535179012066 0 -164.11624547435235 0 0
          1703.0897038192006 1004.53485062125 0 -1966.0697848619757 0 0
          <InformationKey name="L2_NORM_RANGE" location="vtkDataArray" length="2">
            <Value index="0">
              1553.0052463
            </Value>
            <Value index="1">
              29359.944708
            </Value>
          </InformationKey>
        </DataArray>
        <DataArray type="Float64" Name="Gauss Strain" NumberOfComponents="6" format="ascii" RangeMin="0" RangeMax="0">
          0 0 0 0 0 0
          0 0 0 0 0 0
          0 0 0 0 0 0
          0 0 0 0 0 0
          0 0 0 0 0 0
          0 0 0 0 0 0
          0 0 0 0 0 0
          0 0 0 0 0 0
          0 0 0 0 0 0
          0 0 0 0 0 0
          0 0 0 0 0 0
          <InformationKey name="L2_NORM_RANGE" location="vtkDataArray" length="2">
            <Value index="0">
              0
            </Value>
            <Value index="1">
              0
            </Value>
          </InformationKey>
        </DataArray>
      </CellData>
      <Points>
        <DataArray type="Float32" Name="Points" NumberOfComponents="3" format="ascii" RangeMin="0.4000000059604645" RangeMax="1.0012492197622458">
          0.5 0 0 0.6000000238418579 0.05000000074505806 0
          0.6000000238418579 0 0 0.699999988079071 0.05000000074505806 0
          0.699999988079071 0 0 0.800000011920929 0.05000000074505806 0
          0.800000011920929 0 0 0.8999999761581421 0.05000000074505806 0
          0.8999999761581421 0 0 1 0.05000000074505806 0
          1 0 0 0.5 0.05000000074505806 0
          0.4000000059604645 0 0
          <InformationKey name="L2_NORM_RANGE" location="vtkDataArray" length="2">
            <Value index="0">
              0.40000000596
            </Value>
            <Value index="1">
              1.0012492198
            </Value>
          </InformationKey>
        </DataArray>
      </Points>
      <Cells>
        <DataArray type="Int64" Name="connectivity" format="ascii" RangeMin="0" RangeMax="12">
          0 11 12 1 11 0
          2 1 0 4 3 2
          3 1 2 6 5 4
          5 3 4 8 7 6
          7 5 6 10 9 8
          9 7 8
        </DataArray>
        <DataArray type="Int64" Name="offsets" format="ascii" RangeMin="3" RangeMax="33">
          3 6 9 12 15 18
          21 24 27 30 33
        </DataArray>
        <DataArray type="UInt8" Name="types" format="ascii" RangeMin="5" RangeMax="5">
          5 5 5 5 5 5
          5 5 5 5 5
        </DataArray>
      </Cells>
    </Piece>
  </UnstructuredGrid>
</VTKFile>
