<?xml version="1.0"?>
<VTKFile type="UnstructuredGrid" version="0.1" byte_order="LittleEndian" header_type="UInt32" compressor="vtkZLibDataCompressor">
  <UnstructuredGrid>
    <Piece NumberOfPoints="13" NumberOfCells="11">
      <PointData>
        <DataArray type="Float64" Name="Disp" NumberOfComponents="3" format="ascii" RangeMin="0.010277119872362728" RangeMax="0.052756695865809">
          -0.001845699895479598 -0.015763519286722698 0 0.0011846355179822821 -0.02239243315833152 0
          -0.002256257596079477 -0.022273883035690716 0 0.0010673008168940045 -0.02961094903051285 0
          -0.002650442060055478 -0.02947264421214622 0 0.0008539974515451245 -0.03724589295974701 0
          -0.003010875643942297 -0.037096689218286 0 0.000566482930723137 -0.0450391050908039 0
          -0.0033133704829957636 -0.04488921309239028 0 0.00024114954219135327 -0.052756144718655945 0
          -0.0036021800179409837 -0.05260711072930448 0 0.0011921608368954371 -0.015856346438096608 0
          -0.0014378026894152946 -0.010176046201606155 0
          <InformationKey name="L2_NORM_RANGE" location="vtkDataArray" length="2">
            <Value index="0">
              0.010277119872
            </Value>
            <Value index="1">
              0.052756695866
            </Value>
          </InformationKey>
        </DataArray>
        <DataArray type="Float64" Name="Nodal Stress" NumberOfComponents="6" format="ascii" RangeMin="558.9574969754708" RangeMax="17963.650681581737">
          -14879.000590096426 -439.1800661295354 0 957.1346972151457 0 0
          12215.614538151824 1515.4241077983545 0 -3436.88849596779 0 0
          -11283.991382955719 -118.5079285679447 0 431.43883303737897 0 0
          8042.356760110783 1349.7882061815683 0 -2957.4044732707534 0 0
          -7400.576908462825 161.89736797959273 0 -35.283428669386765 0 0
          4280.8183606821685 1070.5352751679704 0 -2199.5455832406547 0 0
          -4000.287375101875 275.97272614022074 0 -344.2174972898711 0 0
          1680.955904824873 612.5019759514726 0 -1213.9668196714065 0 0
          -1756.9642514898708 126.7322317617248 0 -242.37271965060864 0 0
          604.6572177601183 286.5081663527977 0 -684.3388888869863 0 0
          -558.9173607286378 -5.512810046042418 0 -3.8047636737886066 0 0
          16176.707039413684 1555.346227344664 0 -3592.178787671978 0 0
          -17893.86944296519 -762.6144311530187 0 1385.8576396606245 0 0
          <InformationKey name="L2_NORM_RANGE" location="vtkDataArray" length="2">
            <Value index="0">
              558.95749698
            </Value>
            <Value index="1">
              17963.650682
            </Value>
          </InformationKey>
        </DataArray>
        <DataArray type="Float64" Name="Nodal Strain" NumberOfComponents="6" format="ascii" RangeMin="0" RangeMax="0">
          0 0 0 0 0 0
          0 0 0 0 0 0
          0 0 0 0 0 0
          0 0 0 0 0 0
          0 0 0 0 0 0
          0 0 0 0 0 0
          0 0 0 0 0 0
          0 0 0 0 0 0
          0 0 0 0 0 0
          0 0 0 0 0 0
          0 0 0 0 0 0
          0 0 0 0 0 0
          0 0 0 0 0 0
          <InformationKey name="L2_NORM_RANGE" location="vtkDataArray" length="2">
            <Value index="0">
              0
            </Value>
            <Value index="1">
              0
            </Value>
          </InformationKey>
        </DataArray>
        <DataArray type="Float64" Name="Sld_traction" NumberOfComponents="3" format="ascii" RangeMin="72.12237883632798" RangeMax="6269.521665395724">
          -2785.1335846231527 2094.1778871193374 0 -4955.686320384487 2772.2417231626664 0
          -1857.4944113455708 1398.452276528334 0 -4187.179680411423 2205.3671193478867 0
          -980.0149004496665 721.8446660286347 0 -3031.3218325885655 1553.4258829327623 0
          -212.61637799470384 243.84788519278973 0 -1682.9643141343204 859.5693160052796 0
          -76.32374839252203 131.38842081514912 0 -318.65869607956967 121.82688810815456 0
          56.24547124112692 45.145149173243134 0 -5398.736935865844 3187.5604167112265 0
          -3640.7120786323335 2717.882598892008 0
          <InformationKey name="L2_NORM_RANGE" location="vtkDataArray" length="2">
            <Value index="0">
              72.122378836
            </Value>
            <Value index="1">
              6269.5216654
            </Value>
          </InformationKey>
        </DataArray>
        <DataArray type="Float64" Name="Velocity" NumberOfComponents="3" format="ascii" RangeMin="4.649919236853523" RangeMax="15.2416679930708">
          -0.7155758712257527 -6.4384971317243584 0 0.07333262443705763 -8.332742459537585 0
          -0.8312955478662936 -8.268877843859348 0 -0.07465968611889368 -10.119650977174167 0
          -0.9515860606046509 -10.051762860259895 0 -0.22556567894244217 -11.848354580004518 0
          -1.078607999302751 -11.779134406993613 0 -0.3700832941763713 -13.540670383595877 0
          -1.2151928915897798 -13.471648959570512 0 -0.5052244824175914 -15.233292205999488 0
          -1.3533341795500218 -15.164931098543024 0 0.20286341531201896 -6.494611236911737 0
          -0.6013105509342996 -4.610875679368892 0
          <InformationKey name="L2_NORM_RANGE" location="vtkDataArray" length="2">
            <Value index="0">
              4.6499192369
            </Value>
            <Value index="1">
              15.241667993
            </Value>
          </InformationKey>
        </DataArray>
        <DataArray type="Float64" Name="Acceleration" NumberOfComponents="3" format="ascii" RangeMin="116.72462831402659" RangeMax="1047.0639700139423">
          -79.06120888578221 -288.2452493745129 0 -175.8719922617863 -153.2602592864821 0
          -78.72123250527888 -143.115459995832 0 -208.15822653821476 85.74486504178151 0
          -73.40458663085607 90.75464460070793 0 -224.00640577461314 384.7869242982921 0
          -67.22314808589593 386.22078336936954 0 -226.7614445311005 708.9919011570273 0
          -66.85586532994137 709.6538811769506 0 -224.19431116258846 1022.7804594064605 0
          -69.38056773910085 1023.6498625345857 0 -127.99079570350486 -303.1891666898332 0
          -72.99194882242564 -332.6116056311455 0
          <InformationKey name="L2_NORM_RANGE" location="vtkDataArray" length="2">
            <Value index="0">
              116.72462831
            </Value>
            <Value index="1">
              1047.06397
            </Value>
          </InformationKey>
        </DataArray>
        <DataArray type="Float64" Name="Sigma" NumberOfComponents="6" format="ascii" RangeMin="434.02176339233773" RangeMax="36555.63193851307">
          -20906.476947139447 20906.476947136453 0 5525.177400397416 0 0
          17171.81951991059 -17171.819519908655 0 -7651.104372647586 0 0
          -15540.127015550526 15540.127015551174 0 4126.078819947194 0 0
          11312.351380411686 -11312.351380412327 0 -6163.724882443137 0 0
          -9876.77925969593 9876.779259694697 0 2548.3232750134357 0 0
          5901.917972000349 -5901.917971997604 0 -4188.4879320112395 0 0
          -5026.921253981456 5026.921253982439 0 874.6334497806974 0 0
          2332.9137928727805 -2332.9137928742734 0 -1940.561690898341 0 0
          -2093.7908930113654 2093.7908930119565 0 332.8526609478714 0 0
          752.6097121162964 -752.6097121179182 0 -1150.3428799428166 0 0
          117.1860397677078 -117.18603976165517 0 401.13558214989524 0 0
          22661.98462867837 -22661.984628677823 0 -8444.49151020282 0 0
          -25444.668185778664 25444.668185779923 0 6438.318744456405 0 0
          <InformationKey name="L2_NORM_RANGE" location="vtkDataArray" length="2">
            <Value index="0">
              434.02176339
            </Value>
            <Value index="1">
              36555.631939
            </Value>
          </InformationKey>
        </DataArray>
        <DataArray type="Float64" Name="Press" format="ascii" RangeMin="-28523.52419651056" RangeMax="26411.873362951384">
          -23354.871232206173 20507.42528638625 -17229.323404584473 13995.905283100506 -10763.559236379537 7807.817973872185
          -5257.312299879315 3292.554207746608 -2244.6466483484746 1201.1572578076195 -42.68547550702129 26411.873362951384
          -28523.52419651056
        </DataArray>
        <DataArray type="Float64" Name="Dev strain" NumberOfComponents="6" format="ascii" RangeMin="0" RangeMax="0">
          0 0 0 0 0 0
          0 0 0 0 0 0
          0 0 0 0 0 0
          0 0 0 0 0 0
          0 0 0 0 0 0
          0 0 0 0 0 0
          0 0 0 0 0 0
          0 0 0 0 0 0
          0 0 0 0 0 0
          0 0 0 0 0 0
          0 0 0 0 0 0
          0 0 0 0 0 0
          0 0 0 0 0 0
          <InformationKey name="L2_NORM_RANGE" location="vtkDataArray" length="2">
            <Value index="0">
              0
            </Value>
            <Value index="1">
              0
            </Value>
          </InformationKey>
        </DataArray>
        <DataArray type="Float64" Name="J2 Stresses" format="ascii" RangeMin="53960.006732413356" RangeMax="657794126.1482135">
          444712674.6676761 309506235.1546358 245751679.26655757 137467169.8605216 99174256.42324132 39218493.53735546
          25461183.211604252 6383931.684025103 4411658.027133588 897243.5641317784 53960.006732413356 531392906.5269142
          657794126.1482135
        </DataArray>
      </PointData>
      <CellData>
        <DataArray type="UInt8" Name="vtkGhostType" format="ascii" RangeMin="0" RangeMax="1">
          1 1 0 0 0 0
          0 0 0 0 0
        </DataArray>
        <DataArray type="Float64" Name="Gauss Stress" NumberOfComponents="6" format="ascii" RangeMin="783.8105690860357" RangeMax="16437.840952652143">
          -16385.227523335034 -592.4538538422665 0 1173.0015448836675 0 0
          14163.918206193666 1545.7000718938139 0 -3523.472827484331 0 0
          -13117.184597727928 -267.3283025418084 0 666.7172825656755 0 0
          -9367.177417566094 35.85917899001379 0 170.2257375058316 0 0
          10072.683683224683 1443.3210933774922 0 -3229.5834783811774 0 0
          -5738.2787013545685 262.90965976428834 0 -255.17706907236868 0 0
          6125.884704436421 1234.2246426259735 0 -2601.29651314698 0 0
          -2999.0676982004074 192.79787121298028 0 -244.3585267232574 0 0
          3016.99013087705 878.38312361668 0 -1751.472057709628 0 0
          -770.0566690584124 45.9400916948356 0 -138.7848789483499 0 0
          1080.2658097278215 419.1107350751727 0 -919.3506366310954 0 0
          <InformationKey name="L2_NORM_RANGE" location="vtkDataArray" length="2">
            <Value index="0">
              783.81056909
            </Value>
            <Value index="1">
              16437.840953
            </Value>
          </InformationKey>
        </DataArray>
        <DataArray type="Float64" Name="Gauss Strain" NumberOfComponents="6" format="ascii" RangeMin="0" RangeMax="0">
          0 0 0 0 0 0
          0 0 0 0 0 0
          0 0 0 0 0 0
          0 0 0 0 0 0
          0 0 0 0 0 0
          0 0 0 0 0 0
          0 0 0 0 0 0
          0 0 0 0 0 0
          0 0 0 0 0 0
          0 0 0 0 0 0
          0 0 0 0 0 0
          <InformationKey name="L2_NORM_RANGE" location="vtkDataArray" length="2">
            <Value index="0">
              0
            </Value>
            <Value index="1">
              0
            </Value>
          </InformationKey>
        </DataArray>
      </CellData>
      <Points>
        <DataArray type="Float32" Name="Points" NumberOfComponents="3" format="ascii" RangeMin="0.4000000059604645" RangeMax="1.0012492197622458">
          0.5 0 0 0.6000000238418579 0.05000000074505806 0
          0.6000000238418579 0 0 0.699999988079071 0.05000000074505806 0
          0.699999988079071 0 0 0.800000011920929 0.05000000074505806 0
          0.800000011920929 0 0 0.8999999761581421 0.05000000074505806 0
          0.8999999761581421 0 0 1 0.05000000074505806 0
          1 0 0 0.5 0.05000000074505806 0
          0.4000000059604645 0 0
          <InformationKey name="L2_NORM_RANGE" location="vtkDataArray" length="2">
            <Value index="0">
              0.40000000596
            </Value>
            <Value index="1">
              1.0012492198
            </Value>
          </InformationKey>
        </DataArray>
      </Points>
      <Cells>
        <DataArray type="Int64" Name="connectivity" format="ascii" RangeMin="0" RangeMax="12">
          0 11 12 1 11 0
          2 1 0 4 3 2
          3 1 2 6 5 4
          5 3 4 8 7 6
          7 5 6 10 9 8
          9 7 8
        </DataArray>
        <DataArray type="Int64" Name="offsets" format="ascii" RangeMin="3" RangeMax="33">
          3 6 9 12 15 18
          21 24 27 30 33
        </DataArray>
        <DataArray type="UInt8" Name="types" format="ascii" RangeMin="5" RangeMax="5">
          5 5 5 5 5 5
          5 5 5 5 5
        </DataArray>
      </Cells>
    </Piece>
  </UnstructuredGrid>
</VTKFile>
