<?xml version="1.0"?>
<VTKFile type="UnstructuredGrid" version="0.1" byte_order="LittleEndian" header_type="UInt32" compressor="vtkZLibDataCompressor">
  <UnstructuredGrid>
    <Piece NumberOfPoints="13" NumberOfCells="11">
      <PointData>
        <DataArray type="Float64" Name="Disp" NumberOfComponents="3" format="ascii" RangeMin="0.03948731485375626" RangeMax="0.18160291869469494">
          -0.009827460534091614 -0.058488268875640896 0 -0.0012868871467994008 -0.08195365221499859 0
          -0.012845586371669323 -0.08060532927943678 0 -0.003859336361014919 -0.10595431370434583 0
          -0.01607783894549418 -0.10444207232678583 0 -0.00683600747876799 -0.13088770154210544 0
          -0.019384277059376287 -0.12929115765372198 0 -0.010050296134180745 -0.15612105877697063 0
          -0.022609757301985462 -0.15452185761828546 0 -0.013301277455232725 -0.18111514596104572 0
          -0.02576729547648828 -0.17953200080223133 0 0.0007047537469644842 -0.05960303682889355 0
          -0.007144535320152571 -0.038835597709044885 0
          <InformationKey name="L2_NORM_RANGE" location="vtkDataArray" length="2">
            <Value index="0">
              0.039487314854
            </Value>
            <Value index="1">
              0.18160291869
            </Value>
          </InformationKey>
        </DataArray>
        <DataArray type="Float64" Name="Nodal Stress" NumberOfComponents="6" format="ascii" RangeMin="1219.116713192033" RangeMax="66729.81396738112">
          -52042.062582125654 -3312.2408063705566 0 10149.2656656506 0 0
          33283.932968575056 9293.096799916171 0 -16015.568836445274 0 0
          -38116.05241765665 -1830.1133719559507 0 7336.53833616541 0 0
          19867.58546579032 7767.94363454467 0 -11960.806664552692 0 0
          -24398.994052897266 -325.0672354930149 0 4233.320205940887 0 0
          8956.363998258956 5625.079861117235 0 -7629.732914305585 0 0
          -12812.105035436221 574.7990102732492 0 1582.7702486200797 0 0
          2476.0182472531073 3025.369079322983 0 -3718.0047333411103 0 0
          -5635.188733372616 344.74471525643355 0 336.0484595487324 0 0
          -1.4053260824627698 1515.0530173763873 0 -1903.7017282417419 0 0
          1012.9965526770264 110.30282789802966 0 669.2658894686803 0 0
          47793.73662050066 9937.009730445141 0 -19090.820014904784 0 0
          -65509.28939164759 -4600.162554284706 0 11842.27934127624 0 0
          <InformationKey name="L2_NORM_RANGE" location="vtkDataArray" length="2">
            <Value index="0">
              1219.1167132
            </Value>
            <Value index="1">
              66729.813967
            </Value>
          </InformationKey>
        </DataArray>
        <DataArray type="Float64" Name="Nodal Strain" NumberOfComponents="6" format="ascii" RangeMin="0" RangeMax="0">
          0 0 0 0 0 0
          0 0 0 0 0 0
          0 0 0 0 0 0
          0 0 0 0 0 0
          0 0 0 0 0 0
          0 0 0 0 0 0
          0 0 0 0 0 0
          0 0 0 0 0 0
          0 0 0 0 0 0
          0 0 0 0 0 0
          0 0 0 0 0 0
          0 0 0 0 0 0
          0 0 0 0 0 0
          <InformationKey name="L2_NORM_RANGE" location="vtkDataArray" length="2">
            <Value index="0">
              0
            </Value>
            <Value index="1">
              0
            </Value>
          </InformationKey>
        </DataArray>
        <DataArray type="Float64" Name="Sld_traction" NumberOfComponents="3" format="ascii" RangeMin="208.86169645944182" RangeMax="20434.886958806324">
          -6793.254262641281 8051.756400460974 0 -13953.17597176862 11146.495147665944 0
          -4365.58291555333 5324.072208466901 0 -11510.971884853247 8815.560646461268 0
          -2402.345107009088 2768.0216432644183 0 -8317.035510545646 6097.05619718098 0
          -679.615988839575 980.8769420707591 0 -4658.571988958691 3362.6732604227414 0
          -420.80974595628487 495.3831571402997 0 -1195.998238093716 609.0096317936134 0
          207.41307486120817 24.556559704788885 0 -15841.760506946563 12908.26204644688 0
          -9453.963681640877 10684.705952139328 0
          <InformationKey name="L2_NORM_RANGE" location="vtkDataArray" length="2">
            <Value index="0">
              208.86169646
            </Value>
            <Value index="1">
              20434.886959
            </Value>
          </InformationKey>
        </DataArray>
        <DataArray type="Float64" Name="Velocity" NumberOfComponents="3" format="ascii" RangeMin="0.4924595079734586" RangeMax="5.459552664029649">
          0.023020921431505137 -1.5602862776125548 0 -0.17038199078740313 -0.7359069266683775 0
          0.3218209915274546 -0.8510815633846605 0 0.03625058310392815 0.4911234694230018 0
          0.7216006882178885 0.31773647888768863 0 0.3750689718803879 2.025254946280427 0
          1.1757024470335526 1.8156109342977942 0 0.8041482783939315 3.6831001942129973 0
          1.6186786806855515 3.4691574017732023 0 1.2479201384132086 5.274547414409398 0
          2.0348653117554107 5.066166050804867 0 -0.22495733349843244 -1.5104478141381499 0
          -0.15730389439308246 -1.7581920364650827 0
          <InformationKey name="L2_NORM_RANGE" location="vtkDataArray" length="2">
            <Value index="0">
              0.49245950797
            </Value>
            <Value index="1">
              5.459552664
            </Value>
          </InformationKey>
        </DataArray>
        <DataArray type="Float64" Name="Acceleration" NumberOfComponents="3" format="ascii" RangeMin="95.085804990052" RangeMax="2769.8693008168225">
          56.85382350582404 -288.9218274133964 0 -35.1731757015898 88.3411456891481 0
          182.60124680400622 39.60423578986956 0 49.9786116728701 621.8662617693772 0
          347.9640054919182 551.4186554494227 0 185.08577512925604 1287.882288487148 0
          534.2011623828257 1203.3074584068818 0 357.4089688947515 2012.2368326134747 0
          714.1335955549584 1925.566430325649 0 538.3314436455257 2710.068826182658 0
          883.1763740655479 2625.2953045133618 0 -66.4564787722395 -263.97333225631155 0
          -22.08176161739084 -426.28749084633455 0
          <InformationKey name="L2_NORM_RANGE" location="vtkDataArray" length="2">
            <Value index="0">
              95.08580499
            </Value>
            <Value index="1">
              2769.8693008
            </Value>
          </InformationKey>
        </DataArray>
        <DataArray type="Float64" Name="Sigma" NumberOfComponents="6" format="ascii" RangeMin="3924.9894435915357" RangeMax="126213.99814604627">
          -64184.112773524685 64184.11277352093 0 38459.48064419656 0 0
          44968.1945839107 -44968.19458391425 0 -41165.10632899291 0 0
          -45013.513527434785 45013.51352744063 0 28932.13510940611 0 0
          26685.2682562115 -26685.268256213018 0 -29757.036904474026 0 0
          -27197.182285441475 27197.1822854404 0 18169.175057658962 0 0
          11669.346645416605 -11669.34664541663 0 -17802.751846588744 0 0
          -13108.768600165211 13108.768600164574 0 8100.789986398993 0 0
          3829.5347008978847 -3829.5347009037223 0 -7458.208782458573 0 0
          -5497.301617192823 5497.301617193729 0 2760.817107174609 0 0
          -729.1951087564031 729.1951087492615 0 -3787.095340633357 0 0
          4015.942087754652 -4015.9420877494485 0 1851.670895666734 0 0
          65185.269436903705 -65185.269436901355 0 -49743.14338958274 0 0
          -83500.70443144938 83500.70443145336 0 44556.01022211221 0 0
          <InformationKey name="L2_NORM_RANGE" location="vtkDataArray" length="2">
            <Value index="0">
              3924.9894436
            </Value>
            <Value index="1">
              126213.99815
            </Value>
          </InformationKey>
        </DataArray>
        <DataArray type="Float64" Name="Press" format="ascii" RangeMin="-102902.9026265979" RangeMax="89383.09366055905">
          -80753.40603931295 66354.61809243893 -57411.79532391993 43394.757805175446 -34556.29459397523 22647.58426563204
          -15896.682454764441 9012.239852737688 -6843.346265277958 1767.4802908498043 3661.2323677880904 89383.09366055905
          -102902.9026265979
        </DataArray>
        <DataArray type="Float64" Name="Dev strain" NumberOfComponents="6" format="ascii" RangeMin="0" RangeMax="0">
          0 0 0 0 0 0
          0 0 0 0 0 0
          0 0 0 0 0 0
          0 0 0 0 0 0
          0 0 0 0 0 0
          0 0 0 0 0 0
          0 0 0 0 0 0
          0 0 0 0 0 0
          0 0 0 0 0 0
          0 0 0 0 0 0
          0 0 0 0 0 0
          0 0 0 0 0 0
          0 0 0 0 0 0
          <InformationKey name="L2_NORM_RANGE" location="vtkDataArray" length="2">
            <Value index="0">
              0
            </Value>
            <Value index="1">
              0
            </Value>
          </InformationKey>
        </DataArray>
        <DataArray type="Float64" Name="J2 Stresses" format="ascii" RangeMin="4117248.286390775" RangeMax="7468677152.276844">
          4489383245.379625 2445780018.905938 2235483510.5820503 933473853.2395668 822216454.8364666 215408144.45870078
          188245513.8136046 28571555.586088955 32125852.845212795 4117248.286390775 16984962.12864311 4867714430.130726
          7468677152.276844
        </DataArray>
      </PointData>
      <CellData>
        <DataArray type="UInt8" Name="vtkGhostType" format="ascii" RangeMin="0" RangeMax="1">
          1 1 0 0 0 0
          0 0 0 0 0
        </DataArray>
        <DataArray type="Float64" Name="Gauss Stress" NumberOfComponents="6" format="ascii" RangeMin="1267.4012407627722" RangeMax="60087.23103896976">
          -58924.254257807406 -3924.555745759624 0 11090.782492242017 0 0
          40317.88565365826 9671.65148879679 0 -17482.92302479303 0 0
          -45346.67166261425 -2527.050517915549 0 8742.169808203256 0 0
          -31366.253223128155 -1015.9681853505649 0 5781.424420863684 0 0
          26325.843295460647 8565.877087002606 0 -13996.66937468695 0 0
          -18813.999007765902 277.07048569357084 0 2822.4043991564045 0 0
          14214.493364339625 6776.204953547671 0 -9796.871231134604 0 0
          -9501.441461254952 349.5822163832893 0 1134.4661037050093 0 0
          6051.084803251526 4457.6763058165025 0 -5720.056880882776 0 0
          -1208.3960816115437 265.3070105178256 0 275.1308874026623 0 0
          513.1372844193984 2111.1119677829342 0 -2828.1623386391075 0 0
          <InformationKey name="L2_NORM_RANGE" location="vtkDataArray" length="2">
            <Value index="0">
              1267.4012408
            </Value>
            <Value index="1">
              60087.231039
            </Value>
          </InformationKey>
        </DataArray>
        <DataArray type="Float64" Name="Gauss Strain" NumberOfComponents="6" format="ascii" RangeMin="0" RangeMax="0">
          0 0 0 0 0 0
          0 0 0 0 0 0
          0 0 0 0 0 0
          0 0 0 0 0 0
          0 0 0 0 0 0
          0 0 0 0 0 0
          0 0 0 0 0 0
          0 0 0 0 0 0
          0 0 0 0 0 0
          0 0 0 0 0 0
          0 0 0 0 0 0
          <InformationKey name="L2_NORM_RANGE" location="vtkDataArray" length="2">
            <Value index="0">
              0
            </Value>
            <Value index="1">
              0
            </Value>
          </InformationKey>
        </DataArray>
      </CellData>
      <Points>
        <DataArray type="Float32" Name="Points" NumberOfComponents="3" format="ascii" RangeMin="0.4000000059604645" RangeMax="1.0012492197622458">
          0.5 0 0 0.6000000238418579 0.05000000074505806 0
          0.6000000238418579 0 0 0.699999988079071 0.05000000074505806 0
          0.699999988079071 0 0 0.800000011920929 0.05000000074505806 0
          0.800000011920929 0 0 0.8999999761581421 0.05000000074505806 0
          0.8999999761581421 0 0 1 0.05000000074505806 0
          1 0 0 0.5 0.05000000074505806 0
          0.4000000059604645 0 0
          <InformationKey name="L2_NORM_RANGE" location="vtkDataArray" length="2">
            <Value index="0">
              0.40000000596
            </Value>
            <Value index="1">
              1.0012492198
            </Value>
          </InformationKey>
        </DataArray>
      </Points>
      <Cells>
        <DataArray type="Int64" Name="connectivity" format="ascii" RangeMin="0" RangeMax="12">
          0 11 12 1 11 0
          2 1 0 4 3 2
          3 1 2 6 5 4
          5 3 4 8 7 6
          7 5 6 10 9 8
          9 7 8
        </DataArray>
        <DataArray type="Int64" Name="offsets" format="ascii" RangeMin="3" RangeMax="33">
          3 6 9 12 15 18
          21 24 27 30 33
        </DataArray>
        <DataArray type="UInt8" Name="types" format="ascii" RangeMin="5" RangeMax="5">
          5 5 5 5 5 5
          5 5 5 5 5
        </DataArray>
      </Cells>
    </Piece>
  </UnstructuredGrid>
</VTKFile>
