<?xml version="1.0"?>
<VTKFile type="UnstructuredGrid" version="0.1" byte_order="LittleEndian" header_type="UInt32" compressor="vtkZLibDataCompressor">
  <UnstructuredGrid>
    <Piece NumberOfPoints="13" NumberOfCells="11">
      <PointData>
        <DataArray type="Float64" Name="Disp" NumberOfComponents="3" format="ascii" RangeMin="0.039710239216845994" RangeMax="0.17012868174321372">
          -0.009316956748600287 -0.05791064361547373 0 -0.0011706444495948544 -0.07978039517496453 0
          -0.011875220901621655 -0.07862316750057036 0 -0.0033877789542758824 -0.10180112435706216 0
          -0.01453505392473736 -0.10054320093456025 0 -0.005866527529608456 -0.12440700406013087 0
          -0.017211587317380418 -0.12310360849780355 0 -0.008484212328216282 -0.14716867470217532 0
          -0.019823551962457827 -0.14586732335235758 0 -0.011120261393410623 -0.1697648613177236 0
          -0.022397734379027267 -0.16847386170802825 0 0.0006315892609603588 -0.05890768707038577 0
          -0.006955432152279357 -0.03909635612476145 0
          <InformationKey name="L2_NORM_RANGE" location="vtkDataArray" length="2">
            <Value index="0">
              0.039710239217
            </Value>
            <Value index="1">
              0.17012868174
            </Value>
          </InformationKey>
        </DataArray>
        <DataArray type="Float64" Name="Nodal Stress" NumberOfComponents="6" format="ascii" RangeMin="678.9034685962802" RangeMax="55617.35058125551">
          -40596.67351583199 -1813.959809028223 0 6867.861963336473 0 0
          25498.930247408545 7326.548981060532 0 -12611.854591564019 0 0
          -27597.681530159098 -773.0377409530543 0 4448.861632244715 0 0
          14677.028349881379 5584.26190858209 0 -8811.061227715532 0 0
          -16366.625582916706 100.63160749555844 0 2243.421128451215 0 0
          6654.797501761288 3721.8102954059927 0 -5332.758603807457 0 0
          -7950.406092882993 498.2166921326509 0 644.7000658816074 0 0
          2053.3788264281757 1870.773702501396 0 -2499.1820280344405 0 0
          -3255.786912729853 238.38915500698752 0 50.63172223556353 0 0
          232.17304534523734 872.3533234111295 0 -1223.1195568730016 0 0
          554.0533690635975 67.17662977048495 0 386.5515286659937 0 0
          38668.938138549885 8618.13175565488 0 -16195.17076174124 0 0
          -54838.14239930542 -2980.3308998691346 0 8785.525118003416 0 0
          <InformationKey name="L2_NORM_RANGE" location="vtkDataArray" length="2">
            <Value index="0">
              678.9034686
            </Value>
            <Value index="1">
              55617.350581
            </Value>
          </InformationKey>
        </DataArray>
        <DataArray type="Float64" Name="Nodal Strain" NumberOfComponents="6" format="ascii" RangeMin="0" RangeMax="0">
          0 0 0 0 0 0
          0 0 0 0 0 0
          0 0 0 0 0 0
          0 0 0 0 0 0
          0 0 0 0 0 0
          0 0 0 0 0 0
          0 0 0 0 0 0
          0 0 0 0 0 0
          0 0 0 0 0 0
          0 0 0 0 0 0
          0 0 0 0 0 0
          0 0 0 0 0 0
          0 0 0 0 0 0
          <InformationKey name="L2_NORM_RANGE" location="vtkDataArray" length="2">
            <Value index="0">
              0
            </Value>
            <Value index="1">
              0
            </Value>
          </InformationKey>
        </DataArray>
        <DataArray type="Float64" Name="Sld_traction" NumberOfComponents="3" format="ascii" RangeMin="134.8487135285704" RangeMax="18527.76064636854">
          -5209.642703365601 5903.763780472132 0 -12002.881624051595 8952.444051550574 0
          -3177.5285704110834 3668.3911381318653 0 -9038.58556402127 6522.182001648288 0
          -1644.439721770634 1813.539478956866 0 -5969.0732035803485 4157.640227507306 0
          -439.83395092641223 626.2728517679578 0 -3091.962651233613 2126.0696112540963 0
          -250.1913789869804 310.7698261929964 0 -742.9404573935518 368.99162843890036 0
          130.8641059638899 32.53861260997839 0 -14763.11860070897 11195.009770005727 0
          -7634.1078751447685 8398.171953761099 0
          <InformationKey name="L2_NORM_RANGE" location="vtkDataArray" length="2">
            <Value index="0">
              134.84871353
            </Value>
            <Value index="1">
              18527.760646
            </Value>
          </InformationKey>
        </DataArray>
        <DataArray type="Float64" Name="Velocity" NumberOfComponents="3" format="ascii" RangeMin="0.438212801791738" RangeMax="9.519608887653948">
          -0.2620543639072235 1.1076922696495153 0 0.12476069858378558 -0.4200776448980008 0
          -0.7079312683757815 -0.2393650355613559 0 -0.19857266564458964 -2.3634638054615564 0
          -1.2465207499591076 -2.125516663043193 0 -0.6580917112074944 -4.62998565300547 0
          -1.8240446736819758 -4.36043310374977 0 -1.2030841159753143 -7.016042023629808 0
          -2.3798704064038327 -6.744166189760975 0 -1.7637545926022695 -9.33019352169741 0
          -2.910934430935445 -9.063631397662562 0 0.27052221709910357 1.0015607485957787 0
          0.0540501100214561 1.7818616986292142 0
          <InformationKey name="L2_NORM_RANGE" location="vtkDataArray" length="2">
            <Value index="0">
              0.43821280179
            </Value>
            <Value index="1">
              9.5196088877
            </Value>
          </InformationKey>
        </DataArray>
        <DataArray type="Float64" Name="Acceleration" NumberOfComponents="3" format="ascii" RangeMin="124.30834224749276" RangeMax="1679.2197414593688">
          108.37273026933235 380.0982880418014 0 -6.830765909464617 695.0501046460413 0
          136.27646926358102 682.9091515211476 0 4.108338583551813 966.5669377933227 0
          133.8697584119418 967.5943244813243 0 -6.85129086310144 1207.9783293810324 0
          110.1393925806351 1218.3691843360575 0 -33.59663808523237 1434.4080957104015 0
          80.80887584178708 1446.376244990388 0 -58.93627725765782 1667.479673421214 0
          57.82762039955014 1678.2237355090037 0 -33.53506103008911 402.30862930715375 0
          57.13021542203478 110.4024566671942 0
          <InformationKey name="L2_NORM_RANGE" location="vtkDataArray" length="2">
            <Value index="0">
              124.30834225
            </Value>
            <Value index="1">
              1679.2197415
            </Value>
          </InformationKey>
        </DataArray>
        <DataArray type="Float64" Name="Sigma" NumberOfComponents="6" format="ascii" RangeMin="2328.412766747881" RangeMax="105307.95133765812">
          -50470.192588078615 50470.192588073456 0 28375.107945078686 0 0
          34034.60872152694 -34034.60872152853 0 -30945.244871826166 0 0
          -33102.53875686099 33102.53875686277 0 19554.221758421514 0 0
          19297.620746765075 -19297.62074676402 0 -20777.074629083003 0 0
          -18758.954124674543 18758.95412468273 0 11299.060803873339 0 0
          8328.774499117884 -8328.77449912142 0 -11728.466589456013 0 0
          -8470.126377421235 8470.126377421597 0 4637.5581686417945 0 0
          2757.647929813586 -2757.6479298071827 0 -4692.731775869412 0 0
          -3295.610643087378 3295.6106430877076 0 1460.584160537002 0 0
          -246.19794892374358 246.1979489264346 0 -2302.233513839263 0 0
          2257.7810352960114 -2257.7810353028453 0 1193.927733983118 0 0
          52304.16257615515 -52304.162576150855 0 -40491.86375178295 0 0
          -70014.60766106787 70014.60766106799 0 35856.29711874925 0 0
          <InformationKey name="L2_NORM_RANGE" location="vtkDataArray" length="2">
            <Value index="0">
              2328.4127667
            </Value>
            <Value index="1">
              105307.95134
            </Value>
          </InformationKey>
        </DataArray>
        <DataArray type="Float64" Name="Press" format="ascii" RangeMin="-85173.07250660902" RangeMax="72185.2205418908">
          -62224.070484418015 50038.190784710765 -41131.22244005436 30757.1401120293 -23115.626068593217 15300.272320057113
          -9981.959902013954 5854.749976965469 -4028.813481872632 1138.9668685180875 2066.1533055140167 72185.2205418908
          -85173.07250660902
        </DataArray>
        <DataArray type="Float64" Name="Dev strain" NumberOfComponents="6" format="ascii" RangeMin="0" RangeMax="0">
          0 0 0 0 0 0
          0 0 0 0 0 0
          0 0 0 0 0 0
          0 0 0 0 0 0
          0 0 0 0 0 0
          0 0 0 0 0 0
          0 0 0 0 0 0
          0 0 0 0 0 0
          0 0 0 0 0 0
          0 0 0 0 0 0
          0 0 0 0 0 0
          0 0 0 0 0 0
          0 0 0 0 0 0
          <InformationKey name="L2_NORM_RANGE" location="vtkDataArray" length="2">
            <Value index="0">
              0
            </Value>
            <Value index="1">
              0
            </Value>
          </InformationKey>
        </DataArray>
        <DataArray type="Float64" Name="J2 Stresses" format="ascii" RangeMin="1385683.2181160906" RangeMax="5223463796.70028">
          2748527027.6012025 1397756635.8718123 1191369969.2939239 480319874.0215786 383815553.6142042 103757716.79218233
          77119777.29137412 13110054.984851118 11394376.03333478 1385683.2181160906 5453941.061851274 3145623180.3158827
          5223463796.70028
        </DataArray>
      </PointData>
      <CellData>
        <DataArray type="UInt8" Name="vtkGhostType" format="ascii" RangeMin="0" RangeMax="1">
          1 1 0 0 0 0
          0 0 0 0 0
        </DataArray>
        <DataArray type="Float64" Name="Gauss Stress" NumberOfComponents="6" format="ascii" RangeMin="728.6589600889882" RangeMax="48504.78909423678">
          -47797.5200407092 -2343.761592048549 0 7913.180437348328 0 0
          31955.973183929018 8043.587377525874 0 -14354.000226176811 0 0
          -34285.07492105808 -1259.659838784638 0 5661.361610558014 0 0
          -22017.86017712958 -308.61208727893336 0 3358.735977737284 0 0
          19964.599722705578 6478.1392484186445 0 -10722.699247495888 0 0
          -12232.539884509315 367.6641174776155 0 1402.7174610197071 0 0
          10603.075828233874 4691.448414096829 0 -7068.82680488856 0 0
          -5721.370832538714 284.021894593668 0 468.47018443646175 0 0
          4596.45281550629 2852.255447833874 0 -3927.880065561211 0 0
          -702.5736215185448 153.44474962358942 0 117.42612689361903 0 0
          726.914233804463 1249.6880086059612 0 -1844.7937097238912 0 0
          <InformationKey name="L2_NORM_RANGE" location="vtkDataArray" length="2">
            <Value index="0">
              728.65896009
            </Value>
            <Value index="1">
              48504.789094
            </Value>
          </InformationKey>
        </DataArray>
        <DataArray type="Float64" Name="Gauss Strain" NumberOfComponents="6" format="ascii" RangeMin="0" RangeMax="0">
          0 0 0 0 0 0
          0 0 0 0 0 0
          0 0 0 0 0 0
          0 0 0 0 0 0
          0 0 0 0 0 0
          0 0 0 0 0 0
          0 0 0 0 0 0
          0 0 0 0 0 0
          0 0 0 0 0 0
          0 0 0 0 0 0
          0 0 0 0 0 0
          <InformationKey name="L2_NORM_RANGE" location="vtkDataArray" length="2">
            <Value index="0">
              0
            </Value>
            <Value index="1">
              0
            </Value>
          </InformationKey>
        </DataArray>
      </CellData>
      <Points>
        <DataArray type="Float32" Name="Points" NumberOfComponents="3" format="ascii" RangeMin="0.4000000059604645" RangeMax="1.0012492197622458">
          0.5 0 0 0.6000000238418579 0.05000000074505806 0
          0.6000000238418579 0 0 0.699999988079071 0.05000000074505806 0
          0.699999988079071 0 0 0.800000011920929 0.05000000074505806 0
          0.800000011920929 0 0 0.8999999761581421 0.05000000074505806 0
          0.8999999761581421 0 0 1 0.05000000074505806 0
          1 0 0 0.5 0.05000000074505806 0
          0.4000000059604645 0 0
          <InformationKey name="L2_NORM_RANGE" location="vtkDataArray" length="2">
            <Value index="0">
              0.40000000596
            </Value>
            <Value index="1">
              1.0012492198
            </Value>
          </InformationKey>
        </DataArray>
      </Points>
      <Cells>
        <DataArray type="Int64" Name="connectivity" format="ascii" RangeMin="0" RangeMax="12">
          0 11 12 1 11 0
          2 1 0 4 3 2
          3 1 2 6 5 4
          5 3 4 8 7 6
          7 5 6 10 9 8
          9 7 8
        </DataArray>
        <DataArray type="Int64" Name="offsets" format="ascii" RangeMin="3" RangeMax="33">
          3 6 9 12 15 18
          21 24 27 30 33
        </DataArray>
        <DataArray type="UInt8" Name="types" format="ascii" RangeMin="5" RangeMax="5">
          5 5 5 5 5 5
          5 5 5 5 5
        </DataArray>
      </Cells>
    </Piece>
  </UnstructuredGrid>
</VTKFile>
