<?xml version="1.0"?>
<VTKFile type="UnstructuredGrid" version="0.1" byte_order="LittleEndian" header_type="UInt32" compressor="vtkZLibDataCompressor">
  <UnstructuredGrid>
    <Piece NumberOfPoints="13" NumberOfCells="11">
      <PointData>
        <DataArray type="Float64" Name="Disp" NumberOfComponents="3" format="ascii" RangeMin="0.039703286815138364" RangeMax="0.18337175965969257">
          0.0008944074151737261 0.059582411700239674 0 -0.012756561241077992 0.08070309706815443 0
          -0.001086318514252844 0.08208965150417903 0 -0.016093389172757773 0.10481864394269073 0
          -0.003699853982689066 0.10638510696203404 0 -0.019521451062497135 0.13004377142928467 0
          -0.006761817417580942 0.13170475374842455 0 -0.02290870095756366 0.15570295974731171 0
          -0.010104310803760341 0.1573730636121058 0 -0.026159186855300907 0.18123305552104732 0
          -0.01344021163376214 0.1828785469975408 0 -0.009666136901198991 0.058451143562282856 0
          0.0021273117227193555 0.039646254914676625 0
          <InformationKey name="L2_NORM_RANGE" location="vtkDataArray" length="2">
            <Value index="0">
              0.039703286815
            </Value>
            <Value index="1">
              0.18337175966
            </Value>
          </InformationKey>
        </DataArray>
        <DataArray type="Float64" Name="Nodal Stress" NumberOfComponents="6" format="ascii" RangeMin="2549.7162600689835" RangeMax="43120.116527344275">
          31370.601602214236 1466.5254189705245 0 6459.844477630472 0 0
          -24121.231146898583 -995.1527483914297 0 2213.0936113343773 0 0
          21401.22051306476 1298.940449553575 0 5815.236004568546 0 0
          -15642.469172994392 -432.54172247760744 0 2336.773934006719 0 0
          12980.288453561263 975.9741920238511 0 4626.761890443945 0 0
          -8892.897875072105 -192.37549170212088 0 2108.6598276797545 0 0
          6983.189578381768 834.1587489543692 0 3457.5514553930666 0 0
          -4198.9544165171155 -175.4117817346726 0 1111.7956974531837 0 0
          3022.9462422053202 261.16715754602006 0 1470.7705698741968 0 0
          -2521.357099584551 -88.10718824767436 0 368.8475384407936 0 0
          3852.4347881249287 1965.2518613089992 0 2428.77046115386 0 0
          -33901.510443876796 -1824.5865435995684 0 2003.2552255164082 0 0
          42610.15983270066 1466.9090797586998 0 6447.240193693242 0 0
          <InformationKey name="L2_NORM_RANGE" location="vtkDataArray" length="2">
            <Value index="0">
              2549.7162601
            </Value>
            <Value index="1">
              43120.116527
            </Value>
          </InformationKey>
        </DataArray>
        <DataArray type="Float64" Name="Nodal Strain" NumberOfComponents="6" format="ascii" RangeMin="0" RangeMax="0">
          0 0 0 0 0 0
          0 0 0 0 0 0
          0 0 0 0 0 0
          0 0 0 0 0 0
          0 0 0 0 0 0
          0 0 0 0 0 0
          0 0 0 0 0 0
          0 0 0 0 0 0
          0 0 0 0 0 0
          0 0 0 0 0 0
          0 0 0 0 0 0
          0 0 0 0 0 0
          0 0 0 0 0 0
          <InformationKey name="L2_NORM_RANGE" location="vtkDataArray" length="2">
            <Value index="0">
              0
            </Value>
            <Value index="1">
              0
            </Value>
          </InformationKey>
        </DataArray>
        <DataArray type="Float64" Name="Sld_traction" NumberOfComponents="3" format="ascii" RangeMin="233.09328537467178" RangeMax="20096.88985318915">
          8662.15454134577 -1928.7669063094631 0 15577.010139809008 -2907.0574518330623 0
          5490.7312798146795 -1019.5365085086936 0 11374.11216986448 -1835.1725251752482 0
          2599.453341843041 -493.9151425330394 0 7095.190676095769 -1278.6718760875694 0
          312.21039498657143 -329.2105042182237 0 3341.375369065192 -748.1562691704465 0
          -157.38613865099953 -346.5891318985091 0 187.02766098920142 -200.756233249182 0
          -22.912883917485328 -231.96439260658525 0 19591.26804181834 -4479.642651467232 0
          11811.744407760087 -3201.0059328871416 0
          <InformationKey name="L2_NORM_RANGE" location="vtkDataArray" length="2">
            <Value index="0">
              233.09328537
            </Value>
            <Value index="1">
              20096.889853
            </Value>
          </InformationKey>
        </DataArray>
        <DataArray type="Float64" Name="Velocity" NumberOfComponents="3" format="ascii" RangeMin="0.09623271658766783" RangeMax="7.826552385020597">
          0.04528630464206579 0.5289242368180318 0 -0.6474473888890548 1.3694037775738295 0
          -0.08519389690380375 1.5046138233843394 0 -1.0494768058721258 2.634809126638217 0
          -0.3379691620423584 2.8185314343867844 0 -1.502885811526733 4.155872252978895 0
          -0.6982790334785549 4.370813763927195 0 -1.9630451326009677 5.80622217068094 0
          -1.1356667271945988 6.027847725301655 0 -2.3901491861988653 7.449730359801137 0
          -1.5772687487777226 7.665973227816593 0 -0.3341057550066644 0.44837750256943565 0
          0.07128136919162509 -0.06465061599095279 0
          <InformationKey name="L2_NORM_RANGE" location="vtkDataArray" length="2">
            <Value index="0">
              0.096232716588
            </Value>
            <Value index="1">
              7.826552385
            </Value>
          </InformationKey>
        </DataArray>
        <DataArray type="Float64" Name="Acceleration" NumberOfComponents="3" format="ascii" RangeMin="57.95630418864577" RangeMax="1888.9982455637753">
          -24.877187589681057 -92.8590341175368 0 137.67751414544182 -311.50886024022475 0
          -5.183550406457698 -337.95091674073774 0 214.32590580212673 -636.4336591773608 0
          34.475091192738546 -668.4961990705342 0 291.22565288841724 -1022.116990324459 0
          89.889794161586 -1056.538110363661 0 362.5339444369929 -1434.581937526993 0
          157.54023987433993 -1468.7972612675512 0 426.1370580454095 -1840.3047518015665 0
          225.73060696227003 -1873.4057858652086 0 70.39039007349129 -75.04870143078733 0
          -24.96694525839598 52.302818658950855 0
          <InformationKey name="L2_NORM_RANGE" location="vtkDataArray" length="2">
            <Value index="0">
              57.956304189
            </Value>
            <Value index="1">
              1888.9982456
            </Value>
          </InformationKey>
        </DataArray>
        <DataArray type="Float64" Name="Sigma" NumberOfComponents="6" format="ascii" RangeMin="5075.791885747488" RangeMax="84604.36915805645">
          43358.61251281374 -43358.61251281364 0 11041.875995977744 0 0
          -35341.35850116057 35341.35850116433 0 -1864.8125214328265 0 0
          29294.34777922775 -29294.347779225358 0 9417.77985947286 0 0
          -22840.911412479065 22840.91141247577 0 -485.3372138512022 0 0
          17505.79484610593 -17505.794846107627 0 6874.872950849271 0 0
          -12689.617518976984 12689.617518980083 0 194.17636617891625 0 0
          8633.658591353971 -8633.6585913545 0 5409.853063674748 0 0
          -5565.116628223378 5565.116628233996 0 42.55816295842067 0 0
          4071.8301298603697 -4071.830129875371 0 1674.5650705043136 0 0
          -3474.2218751833025 3474.2218751884384 0 -1274.0596498516004 0 0
          1588.3787994762617 -1588.3787994735965 0 4657.288211981365 0 0
          -49689.948220697894 49689.94822069956 0 -2770.977220485765 0 0
          59314.91416643988 -59314.9141664375 0 11017.31344242849 0 0
          <InformationKey name="L2_NORM_RANGE" location="vtkDataArray" length="2">
            <Value index="0">
              5075.7918857
            </Value>
            <Value index="1">
              84604.369158
            </Value>
          </InformationKey>
        </DataArray>
        <DataArray type="Float64" Name="Press" format="ascii" RangeMin="-54777.78384681503" RangeMax="64380.31566623057">
          47713.27394281407 -38716.29688383398 32555.960360806737 -24730.555113031576 19664.105406292787 -14030.097129561702
          10580.249362317685 -6158.407879888703 4108.2890048709205 -4644.107261228308 6085.595777613754 -54777.78384681503
          64380.31566623057
        </DataArray>
        <DataArray type="Float64" Name="Dev strain" NumberOfComponents="6" format="ascii" RangeMin="0" RangeMax="0">
          0 0 0 0 0 0
          0 0 0 0 0 0
          0 0 0 0 0 0
          0 0 0 0 0 0
          0 0 0 0 0 0
          0 0 0 0 0 0
          0 0 0 0 0 0
          0 0 0 0 0 0
          0 0 0 0 0 0
          0 0 0 0 0 0
          0 0 0 0 0 0
          0 0 0 0 0 0
          0 0 0 0 0 0
          <InformationKey name="L2_NORM_RANGE" location="vtkDataArray" length="2">
            <Value index="0">
              0
            </Value>
            <Value index="1">
              0
            </Value>
          </InformationKey>
        </DataArray>
        <DataArray type="Float64" Name="J2 Stresses" format="ascii" RangeMin="7945530.582986562" RangeMax="3548604341.444167">
          1910450035.413962 1249881002.1427107 880332456.1806488 521766122.20542824 318268822.71655834 161035818.89326257
          81856688.2147026 30970975.885096025 17280842.65033808 12476024.635865023 7945530.582986562 2471010532.864834
          3548604341.444167
        </DataArray>
      </PointData>
      <CellData>
        <DataArray type="UInt8" Name="vtkGhostType" format="ascii" RangeMin="0" RangeMax="1">
          1 1 0 0 0 0
          0 0 0 0 0
        </DataArray>
        <DataArray type="Float64" Name="Gauss Stress" NumberOfComponents="6" format="ascii" RangeMin="3278.522978805518" RangeMax="37352.31285931109">
          36766.46140692846 1444.0757678926745 0 6429.404072640157 0 0
          -29151.166998959896 -1369.370859594896 0 2135.3620846863832 0 0
          26288.17973688926 1413.7785429707194 0 6198.281111339258 0 0
          17149.580622307523 1176.7598137369118 0 5269.105198823643 0 0
          -19926.27125682357 -667.6565005480256 0 2355.8767080629436 0 0
          9888.031185843898 921.473906855575 0 4159.634126900978 0 0
          -12373.76030721687 -357.27091698408844 0 2194.5707010589945 0 0
          5223.500860096956 463.252798101343 0 2375.658765712494 0 0
          -6409.777067659703 4.2733029089528145 0 1882.195864270695 0 0
          2578.588191803233 1121.2634890319464 0 1685.9312108780268 0 0
          -3887.2448365974683 -575.572587566342 0 147.68786120371107 0 0
          <InformationKey name="L2_NORM_RANGE" location="vtkDataArray" length="2">
            <Value index="0">
              3278.5229788
            </Value>
            <Value index="1">
              37352.312859
            </Value>
          </InformationKey>
        </DataArray>
        <DataArray type="Float64" Name="Gauss Strain" NumberOfComponents="6" format="ascii" RangeMin="0" RangeMax="0">
          0 0 0 0 0 0
          0 0 0 0 0 0
          0 0 0 0 0 0
          0 0 0 0 0 0
          0 0 0 0 0 0
          0 0 0 0 0 0
          0 0 0 0 0 0
          0 0 0 0 0 0
          0 0 0 0 0 0
          0 0 0 0 0 0
          0 0 0 0 0 0
          <InformationKey name="L2_NORM_RANGE" location="vtkDataArray" length="2">
            <Value index="0">
              0
            </Value>
            <Value index="1">
              0
            </Value>
          </InformationKey>
        </DataArray>
      </CellData>
      <Points>
        <DataArray type="Float32" Name="Points" NumberOfComponents="3" format="ascii" RangeMin="0.4000000059604645" RangeMax="1.0012492197622458">
          0.5 0 0 0.6000000238418579 0.05000000074505806 0
          0.6000000238418579 0 0 0.699999988079071 0.05000000074505806 0
          0.699999988079071 0 0 0.800000011920929 0.05000000074505806 0
          0.800000011920929 0 0 0.8999999761581421 0.05000000074505806 0
          0.8999999761581421 0 0 1 0.05000000074505806 0
          1 0 0 0.5 0.05000000074505806 0
          0.4000000059604645 0 0
          <InformationKey name="L2_NORM_RANGE" location="vtkDataArray" length="2">
            <Value index="0">
              0.40000000596
            </Value>
            <Value index="1">
              1.0012492198
            </Value>
          </InformationKey>
        </DataArray>
      </Points>
      <Cells>
        <DataArray type="Int64" Name="connectivity" format="ascii" RangeMin="0" RangeMax="12">
          0 11 12 1 11 0
          2 1 0 4 3 2
          3 1 2 6 5 4
          5 3 4 8 7 6
          7 5 6 10 9 8
          9 7 8
        </DataArray>
        <DataArray type="Int64" Name="offsets" format="ascii" RangeMin="3" RangeMax="33">
          3 6 9 12 15 18
          21 24 27 30 33
        </DataArray>
        <DataArray type="UInt8" Name="types" format="ascii" RangeMin="5" RangeMax="5">
          5 5 5 5 5 5
          5 5 5 5 5
        </DataArray>
      </Cells>
    </Piece>
  </UnstructuredGrid>
</VTKFile>
