<?xml version="1.0"?>
<VTKFile type="UnstructuredGrid" version="0.1" byte_order="LittleEndian" header_type="UInt32" compressor="vtkZLibDataCompressor">
  <UnstructuredGrid>
    <Piece NumberOfPoints="13" NumberOfCells="11">
      <PointData>
        <DataArray type="Float64" Name="Disp" NumberOfComponents="3" format="ascii" RangeMin="0.04138698961070143" RangeMax="0.19674249510217134">
          0.000747505218990778 0.06254013454521823 0 -0.014092342703415438 0.08508461636786487 0
          -0.0015338837507481214 0.08669158350908697 0 -0.018001170976304832 0.1111010970379798 0
          -0.004584464612200118 0.11294034251759928 0 -0.022058389959829387 0.13845643347674128 0
          -0.00819392397690116 0.14042262879712483 0 -0.026085697798666135 0.1663597071362079 0
          -0.012156806658436641 0.16834171215985227 0 -0.02994577838793634 0.1941293074037102 0
          -0.016114934577580783 0.19608140723329226 0 -0.010527713287757133 0.061251358529212756 0
          0.0021475177868765277 0.041331236085935745 0
          <InformationKey name="L2_NORM_RANGE" location="vtkDataArray" length="2">
            <Value index="0">
              0.041386989611
            </Value>
            <Value index="1">
              0.1967424951
            </Value>
          </InformationKey>
        </DataArray>
        <DataArray type="Float64" Name="Nodal Stress" NumberOfComponents="6" format="ascii" RangeMin="3158.5737667256335" RangeMax="46238.5070093653">
          33881.89489231942 1693.2226255538365 0 7154.513929317426 0 0
          -27385.230966250107 -1094.02886654953 0 1837.5444535236404 0 0
          23178.45420375718 1560.3567894266125 0 6559.1413215135835 0 0
          -18160.370306510118 -434.0342125876327 0 2198.615548890945 0 0
          14010.938199289634 1216.967379508136 0 5294.494218681277 0 0
          -10638.45858369104 -164.72516790144 0 2137.771844897337 0 0
          7511.223648537285 1091.429284676979 0 4043.44149913566 0 0
          -5194.79373085925 -195.44583575915067 0 1124.2110839735255 0 0
          3265.0873131772078 334.37365515701526 0 1733.5864308138641 0 0
          -3140.577499210679 -123.63528038619714 0 313.17012747511683 0 0
          4563.439258389239 2611.0215106664314 0 3076.211775371456 0 0
          -37783.51337866145 -2033.1210937006956 0 1402.759936917413 0 0
          45680.8125799018 1640.0930912658102 0 6969.43234036967 0 0
          <InformationKey name="L2_NORM_RANGE" location="vtkDataArray" length="2">
            <Value index="0">
              3158.5737667
            </Value>
            <Value index="1">
              46238.507009
            </Value>
          </InformationKey>
        </DataArray>
        <DataArray type="Float64" Name="Nodal Strain" NumberOfComponents="6" format="ascii" RangeMin="0" RangeMax="0">
          0 0 0 0 0 0
          0 0 0 0 0 0
          0 0 0 0 0 0
          0 0 0 0 0 0
          0 0 0 0 0 0
          0 0 0 0 0 0
          0 0 0 0 0 0
          0 0 0 0 0 0
          0 0 0 0 0 0
          0 0 0 0 0 0
          0 0 0 0 0 0
          0 0 0 0 0 0
          0 0 0 0 0 0
          <InformationKey name="L2_NORM_RANGE" location="vtkDataArray" length="2">
            <Value index="0">
              0
            </Value>
            <Value index="1">
              0
            </Value>
          </InformationKey>
        </DataArray>
        <DataArray type="Float64" Name="Sld_traction" NumberOfComponents="3" format="ascii" RangeMin="280.06111531234626" RangeMax="22173.620012289586">
          10084.220301345358 -1931.132261955943 0 17628.550866973605 -2922.86463945093 0
          6560.951602460394 -951.8631748198936 0 13117.147741649225 -1802.9204010561944 0
          3189.5694614041786 -431.3980453177145 0 8298.931445273261 -1304.1827981520964 0
          420.36262603251794 -335.6855637565698 0 3938.8344522416746 -802.3263096289505 0
          -190.7615011826719 -400.2741716154439 0 199.6351531984974 -242.47607012868986 0
          -18.46737636434006 -279.451577773705 0 21686.856837890657 -4620.569763811005 0
          13390.052760848354 -3330.6381621460814 0
          <InformationKey name="L2_NORM_RANGE" location="vtkDataArray" length="2">
            <Value index="0">
              280.06111531
            </Value>
            <Value index="1">
              22173.620012
            </Value>
          </InformationKey>
        </DataArray>
        <DataArray type="Float64" Name="Velocity" NumberOfComponents="3" format="ascii" RangeMin="0.04632223360043904" RangeMax="1.220031375288844">
          -0.1158591516334635 0.964092445846962 0 -0.0064722123700207135 0.8355312908415655 0
          -0.12802900265423278 0.804869952906742 0 0.12848263655483194 0.5132830540121134 0
          -0.07799578927155482 0.4558203728527488 0 0.294190461118756 0.043133510882057635 0
          0.03254475771806398 -0.03296343536111124 0 0.46546367125842103 -0.5051591616683737 0
          0.18919364454082643 -0.5858708527448755 0 0.6181656185353095 -1.0518307015627784 0
          0.34972815862707574 -1.1296779146765203 0 -0.09291425179370538 0.9677397301783941 0
          -0.06043289366387028 0.9220681396565276 0
          <InformationKey name="L2_NORM_RANGE" location="vtkDataArray" length="2">
            <Value index="0">
              0.0463222336
            </Value>
            <Value index="1">
              1.2200313753
            </Value>
          </InformationKey>
        </DataArray>
        <DataArray type="Float64" Name="Acceleration" NumberOfComponents="3" format="ascii" RangeMin="87.68917162534117" RangeMax="2275.5303185714924">
          -34.564468518215335 80.58962921115744 0 171.06245018109257 -157.55326004046947 0
          1.6934504049174848 -202.28076278606022 0 313.74954967623853 -548.7693550786498 0
          86.99137766139074 -614.0382113420783 0 480.46115828569236 -1039.6767823510163 0
          216.93814078518335 -1118.7929423757887 0 652.4126615526511 -1582.9623836367973 0
          379.1079631335233 -1665.4441544460424 0 811.6746034664793 -2125.8463182520063 0
          543.4754953717584 -2206.305018060899 0 66.34289926663405 103.35116731058224 0
          -31.374406835993796 221.66110112886236 0
          <InformationKey name="L2_NORM_RANGE" location="vtkDataArray" length="2">
            <Value index="0">
              87.689171625
            </Value>
            <Value index="1">
              2275.5303186
            </Value>
          </InformationKey>
        </DataArray>
        <DataArray type="Float64" Name="Sigma" NumberOfComponents="6" format="ascii" RangeMin="6097.88861161227" RangeMax="91660.94698765152">
          47375.215947369004 -47375.215947365454 0 12961.909313878446 0 0
          -39492.47075408647 39492.47075408424 0 -3377.473900050078 0 0
          32231.622232563364 -32231.622232563353 0 11182.83995553058 0 0
          -25938.85765034366 25938.85765034493 0 -1459.0567982254258 0 0
          19351.856627200494 -19351.856627201 0 8234.337426434986 0 0
          -14687.850599249112 14687.85059926079 0 -379.5884544378967 0 0
          9506.477273864113 -9506.477273870976 0 6581.558280555096 0 0
          -6578.65723445129 6578.657234449995 0 -262.2431152869157 0 0
          4627.15304164539 -4627.153041649451 0 2068.341337305942 0 0
          -4108.041937836203 4108.041937826401 0 -1852.6274298058659 0 0
          1692.862195819976 -1692.862195809521 0 6044.566596992873 0 0
          -54731.06054877517 54731.060548775495 0 -4639.074530212627 0 0
          64180.814968794264 -64180.81496879629 0 12781.830172381025 0 0
          <InformationKey name="L2_NORM_RANGE" location="vtkDataArray" length="2">
            <Value index="0">
              6097.8886116
            </Value>
            <Value index="1">
              91660.946988
            </Value>
          </InformationKey>
        </DataArray>
        <DataArray type="Float64" Name="Press" format="ascii" RangeMin="-60448.093791228996" RangeMax="69841.32636802772">
          52346.13218299298 -43320.91043515797 36065.50981076344 -28059.18401347549 21953.823013694022 -16249.505532666033
          12008.568691596316 -7284.350172005234 4639.74237249319 -5685.464904876702 7697.322035245665 -60448.093791228996
          69841.32636802772
        </DataArray>
        <DataArray type="Float64" Name="Dev strain" NumberOfComponents="6" format="ascii" RangeMin="0" RangeMax="0">
          0 0 0 0 0 0
          0 0 0 0 0 0
          0 0 0 0 0 0
          0 0 0 0 0 0
          0 0 0 0 0 0
          0 0 0 0 0 0
          0 0 0 0 0 0
          0 0 0 0 0 0
          0 0 0 0 0 0
          0 0 0 0 0 0
          0 0 0 0 0 0
          0 0 0 0 0 0
          0 0 0 0 0 0
          <InformationKey name="L2_NORM_RANGE" location="vtkDataArray" length="2">
            <Value index="0">
              0
            </Value>
            <Value index="1">
              0
            </Value>
          </InformationKey>
        </DataArray>
        <DataArray type="Float64" Name="J2 Stresses" format="ascii" RangeMin="11999978.750389233" RangeMax="4160020805.6976337">
          2286413859.3249803 1562507078.7486668 1070141449.1104252 673356547.8899368 391445433.13283044 215768977.07471964
          101202337.50864598 43295923.871268615 22480054.2427291 17734065.661398023 11999978.750389233 3000869241.9179287
          4160020805.6976337
        </DataArray>
      </PointData>
      <CellData>
        <DataArray type="UInt8" Name="vtkGhostType" format="ascii" RangeMin="0" RangeMax="1">
          1 1 0 0 0 0
          0 0 0 0 0
        </DataArray>
        <DataArray type="Float64" Name="Gauss Stress" NumberOfComponents="6" format="ascii" RangeMin="3908.172571596333" RangeMax="40176.08426152347">
          39521.44504239327 1638.131464135155 0 7034.888318682282 0 0
          -32757.062466295545 -1524.8522292999073 0 1648.4536278719129 0 0
          28401.699661481445 1658.7880442512933 0 6922.4251231196495 0 0
          18534.923340134068 1438.5092005208512 0 5986.040194580048 0 0
          -22838.096936578942 -704.9594886680695 0 2115.4364190850247 0 0
          10627.789824813268 1180.800956937706 0 4812.102417517395 0 0
          -14543.239384946595 -360.0049700142598 0 2131.89739125722 0 0
          5639.644657714161 602.9959370046129 0 2795.8855008580404 0 0
          -7761.772524303748 78.2478489216195 0 1979.9089036100943 0 0
          2954.524267497106 1479.875401076528 0 2086.7601681643173 0 0
          -4796.539611676951 -756.8421912539338 0 -15.509735928946839 0 0
          <InformationKey name="L2_NORM_RANGE" location="vtkDataArray" length="2">
            <Value index="0">
              3908.1725716
            </Value>
            <Value index="1">
              40176.084262
            </Value>
          </InformationKey>
        </DataArray>
        <DataArray type="Float64" Name="Gauss Strain" NumberOfComponents="6" format="ascii" RangeMin="0" RangeMax="0">
          0 0 0 0 0 0
          0 0 0 0 0 0
          0 0 0 0 0 0
          0 0 0 0 0 0
          0 0 0 0 0 0
          0 0 0 0 0 0
          0 0 0 0 0 0
          0 0 0 0 0 0
          0 0 0 0 0 0
          0 0 0 0 0 0
          0 0 0 0 0 0
          <InformationKey name="L2_NORM_RANGE" location="vtkDataArray" length="2">
            <Value index="0">
              0
            </Value>
            <Value index="1">
              0
            </Value>
          </InformationKey>
        </DataArray>
      </CellData>
      <Points>
        <DataArray type="Float32" Name="Points" NumberOfComponents="3" format="ascii" RangeMin="0.4000000059604645" RangeMax="1.0012492197622458">
          0.5 0 0 0.6000000238418579 0.05000000074505806 0
          0.6000000238418579 0 0 0.699999988079071 0.05000000074505806 0
          0.699999988079071 0 0 0.800000011920929 0.05000000074505806 0
          0.800000011920929 0 0 0.8999999761581421 0.05000000074505806 0
          0.8999999761581421 0 0 1 0.05000000074505806 0
          1 0 0 0.5 0.05000000074505806 0
          0.4000000059604645 0 0
          <InformationKey name="L2_NORM_RANGE" location="vtkDataArray" length="2">
            <Value index="0">
              0.40000000596
            </Value>
            <Value index="1">
              1.0012492198
            </Value>
          </InformationKey>
        </DataArray>
      </Points>
      <Cells>
        <DataArray type="Int64" Name="connectivity" format="ascii" RangeMin="0" RangeMax="12">
          0 11 12 1 11 0
          2 1 0 4 3 2
          3 1 2 6 5 4
          5 3 4 8 7 6
          7 5 6 10 9 8
          9 7 8
        </DataArray>
        <DataArray type="Int64" Name="offsets" format="ascii" RangeMin="3" RangeMax="33">
          3 6 9 12 15 18
          21 24 27 30 33
        </DataArray>
        <DataArray type="UInt8" Name="types" format="ascii" RangeMin="5" RangeMax="5">
          5 5 5 5 5 5
          5 5 5 5 5
        </DataArray>
      </Cells>
    </Piece>
  </UnstructuredGrid>
</VTKFile>
