<?xml version="1.0"?>
<VTKFile type="UnstructuredGrid" version="0.1" byte_order="LittleEndian" header_type="UInt32" compressor="vtkZLibDataCompressor">
  <UnstructuredGrid>
    <Piece NumberOfPoints="13" NumberOfCells="11">
      <PointData>
        <DataArray type="Float64" Name="Disp" NumberOfComponents="3" format="ascii" RangeMin="0.042535644746648144" RangeMax="0.172970026252835">
          -0.00984781348286915 -0.06120389164499658 0 -0.0016414818664716676 -0.08330856223570737 0
          -0.01238916634836007 -0.08214279080276919 0 -0.003905969357292413 -0.10529016531573629 0
          -0.014997063232324099 -0.10404596509794675 0 -0.00637424087118385 -0.12770367759099538 0
          -0.017606712276158874 -0.12642697649839033 0 -0.008941814936065185 -0.15021250484352613 0
          -0.020161552352135386 -0.14893884826495848 0 -0.011516380880430667 -0.17258621889746378 0
          -0.0226872198060647 -0.17132047750222104 0 0.00027644699516126835 -0.062236145040335956 0
          -0.007457322493547723 -0.04187683626111556 0
          <InformationKey name="L2_NORM_RANGE" location="vtkDataArray" length="2">
            <Value index="0">
              0.042535644747
            </Value>
            <Value index="1">
              0.17297002625
            </Value>
          </InformationKey>
        </DataArray>
        <DataArray type="Float64" Name="Nodal Stress" NumberOfComponents="6" format="ascii" RangeMin="488.054660147025" RangeMax="52918.96151024628">
          -36888.391265457765 -1367.4006485625732 0 6063.996108091534 0 0
          21156.081686303558 6724.719268828993 0 -11221.742031606103 0 0
          -24046.305890266758 -515.547308801281 0 3737.359056576067 0 0
          11575.791802668411 4808.368881758056 0 -7415.266006984237 0 0
          -13770.616849478238 144.11210513722662 0 1816.6819212513658 0 0
          4951.532343931375 3023.3547218229032 0 -4269.094678187996 0 0
          -6519.271612302548 395.8961801101821 0 521.9458523495653 0 0
          1403.6059526917654 1444.5163235220432 0 -1911.3603168631596 0 0
          -2580.35650624025 171.06501969976983 0 55.66207620475045 0 0
          112.4993761805143 650.2095512584319 0 -901.2153245441824 0 0
          383.35118568154644 47.32552567934566 0 298.3278638460614 0 0
          33802.048380394874 8477.850571504008 0 -15311.861267194814 0 0
          -52228.74997801245 -2456.346286957583 0 8157.237643696593 0 0
          <InformationKey name="L2_NORM_RANGE" location="vtkDataArray" length="2">
            <Value index="0">
              488.05466015
            </Value>
            <Value index="1">
              52918.96151
            </Value>
          </InformationKey>
        </DataArray>
        <DataArray type="Float64" Name="Nodal Strain" NumberOfComponents="6" format="ascii" RangeMin="0" RangeMax="0">
          0 0 0 0 0 0
          0 0 0 0 0 0
          0 0 0 0 0 0
          0 0 0 0 0 0
          0 0 0 0 0 0
          0 0 0 0 0 0
          0 0 0 0 0 0
          0 0 0 0 0 0
          0 0 0 0 0 0
          0 0 0 0 0 0
          0 0 0 0 0 0
          0 0 0 0 0 0
          0 0 0 0 0 0
          <InformationKey name="L2_NORM_RANGE" location="vtkDataArray" length="2">
            <Value index="0">
              0
            </Value>
            <Value index="1">
              0
            </Value>
          </InformationKey>
        </DataArray>
        <DataArray type="Float64" Name="Sld_traction" NumberOfComponents="3" format="ascii" RangeMin="104.14174448060399" RangeMax="18065.457099657655">
          -4479.053662562337 5106.385274225726 0 -11116.02156723242 8175.353733509809 0
          -2633.237686950259 3054.622823150872 0 -7891.386594044563 5646.659901023199 0
          -1311.3792826436063 1464.3878315154025 0 -4936.709973529811 3419.596730773783 0
          -341.7754342968874 503.7213828951682 0 -2437.144595833369 1669.113879185509 0
          -189.3870764932576 249.48047774765843 0 -577.8923691795926 295.4591993319751 0
          100.27631633914224 28.109843914822566 0 -14486.572145220205 10793.515076234491 0
          -6793.933537131415 7591.175358394352 0
          <InformationKey name="L2_NORM_RANGE" location="vtkDataArray" length="2">
            <Value index="0">
              104.14174448
            </Value>
            <Value index="1">
              18065.4571
            </Value>
          </InformationKey>
        </DataArray>
        <DataArray type="Float64" Name="Velocity" NumberOfComponents="3" format="ascii" RangeMin="0.37406333760454996" RangeMax="4.702276691251998">
          0.27967224613039576 0.7661760661269525 0 0.11406737189149196 1.4217044865642947 0
          0.4441391186199848 1.3490730658827061 0 0.2506093593530223 2.1508835945156832 0
          0.6343668666868121 2.0634199021399766 0 0.4212411284969453 2.962452954940872 0
          0.8358188567437104 2.86673072494564 0 0.6139750974275593 3.80622901448055 0
          1.0318484314197676 3.709886436077511 0 0.8109744081503898 4.631816769952906 0
          1.2212227553834527 4.53687733255353 0 0.021489081523440007 0.8193834397170647 0
          0.15142319291301432 0.3420444374461944 0
          <InformationKey name="L2_NORM_RANGE" location="vtkDataArray" length="2">
            <Value index="0">
              0.3740633376
            </Value>
            <Value index="1">
              4.7022766913
            </Value>
          </InformationKey>
        </DataArray>
        <DataArray type="Float64" Name="Acceleration" NumberOfComponents="3" format="ascii" RangeMin="707.3299980432799" RangeMax="1185.9704765784024">
          155.64711140002146 869.8552868897896 0 117.23853948396686 1003.0114753554808 0
          165.4114871389229 994.4227455133223 0 137.525423318526 1074.753301789984 0
          165.78746325050815 1071.6663826738368 0 144.78851443962867 1114.6775692276424 0
          161.1801459310118 1115.1061468250555 0 142.98391827461273 1141.6247296871443 0
          157.84759122116157 1142.550743475731 0 139.40125882809843 1175.0758799527248 0
          157.05914768774164 1175.5247319572663 0 82.5988550960019 884.307057749902 0
          135.45500910360533 694.2389117880448 0
          <InformationKey name="L2_NORM_RANGE" location="vtkDataArray" length="2">
            <Value index="0">
              707.32999804
            </Value>
            <Value index="1">
              1185.9704766
            </Value>
          </InformationKey>
        </DataArray>
        <DataArray type="Float64" Name="Sigma" NumberOfComponents="6" format="ascii" RangeMin="1712.316089482156" RangeMax="98284.85088580559">
          -44852.314605936 44852.31460593692 0 25409.524669049984 0 0
          28488.70847116814 -28488.708471169215 0 -27223.87185785623 0 0
          -28166.477972682056 28166.47797267276 0 16577.608602441087 0 0
          15458.82998344713 -15458.829983443738 0 -17303.13416846197 0 0
          -15387.556213124648 15387.556213125097 0 9143.61877790083 0 0
          6387.0900173977625 -6387.090017401654 0 -9314.807956489845 0 0
          -6732.171827319008 6732.171827321304 0 3630.133350123541 0 0
          2011.1726201747974 -2011.1726201902643 0 -3569.5152193606973 0 0
          -2512.9462038229694 2512.9462038289766 0 1110.7035597265522 0 0
          -208.15773509107316 208.15773507919315 0 -1686.821598435329 0 0
          1696.577629469213 -1696.5776294462942 0 884.714747046511 0 0
          45971.51092699318 -45971.510926998184 0 -37797.57548142919 0 0
          -65190.62296231058 65190.622962311056 0 34062.842940904164 0 0
          <InformationKey name="L2_NORM_RANGE" location="vtkDataArray" length="2">
            <Value index="0">
              1712.3160895
            </Value>
            <Value index="1">
              98284.850886
            </Value>
          </InformationKey>
        </DataArray>
        <DataArray type="Float64" Name="Press" format="ascii" RangeMin="-79441.60255918726" RangeMax="65021.73014742329">
          -55245.56836244612 42844.25112948075 -34910.7853173037 25156.593137417312 -18876.95341070989 11979.534947164862
          -7918.583935229314 4382.727334750522 -3083.3270398566256 818.008020068179 1563.336221245124 65021.73014742329
          -79441.60255918726
        </DataArray>
        <DataArray type="Float64" Name="Dev strain" NumberOfComponents="6" format="ascii" RangeMin="0" RangeMax="0">
          0 0 0 0 0 0
          0 0 0 0 0 0
          0 0 0 0 0 0
          0 0 0 0 0 0
          0 0 0 0 0 0
          0 0 0 0 0 0
          0 0 0 0 0 0
          0 0 0 0 0 0
          0 0 0 0 0 0
          0 0 0 0 0 0
          0 0 0 0 0 0
          0 0 0 0 0 0
          0 0 0 0 0 0
          <InformationKey name="L2_NORM_RANGE" location="vtkDataArray" length="2">
            <Value index="0">
              0
            </Value>
            <Value index="1">
              0
            </Value>
          </InformationKey>
        </DataArray>
        <DataArray type="Float64" Name="J2 Stresses" format="ascii" RangeMin="754671.4189127518" RangeMax="4539886639.518343">
          2173141111.4866657 996891310.088482 862054758.1292539 313825037.4700206 257678327.30097306 62486330.70693865
          48616604.547483 7230175.033483777 6623314.222720677 754671.4189127518 3074055.698686883 2470543994.9794674
          4539886639.518343
        </DataArray>
      </PointData>
      <CellData>
        <DataArray type="UInt8" Name="vtkGhostType" format="ascii" RangeMin="0" RangeMax="1">
          1 1 0 0 0 0
          0 0 0 0 0
        </DataArray>
        <DataArray type="Float64" Name="Gauss Stress" NumberOfComponents="6" format="ascii" RangeMin="594.4278243075054" RangeMax="45199.1141924458">
          -44578.95580515451 -1864.6713776534366 0 7224.93070950832 0 0
          27409.43923556107 7670.836040742475 0 -13203.974223411811 0 0
          -30614.062219239666 -927.3394809428696 0 4921.087137878281 0 0
          -18908.78326431862 -178.64712941405423 0 2806.0310706266505 0 0
          16290.373143842527 5769.666155884723 0 -9316.465807959037 0 0
          -10182.880140606747 305.545208090133 0 1152.981390511509 0 0
          8239.179487197509 3933.603628717329 0 -5824.774449016996 0 0
          -4617.709683767532 204.92059020819966 0 390.4405634964653 0 0
          3369.9230523132073 2259.1958454718183 0 -3084.729941909001 0 0
          -575.5030359960501 107.51450363951767 0 102.86556944591155 0 0
          469.1589987409434 942.4465445599936 0 -1381.8777526898245 0 0
          <InformationKey name="L2_NORM_RANGE" location="vtkDataArray" length="2">
            <Value index="0">
              594.42782431
            </Value>
            <Value index="1">
              45199.114192
            </Value>
          </InformationKey>
        </DataArray>
        <DataArray type="Float64" Name="Gauss Strain" NumberOfComponents="6" format="ascii" RangeMin="0" RangeMax="0">
          0 0 0 0 0 0
          0 0 0 0 0 0
          0 0 0 0 0 0
          0 0 0 0 0 0
          0 0 0 0 0 0
          0 0 0 0 0 0
          0 0 0 0 0 0
          0 0 0 0 0 0
          0 0 0 0 0 0
          0 0 0 0 0 0
          0 0 0 0 0 0
          <InformationKey name="L2_NORM_RANGE" location="vtkDataArray" length="2">
            <Value index="0">
              0
            </Value>
            <Value index="1">
              0
            </Value>
          </InformationKey>
        </DataArray>
      </CellData>
      <Points>
        <DataArray type="Float32" Name="Points" NumberOfComponents="3" format="ascii" RangeMin="0.4000000059604645" RangeMax="1.0012492197622458">
          0.5 0 0 0.6000000238418579 0.05000000074505806 0
          0.6000000238418579 0 0 0.699999988079071 0.05000000074505806 0
          0.699999988079071 0 0 0.800000011920929 0.05000000074505806 0
          0.800000011920929 0 0 0.8999999761581421 0.05000000074505806 0
          0.8999999761581421 0 0 1 0.05000000074505806 0
          1 0 0 0.5 0.05000000074505806 0
          0.4000000059604645 0 0
          <InformationKey name="L2_NORM_RANGE" location="vtkDataArray" length="2">
            <Value index="0">
              0.40000000596
            </Value>
            <Value index="1">
              1.0012492198
            </Value>
          </InformationKey>
        </DataArray>
      </Points>
      <Cells>
        <DataArray type="Int64" Name="connectivity" format="ascii" RangeMin="0" RangeMax="12">
          0 11 12 1 11 0
          2 1 0 4 3 2
          3 1 2 6 5 4
          5 3 4 8 7 6
          7 5 6 10 9 8
          9 7 8
        </DataArray>
        <DataArray type="Int64" Name="offsets" format="ascii" RangeMin="3" RangeMax="33">
          3 6 9 12 15 18
          21 24 27 30 33
        </DataArray>
        <DataArray type="UInt8" Name="types" format="ascii" RangeMin="5" RangeMax="5">
          5 5 5 5 5 5
          5 5 5 5 5
        </DataArray>
      </Cells>
    </Piece>
  </UnstructuredGrid>
</VTKFile>
