<?xml version="1.0"?>
<VTKFile type="UnstructuredGrid" version="0.1" byte_order="LittleEndian" header_type="UInt32" compressor="vtkZLibDataCompressor">
  <UnstructuredGrid>
    <Piece NumberOfPoints="13" NumberOfCells="11">
      <PointData>
        <DataArray type="Float64" Name="Disp" NumberOfComponents="3" format="ascii" RangeMin="0.03213246356870835" RangeMax="0.13647789565065171">
          -0.00680990286800051 -0.04681450588886024 0 0.0000713233364661793 -0.0641643179047036 0
          -0.008507936451039361 -0.06342522521993686 0 -0.0013095394377439055 -0.08180662806025092 0
          -0.010248212764346277 -0.08100251343061442 0 -0.00287869330692637 -0.09993353680421087 0
          -0.011980923707751792 -0.09909935547056381 0 -0.004553990217011361 -0.11819796964463418 0
          -0.01365456048904321 -0.11736430876200035 0 -0.006251787509421642 -0.1363346293286017 0
          -0.015302276068923294 -0.1355068761854234 0 0.001164486319685253 -0.04745178040342307 0
          -0.005209929510623665 -0.03170728385542827 0
          <InformationKey name="L2_NORM_RANGE" location="vtkDataArray" length="2">
            <Value index="0">
              0.032132463569
            </Value>
            <Value index="1">
              0.13647789565
            </Value>
          </InformationKey>
        </DataArray>
        <DataArray type="Float64" Name="Nodal Stress" NumberOfComponents="6" format="ascii" RangeMin="256.8490959440049" RangeMax="42704.99204078823">
          -31280.409389097887 -978.3245032380762 0 4076.2717722345506 0 0
          19799.26644759767 4822.988595588852 0 -8920.45959929332 0 0
          -21355.210024458742 -322.05264021898824 0 2536.4978052214333 0 0
          11478.784104994877 3679.567028474446 0 -6320.808765051263 0 0
          -12811.019467913722 210.75761127806356 0 1177.2184333463304 0 0
          5264.073900457847 2485.4188533452025 0 -3916.7187504464073 0 0
          -6369.231451359825 419.77142799679933 0 219.77292967474148 0 0
          1663.4264242737231 1262.6379906317723 0 -1876.797094135971 0 0
          -2627.7107615725326 184.50378573655155 0 -54.70538378871469 0 0
          311.50458821918073 587.4945250408989 0 -949.5248559808455 0 0
          18.99897192590788 50.127732236599755 0 251.19257077753502 0 0
          29892.27938846438 5750.803587900677 0 -11407.229981163371 0 0
          -42331.40158250315 -1769.5211321574511 0 5351.409181466508 0 0
          <InformationKey name="L2_NORM_RANGE" location="vtkDataArray" length="2">
            <Value index="0">
              256.84909594
            </Value>
            <Value index="1">
              42704.992041
            </Value>
          </InformationKey>
        </DataArray>
        <DataArray type="Float64" Name="Nodal Strain" NumberOfComponents="6" format="ascii" RangeMin="0" RangeMax="0">
          0 0 0 0 0 0
          0 0 0 0 0 0
          0 0 0 0 0 0
          0 0 0 0 0 0
          0 0 0 0 0 0
          0 0 0 0 0 0
          0 0 0 0 0 0
          0 0 0 0 0 0
          0 0 0 0 0 0
          0 0 0 0 0 0
          0 0 0 0 0 0
          0 0 0 0 0 0
          0 0 0 0 0 0
          <InformationKey name="L2_NORM_RANGE" location="vtkDataArray" length="2">
            <Value index="0">
              0
            </Value>
            <Value index="1">
              0
            </Value>
          </InformationKey>
        </DataArray>
        <DataArray type="Float64" Name="Sld_traction" NumberOfComponents="3" format="ascii" RangeMin="102.28233845591178" RangeMax="14522.192083718955">
          -4240.15985347695 4309.399030067453 0 -9553.36233613523 6508.267111121421 0
          -2583.3489802315376 2670.372858968088 0 -7132.237061966635 4691.974546733181 0
          -1309.1298210740401 1315.0548727979249 0 -4684.78034574929 2984.1416420793576 0
          -322.60914812052545 450.24263082078403 0 -2418.915895288106 1524.1742492600338 0
          -166.8521718923473 227.83078541829164 0 -544.0294828147304 253.08414493297656 0
          94.82985890890187 38.327204689716865 0 -11925.735919082455 8286.789831094791 0
          -6203.374228755897 6160.497502320862 0
          <InformationKey name="L2_NORM_RANGE" location="vtkDataArray" length="2">
            <Value index="0">
              102.28233846
            </Value>
            <Value index="1">
              14522.192084
            </Value>
          </InformationKey>
        </DataArray>
        <DataArray type="Float64" Name="Velocity" NumberOfComponents="3" format="ascii" RangeMin="3.3954598052341356" RangeMax="10.112999925313177">
          0.8371980573141391 4.568545091707936 0 0.4488975429495981 5.856922377724494 0
          1.0230209019449772 5.756242515344972 0 0.667900758534052 6.9674227648585045 0
          1.2055037766194845 6.869031157663088 0 0.8754834850101476 8.01089198889909 0
          1.3869909741759452 7.915496240345341 0 1.0690226873473145 9.019442566535204 0
          1.5742470981759435 8.925169247851656 0 1.2539199158383418 10.034961501373502 0
          1.7638459813485454 9.94074092527724 0 0.22964306973760706 4.667416567423697 0
          0.6515168994128695 3.3323674795466474 0
          <InformationKey name="L2_NORM_RANGE" location="vtkDataArray" length="2">
            <Value index="0">
              3.3954598052
            </Value>
            <Value index="1">
              10.112999925
            </Value>
          </InformationKey>
        </DataArray>
        <DataArray type="Float64" Name="Acceleration" NumberOfComponents="3" format="ascii" RangeMin="247.04954734647015" RangeMax="1281.816730934042">
          32.97873056293065 383.7432722868907 0 -33.3220981306406 551.4089446618163 0
          50.939847085151996 542.9179954376305 0 -15.804770892123997 728.0381495990441 0
          73.86829425633368 716.8230462067149 0 7.3191277411469855 911.8404363298032 0
          99.57463316579742 899.1518905171979 0 33.42254440506258 1097.4638174421852 0
          125.55987856956563 1084.6617274308228 0 59.39176924039384 1280.440060857567 0
          150.66367478463144 1267.9173140295024 0 -42.50433655800185 388.56013311109564 0
          21.009667584355157 246.15457077229075 0
          <InformationKey name="L2_NORM_RANGE" location="vtkDataArray" length="2">
            <Value index="0">
              247.04954735
            </Value>
            <Value index="1">
              1281.8167309
            </Value>
          </InformationKey>
        </DataArray>
        <DataArray type="Float64" Name="Sigma" NumberOfComponents="6" format="ascii" RangeMin="1775.461265766492" RangeMax="81249.5360417559">
          -39794.031662656525 39794.03166265189 0 18426.904870578568 0 0
          27411.546527151033 -27411.54652715086 0 -21169.984929338712 0 0
          -26324.861205615274 26324.861205621353 0 12646.06731068355 0 0
          15850.191376728566 -15850.191376730016 0 -14375.673171413806 0 0
          -15127.515091656374 15127.515091647552 0 7316.175377344794 0 0
          7102.644924020488 -7102.644924014166 0 -8294.238878171065 0 0
          -6992.316001673601 6992.316001677127 0 2952.7619363551726 0 0
          2426.393051614115 -2426.3930516269284 0 -3382.9421113969292 0 0
          -2717.998943023137 2717.9989430264964 0 962.3546153136634 0 0
          165.15225666981038 -165.15225666579713 0 -1760.0318663229418 0 0
          1245.2945828656966 -1245.2945828699328 0 901.2237670597091 0 0
          41541.739421077604 -41541.739421078215 0 -27657.065324206156 0 0
          -54983.834708391514 54983.83470839536 0 23559.349492732774 0 0
          <InformationKey name="L2_NORM_RANGE" location="vtkDataArray" length="2">
            <Value index="0">
              1775.4612658
            </Value>
            <Value index="1">
              81249.536042
            </Value>
          </InformationKey>
        </DataArray>
        <DataArray type="Float64" Name="Press" format="ascii" RangeMin="-64688.80114225795" RangeMax="54542.740790599106">
          -47101.364086666974 37718.18420928683 -31219.21263328241 23226.81463334823 -17725.727394966238 11650.887354425575
          -7842.695046858121 4475.674365384639 -3176.5076879863163 1090.4837532318877 1112.138671539997 54542.740790599106
          -64688.80114225795
        </DataArray>
        <DataArray type="Float64" Name="Dev strain" NumberOfComponents="6" format="ascii" RangeMin="0" RangeMax="0">
          0 0 0 0 0 0
          0 0 0 0 0 0
          0 0 0 0 0 0
          0 0 0 0 0 0
          0 0 0 0 0 0
          0 0 0 0 0 0
          0 0 0 0 0 0
          0 0 0 0 0 0
          0 0 0 0 0 0
          0 0 0 0 0 0
          0 0 0 0 0 0
          0 0 0 0 0 0
          0 0 0 0 0 0
          <InformationKey name="L2_NORM_RANGE" location="vtkDataArray" length="2">
            <Value index="0">
              0
            </Value>
            <Value index="1">
              0
            </Value>
          </InformationKey>
        </DataArray>
        <DataArray type="Float64" Name="J2 Stresses" format="ascii" RangeMin="801703.3105005226" RangeMax="3161982816.3701124">
          1668452661.7456632 863434948.4872681 732979072.1016529 302893561.4617703 242223318.3861745 67646164.5587102
          51072183.83048235 8748457.573218029 7619049.8556878995 801703.3105005226 1753809.6676982483 1916944429.7155902
          3161982816.3701124
        </DataArray>
      </PointData>
      <CellData>
        <DataArray type="UInt8" Name="vtkGhostType" format="ascii" RangeMin="0" RangeMax="1">
          1 1 0 0 0 0
          0 0 0 0 0
        </DataArray>
        <DataArray type="Float64" Name="Gauss Stress" NumberOfComponents="6" format="ascii" RangeMin="769.3440134636065" RangeMax="37160.36014271841">
          -36827.850462765426 -1337.0991627855951 0 4776.396346368397 0 0
          24772.93839959703 5333.43554254726 0 -10133.381794322102 0 0
          -26436.579617261108 -631.6820565133892 0 3300.9957506411356 0 0
          -17106.770105147836 -38.64682478717691 0 1862.189838871514 0 0
          15554.22096920566 4262.969837031042 0 -7633.196930022991 0 0
          -9644.907085569423 366.55036063724333 0 658.2328118429673 0 0
          8325.765267300083 3108.8844612369785 0 -5117.912224080026 0 0
          -4609.15008751414 246.79784120563204 0 177.3914800906358 0 0
          3606.8628823043664 1915.714899662709 0 -2908.139684404274 0 0
          -760.4791222340205 111.22228009211159 0 34.515505350143656 0 0
          754.398931963666 838.701355121327 0 -1393.539787468736 0 0
          <InformationKey name="L2_NORM_RANGE" location="vtkDataArray" length="2">
            <Value index="0">
              769.34401346
            </Value>
            <Value index="1">
              37160.360143
            </Value>
          </InformationKey>
        </DataArray>
        <DataArray type="Float64" Name="Gauss Strain" NumberOfComponents="6" format="ascii" RangeMin="0" RangeMax="0">
          0 0 0 0 0 0
          0 0 0 0 0 0
          0 0 0 0 0 0
          0 0 0 0 0 0
          0 0 0 0 0 0
          0 0 0 0 0 0
          0 0 0 0 0 0
          0 0 0 0 0 0
          0 0 0 0 0 0
          0 0 0 0 0 0
          0 0 0 0 0 0
          <InformationKey name="L2_NORM_RANGE" location="vtkDataArray" length="2">
            <Value index="0">
              0
            </Value>
            <Value index="1">
              0
            </Value>
          </InformationKey>
        </DataArray>
      </CellData>
      <Points>
        <DataArray type="Float32" Name="Points" NumberOfComponents="3" format="ascii" RangeMin="0.4000000059604645" RangeMax="1.0012492197622458">
          0.5 0 0 0.6000000238418579 0.05000000074505806 0
          0.6000000238418579 0 0 0.699999988079071 0.05000000074505806 0
          0.699999988079071 0 0 0.800000011920929 0.05000000074505806 0
          0.800000011920929 0 0 0.8999999761581421 0.05000000074505806 0
          0.8999999761581421 0 0 1 0.05000000074505806 0
          1 0 0 0.5 0.05000000074505806 0
          0.4000000059604645 0 0
          <InformationKey name="L2_NORM_RANGE" location="vtkDataArray" length="2">
            <Value index="0">
              0.40000000596
            </Value>
            <Value index="1">
              1.0012492198
            </Value>
          </InformationKey>
        </DataArray>
      </Points>
      <Cells>
        <DataArray type="Int64" Name="connectivity" format="ascii" RangeMin="0" RangeMax="12">
          0 11 12 1 11 0
          2 1 0 4 3 2
          3 1 2 6 5 4
          5 3 4 8 7 6
          7 5 6 10 9 8
          9 7 8
        </DataArray>
        <DataArray type="Int64" Name="offsets" format="ascii" RangeMin="3" RangeMax="33">
          3 6 9 12 15 18
          21 24 27 30 33
        </DataArray>
        <DataArray type="UInt8" Name="types" format="ascii" RangeMin="5" RangeMax="5">
          5 5 5 5 5 5
          5 5 5 5 5
        </DataArray>
      </Cells>
    </Piece>
  </UnstructuredGrid>
</VTKFile>
