<?xml version="1.0"?>
<VTKFile type="UnstructuredGrid" version="0.1" byte_order="LittleEndian" header_type="UInt32" compressor="vtkZLibDataCompressor">
  <UnstructuredGrid>
    <Piece NumberOfPoints="13" NumberOfCells="11">
      <PointData>
        <DataArray type="Float64" Name="Disp" NumberOfComponents="3" format="ascii" RangeMin="0.004912085175608397" RangeMax="0.015056155830360858">
          0.0004512497442058685 0.006748062958367971 0 -0.0004598041731998113 0.008549977564935451 0
          0.0004232485308971755 0.008561315223617501 0 -0.0004438045536055841 0.010269883595461701 0
          0.00039076793455026463 0.010279633033155319 0 -0.0004322298833459535 0.011896799352137407 0
          0.00036429668054969744 0.011905097868204182 0 -0.00043319674218561397 0.013469426684348838 0
          0.00035216817152147284 0.013476459069643693 0 -0.00044859489196319896 0.015045724519687675 0
          0.0003420071248384815 0.015052270908891753 0 -0.0004684097526105422 0.00673547389561728 0
          0.000460287167893878 0.0048904720115244505 0
          <InformationKey name="L2_NORM_RANGE" location="vtkDataArray" length="2">
            <Value index="0">
              0.0049120851756
            </Value>
            <Value index="1">
              0.01505615583
            </Value>
          </InformationKey>
        </DataArray>
        <DataArray type="Float64" Name="Nodal Stress" NumberOfComponents="6" format="ascii" RangeMin="78.34919774253642" RangeMax="3348.6144353275395">
          1622.63585174355 -112.16023663364689 0 370.5206839760525 0 0
          1809.3963856235694 -69.63425164835584 0 284.53546924127056 0 0
          634.7421110593316 -62.83342400453242 0 195.44679678415997 0 0
          1883.5274930989403 30.569899529027175 0 -25.60140446986731 0 0
          224.89088887458732 -1.4026296344786229 0 32.6357209089365 0 0
          1458.059701677028 86.23266787549372 0 -185.24936858168783 0 0
          117.94732577402284 38.082144067733395 0 -81.07540093693578 0 0
          818.9762134643859 74.90232624980695 0 -169.03274449705643 0 0
          19.366064360616452 23.815295085797818 0 -72.08594910283077 0 0
          344.3972984626552 28.751979990469163 0 -125.14685804115695 0 0
          -71.66266274613558 -19.424968579599863 0 -36.80494510488998 0 0
          1011.466268305202 -219.51760578308352 0 693.2693447719895 0 0
          3306.938579837963 -127.5992623649033 0 510.97386812554663 0 0
          <InformationKey name="L2_NORM_RANGE" location="vtkDataArray" length="2">
            <Value index="0">
              78.349197743
            </Value>
            <Value index="1">
              3348.6144353
            </Value>
          </InformationKey>
        </DataArray>
        <DataArray type="Float64" Name="Nodal Strain" NumberOfComponents="6" format="ascii" RangeMin="0" RangeMax="0">
          0 0 0 0 0 0
          0 0 0 0 0 0
          0 0 0 0 0 0
          0 0 0 0 0 0
          0 0 0 0 0 0
          0 0 0 0 0 0
          0 0 0 0 0 0
          0 0 0 0 0 0
          0 0 0 0 0 0
          0 0 0 0 0 0
          0 0 0 0 0 0
          0 0 0 0 0 0
          0 0 0 0 0 0
          <InformationKey name="L2_NORM_RANGE" location="vtkDataArray" length="2">
            <Value index="0">
              0
            </Value>
            <Value index="1">
              0
            </Value>
          </InformationKey>
        </DataArray>
        <DataArray type="Float64" Name="Sld_traction" NumberOfComponents="3" format="ascii" RangeMin="13.396658040690433" RangeMax="1017.0815763515833">
          -221.64399021708465 84.50534543125315 0 247.89508763678757 -60.94225223000842 0
          -284.11433632909524 113.41922498802482 0 -205.41109846699607 92.80811163113273 0
          -206.0283796438053 70.87156098134083 0 -362.8188498371455 149.01385502530982 0
          -54.18935410841987 14.878676051958944 0 -282.86296820327243 114.85990496215831 0
          -11.490484044350714 6.887613743940442 0 -39.75208060939582 5.915682747832092 0
          8.720072245113291 10.34841934719461 0 961.4723425977267 -331.70147327598835 0
          35.90853711459785 -47.828297477810615 0
          <InformationKey name="L2_NORM_RANGE" location="vtkDataArray" length="2">
            <Value index="0">
              13.396658041
            </Value>
            <Value index="1">
              1017.0815764
            </Value>
          </InformationKey>
        </DataArray>
        <DataArray type="Float64" Name="Velocity" NumberOfComponents="3" format="ascii" RangeMin="2.890633036168712" RangeMax="18.389921496126668">
          -0.44435675914224726 -4.726697423372885 0 0.734560020341378 -6.995449519161921 0
          -0.5004428526850397 -7.018422967572002 0 0.8523734459634347 -9.630014516592299 0
          -0.5256773566111469 -9.654165113544044 0 0.9401702438270914 -12.489051909955897 0
          -0.5181080755382743 -12.51329957330174 0 0.9965124224638868 -15.441561522532428 0
          -0.4731081286257983 -15.465506485998219 0 1.0291405596740546 -18.361102427200155 0
          -0.42216572269129304 -18.383766521725622 0 0.5944949656419526 -4.706704339437139 0
          -0.36402938866770296 -2.867619562280911 0
          <InformationKey name="L2_NORM_RANGE" location="vtkDataArray" length="2">
            <Value index="0">
              2.8906330362
            </Value>
            <Value index="1">
              18.389921496
            </Value>
          </InformationKey>
        </DataArray>
        <DataArray type="Float64" Name="Acceleration" NumberOfComponents="3" format="ascii" RangeMin="255.17372393747925" RangeMax="581.9805337944816">
          -61.84522759188394 -318.6895315576221 0 -135.32829363257906 -315.61200043160716 0
          -105.13256504148762 -282.0441097819712 0 -229.35090198997023 -231.66489337174426 0
          -172.8011759337619 -187.75884262540058 0 -335.25699824567255 -101.18077288674976 0
          -261.46328418835594 -50.793073321241536 0 -443.0559838693498 54.188529646497045 0
          -364.7255591089478 105.71663649832772 0 -543.1285856695413 209.0757784735324 0
          -467.50822576095936 259.3239311578218 0 -61.90996162262536 -340.4088086808697 0
          -39.798384231866294 -295.31286941888357 0
          <InformationKey name="L2_NORM_RANGE" location="vtkDataArray" length="2">
            <Value index="0">
              255.17372394
            </Value>
            <Value index="1">
              581.98053379
            </Value>
          </InformationKey>
        </DataArray>
        <DataArray type="Float64" Name="Sigma" NumberOfComponents="6" format="ascii" RangeMin="99.84591260615073" RangeMax="4216.44116850859">
          784.7164867597094 -784.7164867595613 0 285.6917294456932 0 0
          1435.7084452894633 -1435.7084452896875 0 258.36573306880524 0 0
          -381.36835373493415 381.36835373592373 0 288.9431038544393 0 0
          1738.170378070285 -1738.1703780707335 0 -197.27374710476852 0 0
          -659.2912112331159 659.29121123373 0 203.87854927164457 0 0
          1333.7571303006737 -1333.7571303004283 0 -367.50949148056276 0 0
          -449.47719641127844 449.4771964113969 0 9.108006318975669 0 0
          707.3759869018638 -707.3759869013726 0 -246.58232604376386 0 0
          -247.06933248854364 247.06933248880435 0 -3.195311179264221 0 0
          279.4490493844435 -279.4490493853289 0 -193.19951781153517 0 0
          -68.42755261550977 68.42755261377388 0 24.587524285619736 0 0
          114.86280949702575 -114.86280949656368 0 912.2552617098294 0 0
          2980.6050233549972 -2980.6050233553497 0 101.80136047173441 0 0
          <InformationKey name="L2_NORM_RANGE" location="vtkDataArray" length="2">
            <Value index="0">
              99.845912606
            </Value>
            <Value index="1">
              4216.4411685
            </Value>
          </InformationKey>
        </DataArray>
        <DataArray type="Float64" Name="Press" format="ascii" RangeMin="-729.1583340880758" RangeMax="3006.104961093025">
          688.9543489425791 1402.2832212918777 -502.84107470984463 1841.8121862235978 -729.1583340880758 1494.8079024725337
          -455.0752929280008 823.1264780143656 -240.25195049314718 320.2761613770455 -131.09973676666047 -189.38428967528282
          3006.104961093025
        </DataArray>
        <DataArray type="Float64" Name="Dev strain" NumberOfComponents="6" format="ascii" RangeMin="0" RangeMax="0">
          0 0 0 0 0 0
          0 0 0 0 0 0
          0 0 0 0 0 0
          0 0 0 0 0 0
          0 0 0 0 0 0
          0 0 0 0 0 0
          0 0 0 0 0 0
          0 0 0 0 0 0
          0 0 0 0 0 0
          0 0 0 0 0 0
          0 0 0 0 0 0
          0 0 0 0 0 0
          0 0 0 0 0 0
          <InformationKey name="L2_NORM_RANGE" location="vtkDataArray" length="2">
            <Value index="0">
              0
            </Value>
            <Value index="1">
              0
            </Value>
          </InformationKey>
        </DataArray>
        <DataArray type="Float64" Name="J2 Stresses" format="ascii" RangeMin="4833.466544453559" RangeMax="8886597.184498567">
          636184.9056608027 2077946.9528818545 166313.85054713057 3030965.4960259665 445056.5169229115 1812673.8892096367
          202050.48903857285 515581.4977243267 61045.80755978201 87423.284622769 4833.466544453559 221245.8806348143
          8886597.184498567
        </DataArray>
      </PointData>
      <CellData>
        <DataArray type="UInt8" Name="vtkGhostType" format="ascii" RangeMin="0" RangeMax="1">
          1 1 0 0 0 0
          0 0 0 0 0
        </DataArray>
        <DataArray type="Float64" Name="Gauss Stress" NumberOfComponents="6" format="ascii" RangeMin="64.40674702291744" RangeMax="2502.898790128398">
          2461.9531133240184 -124.8364330837177 0 433.2494505424189 0 0
          1412.3803407017913 -144.47815366221286 0 485.4375747414425 0 0
          1142.4843579462831 -83.55336092957094 0 277.66685545631265 0 0
          435.7745301759706 -29.232678558467406 0 98.51596867377181 0 0
          1844.5882674768154 -17.085378939622053 0 116.6783632728253 0 0
          178.52099937091214 28.528517600385236 0 -51.507645296647496 0 0
          1673.3660172486332 64.94181915687463 0 -120.30156310456225 0 0
          46.209564198419685 38.98992553068206 0 -80.22321030135079 0 0
          1151.505002783386 90.4010555894982 0 -201.66127040178364 0 0
          -29.04112053412402 -5.009230055170956 0 -57.269101568393204 0 0
          547.6354642320093 54.46499503345552 0 -147.65905167818778 0 0
          <InformationKey name="L2_NORM_RANGE" location="vtkDataArray" length="2">
            <Value index="0">
              64.406747023
            </Value>
            <Value index="1">
              2502.8987901
            </Value>
          </InformationKey>
        </DataArray>
        <DataArray type="Float64" Name="Gauss Strain" NumberOfComponents="6" format="ascii" RangeMin="0" RangeMax="0">
          0 0 0 0 0 0
          0 0 0 0 0 0
          0 0 0 0 0 0
          0 0 0 0 0 0
          0 0 0 0 0 0
          0 0 0 0 0 0
          0 0 0 0 0 0
          0 0 0 0 0 0
          0 0 0 0 0 0
          0 0 0 0 0 0
          0 0 0 0 0 0
          <InformationKey name="L2_NORM_RANGE" location="vtkDataArray" length="2">
            <Value index="0">
              0
            </Value>
            <Value index="1">
              0
            </Value>
          </InformationKey>
        </DataArray>
      </CellData>
      <Points>
        <DataArray type="Float32" Name="Points" NumberOfComponents="3" format="ascii" RangeMin="0.4000000059604645" RangeMax="1.0012492197622458">
          0.5 0 0 0.6000000238418579 0.05000000074505806 0
          0.6000000238418579 0 0 0.699999988079071 0.05000000074505806 0
          0.699999988079071 0 0 0.800000011920929 0.05000000074505806 0
          0.800000011920929 0 0 0.8999999761581421 0.05000000074505806 0
          0.8999999761581421 0 0 1 0.05000000074505806 0
          1 0 0 0.5 0.05000000074505806 0
          0.4000000059604645 0 0
          <InformationKey name="L2_NORM_RANGE" location="vtkDataArray" length="2">
            <Value index="0">
              0.40000000596
            </Value>
            <Value index="1">
              1.0012492198
            </Value>
          </InformationKey>
        </DataArray>
      </Points>
      <Cells>
        <DataArray type="Int64" Name="connectivity" format="ascii" RangeMin="0" RangeMax="12">
          0 11 12 1 11 0
          2 1 0 4 3 2
          3 1 2 6 5 4
          5 3 4 8 7 6
          7 5 6 10 9 8
          9 7 8
        </DataArray>
        <DataArray type="Int64" Name="offsets" format="ascii" RangeMin="3" RangeMax="33">
          3 6 9 12 15 18
          21 24 27 30 33
        </DataArray>
        <DataArray type="UInt8" Name="types" format="ascii" RangeMin="5" RangeMax="5">
          5 5 5 5 5 5
          5 5 5 5 5
        </DataArray>
      </Cells>
    </Piece>
  </UnstructuredGrid>
</VTKFile>
