<?xml version="1.0"?>
<VTKFile type="UnstructuredGrid" version="0.1" byte_order="LittleEndian" header_type="UInt32" compressor="vtkZLibDataCompressor">
  <UnstructuredGrid>
    <Piece NumberOfPoints="13" NumberOfCells="11">
      <PointData>
        <DataArray type="Float64" Name="Disp" NumberOfComponents="3" format="ascii" RangeMin="0" RangeMax="0.058133349889841306">
          0 0 0 0 0 0
          0.0008934436072546203 -0.0017057519668317298 0 -0.0010069296805757279 -0.0016751605589553416 0
          0.0016729713857560986 -0.007644918408046545 0 -0.0021271337266613516 -0.00751500352507516 0
          0.001990358929294573 -0.016874829242184097 0 -0.0032754154574937615 -0.016600196925393336 0
          0.0018782826995704523 -0.02876511934286223 0 -0.004564226439166331 -0.0283536867610703 0
          0.001356422575391045 -0.04270178455392747 0 -0.005971728765838606 -0.04216439409122062 0
          0.00048105083259567265 -0.05813135951886186 0
          <InformationKey name="L2_NORM_RANGE" location="vtkDataArray" length="2">
            <Value index="0">
              0
            </Value>
            <Value index="1">
              0.05813334989
            </Value>
          </InformationKey>
        </DataArray>
        <DataArray type="Float64" Name="Nodal Stress" NumberOfComponents="6" format="ascii" RangeMin="22265.636824093457" RangeMax="103879.65842261109">
          100385.1032960462 -244.7288804887164 0 -26716.18569361174 0 0
          -52866.646903794695 -6639.487046007739 0 287.667142604176 0 0
          72661.45453279403 4795.225740366226 0 -9952.869302513354 0 0
          -66514.43197327317 -2218.624258424076 0 5029.391132090085 0 0
          57894.959536966584 4935.823209620088 0 -13413.072753167116 0 0
          -59300.70529146959 -3036.729124357494 0 5017.45048048782 0 0
          49879.79353637165 5411.069687154907 0 -12677.998323517886 0 0
          -49517.384561542676 -2194.5242865534356 0 5549.18443792302 0 0
          39213.714123860416 5394.666711120658 0 -12031.8932119291 0 0
          -40077.48980121533 -1727.0488095320386 0 4839.076457912747 0 0
          29490.05412335479 5088.721997024323 0 -10438.674625860556 0 0
          -30428.32788215204 -989.253693524044 0 3755.906559558404 0 0
          20110.37439279346 4423.682271866358 0 -8471.272638847075 0 0
          <InformationKey name="L2_NORM_RANGE" location="vtkDataArray" length="2">
            <Value index="0">
              22265.636824
            </Value>
            <Value index="1">
              103879.65842
            </Value>
          </InformationKey>
        </DataArray>
        <DataArray type="Float64" Name="Nodal Strain" NumberOfComponents="6" format="ascii" RangeMin="0" RangeMax="0">
          0 0 0 0 0 0
          0 0 0 0 0 0
          0 0 0 0 0 0
          0 0 0 0 0 0
          0 0 0 0 0 0
          0 0 0 0 0 0
          0 0 0 0 0 0
          0 0 0 0 0 0
          0 0 0 0 0 0
          0 0 0 0 0 0
          0 0 0 0 0 0
          0 0 0 0 0 0
          0 0 0 0 0 0
          <InformationKey name="L2_NORM_RANGE" location="vtkDataArray" length="2">
            <Value index="0">
              0
            </Value>
            <Value index="1">
              0
            </Value>
          </InformationKey>
        </DataArray>
        <DataArray type="Float64" Name="Sld_traction" NumberOfComponents="3" format="ascii" RangeMin="6061.609104683051" RangeMax="47389.583027636596">
          -45413.64281511825 13541.551823706206 0 16123.612394787237 12456.315571842626 0
          -18625.578757843487 12460.599104614763 0 -13137.359459239746 10245.200756573604 0
          -16911.446378831737 10391.632770733344 0 -10564.173008917312 8923.808351940505 0
          -14877.328259254025 9959.197180177161 0 -8294.218902884373 7489.083657678069 0
          -13124.319898499829 8923.501782805995 0 -6184.739657023236 5916.41695869299 0
          -11223.423395569785 7692.035795302936 0 -4328.4314575155395 4243.558183360557 0
          -9260.45867958059 6199.325501992675 0
          <InformationKey name="L2_NORM_RANGE" location="vtkDataArray" length="2">
            <Value index="0">
              6061.6091047
            </Value>
            <Value index="1">
              47389.583028
            </Value>
          </InformationKey>
        </DataArray>
        <DataArray type="Float64" Name="Velocity" NumberOfComponents="3" format="ascii" RangeMin="0" RangeMax="6.310207738230107">
          0 0 0 0 0 0
          -0.12395512926839736 0.253371275093599 0 0.14736350021445066 0.24594906317423537 0
          -0.18913978911331863 1.077529090215796 0 0.3082659841112052 1.0425340618769177 0
          -0.14564626672114445 2.230868233577919 0 0.4715257560181221 2.1657229028687386 0
          -0.01649003826698825 3.5544853383673924 0 0.656850136935851 3.4670867958827145 0
          0.1717254120562779 4.9330908073348425 0 0.8554716729123246 4.831058831583775 0
          0.39295397928793585 6.297960691349296 0
          <InformationKey name="L2_NORM_RANGE" location="vtkDataArray" length="2">
            <Value index="0">
              0
            </Value>
            <Value index="1">
              6.3102077382
            </Value>
          </InformationKey>
        </DataArray>
        <DataArray type="Float64" Name="Acceleration" NumberOfComponents="3" format="ascii" RangeMin="0" RangeMax="360.6825125882587">
          0 0 0 0 0 0
          2.9509349944653422 -11.541594846881253 0 -6.383739502520939 -9.969980775498243 0
          -8.54358484907334 -32.673119759598194 0 -12.669016919201567 -26.696368963901477 0
          -32.39287287878324 -24.203946266799903 0 -15.042747560663884 -17.326660478385747 0
          -58.219900814419134 38.75783522691199 0 -11.62765591106745 42.45922962263285 0
          -75.41362806362974 165.1585641437996 0 1.9520896955291391 163.13341186334583 0
          -78.34009364020949 352.0720162344951 0
          <InformationKey name="L2_NORM_RANGE" location="vtkDataArray" length="2">
            <Value index="0">
              0
            </Value>
            <Value index="1">
              360.68251259
            </Value>
          </InformationKey>
        </DataArray>
        <DataArray type="Float64" Name="Sigma" NumberOfComponents="6" format="ascii" RangeMin="44427.0454974908" RangeMax="149455.64522653865">
          98697.44121021159 -98697.4412102099 0 -53428.64481900106 0 0
          -98308.97335345071 98308.97335345151 0 18079.35278116936 0 0
          102173.75528609933 -102173.75528609967 0 -18086.805917614223 0 0
          -96571.10793128697 96571.10793128678 0 20285.850864476728 0 0
          82815.9133663927 -82815.91336639429 0 -33420.78201181303 0 0
          -80343.57341842336 80343.57341842451 0 24176.29933740042 0 0
          70427.22778379977 -70427.22778380154 0 -30724.45293853468 0 0
          -67141.76587836904 67141.76587836901 0 23725.83635702651 0 0
          55053.87551002364 -55053.875510024445 0 -29649.746023474712 0 0
          -52796.191248199655 52796.19124820066 0 21251.299684800957 0 0
          41174.167248815225 -41174.167248813596 0 -25338.791811990435 0 0
          -39306.52690397488 39306.52690397157 0 17124.523177090072 0 0
          28020.737348294897 -28020.73734829437 0 -20085.789219044644 0 0
          <InformationKey name="L2_NORM_RANGE" location="vtkDataArray" length="2">
            <Value index="0">
              44427.045497
            </Value>
            <Value index="1">
              149455.64523
            </Value>
          </InformationKey>
        </DataArray>
        <DataArray type="Float64" Name="Press" format="ascii" RangeMin="-118167.2790043024" RangeMax="119207.2524704135">
          99620.38768250098 -118167.2790043024 119207.2524704135 -105335.67247527362 94213.40777344537 -91766.20527013633
          84304.54048189778 -77067.11687665414 67810.36833955708 -61620.58227469719 52829.02155564684 -46116.87409971666
          37563.491331686375
        </DataArray>
        <DataArray type="Float64" Name="Dev strain" NumberOfComponents="6" format="ascii" RangeMin="0" RangeMax="0">
          0 0 0 0 0 0
          0 0 0 0 0 0
          0 0 0 0 0 0
          0 0 0 0 0 0
          0 0 0 0 0 0
          0 0 0 0 0 0
          0 0 0 0 0 0
          0 0 0 0 0 0
          0 0 0 0 0 0
          0 0 0 0 0 0
          0 0 0 0 0 0
          0 0 0 0 0 0
          0 0 0 0 0 0
          <InformationKey name="L2_NORM_RANGE" location="vtkDataArray" length="2">
            <Value index="0">
              0
            </Value>
            <Value index="1">
              0
            </Value>
          </InformationKey>
        </DataArray>
        <DataArray type="Float64" Name="J2 Stresses" format="ascii" RangeMin="886021453.6800864" RangeMax="10521259406.339108">
          10454839923.241749 9746369991.056057 10521259406.339108 9428857823.400208 7137712674.280275 6601213152.054574
          5195992415.4044 4648745552.975819 3250706068.487363 2900342244.889832 1855825641.2561893 1618315380.7634447
          886021453.6800864
        </DataArray>
      </PointData>
      <CellData>
        <DataArray type="UInt8" Name="vtkGhostType" format="ascii" RangeMin="0" RangeMax="0">
          0 0 0 0 0 0
          0 0 0 0 0
        </DataArray>
        <DataArray type="Float64" Name="Gauss Stress" NumberOfComponents="6" format="ascii" RangeMin="26891.11356087444" RangeMax="70046.37543946135">
          -65667.34166926694 -3863.1243368413006 0 6759.465909343956 0 0
          67740.8614304908 -633.9539980819845 0 -17812.03265181531 0 0
          -65662.41265176077 -2929.9006628825277 0 3680.45606335471 0 0
          65501.18282993011 6555.475682459365 0 -10407.245688316847 0 0
          -53862.29772596179 -2490.223383966899 0 5725.894251964089 0 0
          53217.10357232533 4617.391751145175 0 -13322.9785376491 0 0
          -45253.80414277977 -1997.749731749666 0 5109.130006117588 0 0
          44462.37645341839 5569.484843114588 0 -12216.120868327627 0 0
          -35278.995240708784 -1326.6279718027918 0 4345.677016633534 0 0
          34150.219710382 5195.652036623116 0 -11245.746050221393 0 0
          24721.33882691728 4795.753698160056 0 -9433.352617981669 0 0
          <InformationKey name="L2_NORM_RANGE" location="vtkDataArray" length="2">
            <Value index="0">
              26891.113561
            </Value>
            <Value index="1">
              70046.375439
            </Value>
          </InformationKey>
        </DataArray>
        <DataArray type="Float64" Name="Gauss Strain" NumberOfComponents="6" format="ascii" RangeMin="0" RangeMax="0">
          0 0 0 0 0 0
          0 0 0 0 0 0
          0 0 0 0 0 0
          0 0 0 0 0 0
          0 0 0 0 0 0
          0 0 0 0 0 0
          0 0 0 0 0 0
          0 0 0 0 0 0
          0 0 0 0 0 0
          0 0 0 0 0 0
          0 0 0 0 0 0
          <InformationKey name="L2_NORM_RANGE" location="vtkDataArray" length="2">
            <Value index="0">
              0
            </Value>
            <Value index="1">
              0
            </Value>
          </InformationKey>
        </DataArray>
      </CellData>
      <Points>
        <DataArray type="Float32" Name="Points" NumberOfComponents="3" format="ascii" RangeMin="0" RangeMax="0.6020797527609908">
          0 0.05000000074505806 0 0 0 0
          0.10000000149011612 0.05000000074505806 0 0.10000000149011612 0 0
          0.20000000298023224 0.05000000074505806 0 0.20000000298023224 0 0
          0.30000001192092896 0.05000000074505806 0 0.30000001192092896 0 0
          0.4000000059604645 0.05000000074505806 0 0.4000000059604645 0 0
          0.5 0.05000000074505806 0 0.5 0 0
          0.6000000238418579 0.05000000074505806 0
          <InformationKey name="L2_NORM_RANGE" location="vtkDataArray" length="2">
            <Value index="0">
              0
            </Value>
            <Value index="1">
              0.60207975276
            </Value>
          </InformationKey>
        </DataArray>
      </Points>
      <Cells>
        <DataArray type="Int64" Name="connectivity" format="ascii" RangeMin="0" RangeMax="12">
          3 2 1 2 0 1
          5 4 3 4 2 3
          7 6 5 6 4 5
          9 8 7 8 6 7
          11 10 9 10 8 9
          12 10 11
        </DataArray>
        <DataArray type="Int64" Name="offsets" format="ascii" RangeMin="3" RangeMax="33">
          3 6 9 12 15 18
          21 24 27 30 33
        </DataArray>
        <DataArray type="UInt8" Name="types" format="ascii" RangeMin="5" RangeMax="5">
          5 5 5 5 5 5
          5 5 5 5 5
        </DataArray>
      </Cells>
    </Piece>
  </UnstructuredGrid>
</VTKFile>
