<?xml version="1.0"?>
<VTKFile type="UnstructuredGrid" version="0.1" byte_order="LittleEndian" header_type="UInt32" compressor="vtkZLibDataCompressor">
  <UnstructuredGrid>
    <Piece NumberOfPoints="13" NumberOfCells="11">
      <PointData>
        <DataArray type="Float64" Name="Disp" NumberOfComponents="3" format="ascii" RangeMin="0" RangeMax="0.08126812479506026">
          0 0 0 0 0 0
          0.001129262488441531 -0.0020674972681411405 0 -0.0011891746949339035 -0.00202616029043149 0
          0.0020909410804317674 -0.00944620240897333 0 -0.0027863819824898053 -0.00923710768599219 0
          0.0024900625095133737 -0.02168833024477172 0 -0.004665198576897089 -0.02118739274996527 0
          0.002106625448282585 -0.038225418607853105 0 -0.007008860148419129 -0.037402964880845435 0
          0.000885998148524736 -0.05833704264135979 0 -0.009825946009903861 -0.05718621711941005 0
          -0.001143036617587893 -0.08126008598934868 0
          <InformationKey name="L2_NORM_RANGE" location="vtkDataArray" length="2">
            <Value index="0">
              0
            </Value>
            <Value index="1">
              0.081268124795
            </Value>
          </InformationKey>
        </DataArray>
        <DataArray type="Float64" Name="Nodal Stress" NumberOfComponents="6" format="ascii" RangeMin="43979.079106820034" RangeMax="134648.53913695333">
          130571.15961553635 -4677.71789085453 0 -32550.27378845474 0 0
          -74126.32571992379 -13368.298860309505 0 4143.772313956655 0 0
          99721.28742262309 5203.21137096835 0 -11936.755987895182 0 0
          -93250.45986236661 -4560.712882991058 0 9547.168436728165 0 0
          84109.21045890854 6179.995512345588 0 -18175.66710295694 0 0
          -89317.53050673404 -6729.154923336668 0 11133.306829850706 0 0
          78789.06004304372 7978.4694770374135 0 -19957.878473905523 0 0
          -81388.74864065835 -5976.856278283199 0 13480.126075439399 0 0
          67114.67741324886 9589.537519357498 0 -21487.340575061608 0 0
          -71914.1789258673 -5627.929911341735 0 13582.952703144632 0 0
          53895.535494395175 10585.794810591622 0 -20802.535069081725 0 0
          -59369.32996917342 -4293.783826034169 0 12170.020196201598 0 0
          38594.671753437775 10527.675945225035 0 -18269.612763292404 0 0
          <InformationKey name="L2_NORM_RANGE" location="vtkDataArray" length="2">
            <Value index="0">
              43979.079107
            </Value>
            <Value index="1">
              134648.53914
            </Value>
          </InformationKey>
        </DataArray>
        <DataArray type="Float64" Name="Nodal Strain" NumberOfComponents="6" format="ascii" RangeMin="0" RangeMax="0">
          0 0 0 0 0 0
          0 0 0 0 0 0
          0 0 0 0 0 0
          0 0 0 0 0 0
          0 0 0 0 0 0
          0 0 0 0 0 0
          0 0 0 0 0 0
          0 0 0 0 0 0
          0 0 0 0 0 0
          0 0 0 0 0 0
          0 0 0 0 0 0
          0 0 0 0 0 0
          0 0 0 0 0 0
          <InformationKey name="L2_NORM_RANGE" location="vtkDataArray" length="2">
            <Value index="0">
              0
            </Value>
            <Value index="1">
              0
            </Value>
          </InformationKey>
        </DataArray>
        <DataArray type="Float64" Name="Sld_traction" NumberOfComponents="3" format="ascii" RangeMin="12286.119780986788" RangeMax="57747.94967920235">
          -55920.492561878054 14412.64041696135 0 21284.523113007584 18686.79191438859 0
          -22322.318246620725 16561.368854748278 0 -20050.287290374406 16533.354546126655 0
          -19442.967541691385 13830.563658072417 0 -16493.787565369104 15326.400858482095 0
          -17856.0290785822 14352.505077274529 0 -13699.325120107287 14046.451209626133 0
          -17213.089060576753 14336.27674506367 0 -10705.925199361669 12148.697805411697 0
          -16363.979574533114 13833.567534813576 0 -7841.24292510954 9458.522541188684 0
          -15139.65866504542 12492.11759234945 0
          <InformationKey name="L2_NORM_RANGE" location="vtkDataArray" length="2">
            <Value index="0">
              12286.119781
            </Value>
            <Value index="1">
              57747.949679
            </Value>
          </InformationKey>
        </DataArray>
        <DataArray type="Float64" Name="Velocity" NumberOfComponents="3" format="ascii" RangeMin="0" RangeMax="1.2311507704899698">
          0 0 0 0 0 0
          0.06568623576951771 -0.15983057129599787 0 -0.09579169251738151 -0.15358824831492002 0
          0.07759965252796275 -0.6131688187489948 0 -0.148923652882617 -0.5907198652783494 0
          -0.0014512343913222203 -1.0259974733213344 0 -0.15770780080296376 -1.0011390773910183 0
          -0.09373452576697505 -1.2275773125784326 0 -0.12463429092474776 -1.2194890827762848 0
          -0.148016162174132 -1.1340075214056178 0 -0.02994143594066756 -1.1575908425241543 0
          -0.12626394136071295 -0.7377367984944598 0
          <InformationKey name="L2_NORM_RANGE" location="vtkDataArray" length="2">
            <Value index="0">
              0
            </Value>
            <Value index="1">
              1.2311507705
            </Value>
          </InformationKey>
        </DataArray>
        <DataArray type="Float64" Name="Acceleration" NumberOfComponents="3" format="ascii" RangeMin="0" RangeMax="922.1012672532721">
          0 0 0 0 0 0
          50.29903163152608 -120.4891367065843 0 -70.53710581778569 -114.16287733955232 0
          63.91092040215017 -462.7993694139186 0 -107.79437605959902 -444.4718015070266 0
          5.608486623666977 -777.1586233589769 0 -111.31563927081879 -756.8515886831301 0
          -66.04516011638225 -919.7329959805138 0 -74.6143612804517 -914.6196630336563 0
          -107.40049720103514 -791.5624081898568 0 29.637924791701153 -819.1978213939219 0
          -74.56805955216032 -347.2219915449823 0
          <InformationKey name="L2_NORM_RANGE" location="vtkDataArray" length="2">
            <Value index="0">
              0
            </Value>
            <Value index="1">
              922.10126725
            </Value>
          </InformationKey>
        </DataArray>
        <DataArray type="Float64" Name="Sigma" NumberOfComponents="6" format="ascii" RangeMin="88192.89428510518" RangeMax="200297.5483175842">
          130354.65725546564 -130354.65725546554 0 -67700.09269614767 0 0
          -130746.75581760713 130746.75581760681 0 30075.284741214356 0 0
          140535.1963194575 -140535.19631945755 0 -24876.194502737966 0 0
          -134525.161342301 134525.1613423017 0 31445.024896668478 0 0
          120066.02643983913 -120066.02643983996 0 -47950.56444213535 0 0
          -119659.72268020999 119659.72268021067 0 42666.76717534262 0 0
          110809.00630738032 -110809.00630737908 0 -52496.918385294215 0 0
          -108621.23234255779 108621.23234255837 0 48489.82096785689 0 0
          93217.79714977805 -93217.79714977797 0 -57422.447168818515 0 0
          -92008.30168172202 92008.30168172072 0 49383.89930353411 0 0
          73847.9660814057 -73847.96608140726 0 -55268.75473271478 0 0
          -73205.95803287388 73205.95803287363 0 44774.68873128626 0 0
          52368.3392815956 -52368.33928159326 0 -47886.330869668476 0 0
          <InformationKey name="L2_NORM_RANGE" location="vtkDataArray" length="2">
            <Value index="0">
              88192.894285
            </Value>
            <Value index="1">
              200297.54832
            </Value>
          </InformationKey>
        </DataArray>
        <DataArray type="Float64" Name="Press" format="ascii" RangeMin="-165284.44895004752" RangeMax="164940.4984316465">
          126065.41698388237 -165284.44895004752 164940.4984316465 -147947.48125946443 135799.492644983 -140376.88177284447
          133762.4719136466 -129607.16857993626 118308.22615694483 -113810.04091301699 100421.9069073383 -92808.48519446673
          77206.48381598864
        </DataArray>
        <DataArray type="Float64" Name="Dev strain" NumberOfComponents="6" format="ascii" RangeMin="0" RangeMax="0">
          0 0 0 0 0 0
          0 0 0 0 0 0
          0 0 0 0 0 0
          0 0 0 0 0 0
          0 0 0 0 0 0
          0 0 0 0 0 0
          0 0 0 0 0 0
          0 0 0 0 0 0
          0 0 0 0 0 0
          0 0 0 0 0 0
          0 0 0 0 0 0
          0 0 0 0 0 0
          0 0 0 0 0 0
          <InformationKey name="L2_NORM_RANGE" location="vtkDataArray" length="2">
            <Value index="0">
              0
            </Value>
            <Value index="1">
              0
            </Value>
          </InformationKey>
        </DataArray>
        <DataArray type="Float64" Name="J2 Stresses" format="ascii" RangeMin="3315718130.152027" RangeMax="19904847667.782974">
          18138162305.956657 17320844844.895218 19904847667.782974 18344216431.860237 14990664862.63209 14773562487.203568
          12967617488.81697 12386387799.989687 9513892065.1711 9075219955.960052 6217180906.786807 5860305479.256765
          3315718130.152027
        </DataArray>
      </PointData>
      <CellData>
        <DataArray type="UInt8" Name="vtkGhostType" format="ascii" RangeMin="0" RangeMax="0">
          0 0 0 0 0 0
          0 0 0 0 0
        </DataArray>
        <DataArray type="Float64" Name="Gauss Stress" NumberOfComponents="6" format="ascii" RangeMin="51009.037690282414" RangeMax="96140.99479584102">
          -91009.3842061054 -7851.570312471509 0 12214.705045048291 0 0
          88621.52140759915 -4807.210430611644 0 -20833.667485890426 0 0
          -95547.90932333261 -6135.337601551163 0 8720.409209958585 0 0
          92956.19041138694 8905.482800056418 0 -13793.911349401618 0 0
          -84564.50905150721 -6249.876574581396 0 12886.55658596844 0 0
          80133.46428426488 5989.924239592251 0 -19260.23855069566 0 0
          -77506.90673683674 -5899.082153835769 0 13483.757700857504 0 0
          72623.03353508527 9019.319458685493 0 -20476.51486208529 0 0
          -65854.30427777854 -4943.441855652778 0 12963.277767368536 0 0
          59992.517900242674 9954.210200600559 0 -21102.43419933307 0 0
          45943.41761966255 10603.18606624444 0 -19460.132290365666 0 0
          <InformationKey name="L2_NORM_RANGE" location="vtkDataArray" length="2">
            <Value index="0">
              51009.03769
            </Value>
            <Value index="1">
              96140.994796
            </Value>
          </InformationKey>
        </DataArray>
        <DataArray type="Float64" Name="Gauss Strain" NumberOfComponents="6" format="ascii" RangeMin="0" RangeMax="0">
          0 0 0 0 0 0
          0 0 0 0 0 0
          0 0 0 0 0 0
          0 0 0 0 0 0
          0 0 0 0 0 0
          0 0 0 0 0 0
          0 0 0 0 0 0
          0 0 0 0 0 0
          0 0 0 0 0 0
          0 0 0 0 0 0
          0 0 0 0 0 0
          <InformationKey name="L2_NORM_RANGE" location="vtkDataArray" length="2">
            <Value index="0">
              0
            </Value>
            <Value index="1">
              0
            </Value>
          </InformationKey>
        </DataArray>
      </CellData>
      <Points>
        <DataArray type="Float32" Name="Points" NumberOfComponents="3" format="ascii" RangeMin="0" RangeMax="0.6020797527609908">
          0 0.05000000074505806 0 0 0 0
          0.10000000149011612 0.05000000074505806 0 0.10000000149011612 0 0
          0.20000000298023224 0.05000000074505806 0 0.20000000298023224 0 0
          0.30000001192092896 0.05000000074505806 0 0.30000001192092896 0 0
          0.4000000059604645 0.05000000074505806 0 0.4000000059604645 0 0
          0.5 0.05000000074505806 0 0.5 0 0
          0.6000000238418579 0.05000000074505806 0
          <InformationKey name="L2_NORM_RANGE" location="vtkDataArray" length="2">
            <Value index="0">
              0
            </Value>
            <Value index="1">
              0.60207975276
            </Value>
          </InformationKey>
        </DataArray>
      </Points>
      <Cells>
        <DataArray type="Int64" Name="connectivity" format="ascii" RangeMin="0" RangeMax="12">
          3 2 1 2 0 1
          5 4 3 4 2 3
          7 6 5 6 4 5
          9 8 7 8 6 7
          11 10 9 10 8 9
          12 10 11
        </DataArray>
        <DataArray type="Int64" Name="offsets" format="ascii" RangeMin="3" RangeMax="33">
          3 6 9 12 15 18
          21 24 27 30 33
        </DataArray>
        <DataArray type="UInt8" Name="types" format="ascii" RangeMin="5" RangeMax="5">
          5 5 5 5 5 5
          5 5 5 5 5
        </DataArray>
      </Cells>
    </Piece>
  </UnstructuredGrid>
</VTKFile>
