<?xml version="1.0"?>
<VTKFile type="UnstructuredGrid" version="0.1" byte_order="LittleEndian" header_type="UInt32" compressor="vtkZLibDataCompressor">
  <UnstructuredGrid>
    <Piece NumberOfPoints="13" NumberOfCells="11">
      <PointData>
        <DataArray type="Float64" Name="Disp" NumberOfComponents="3" format="ascii" RangeMin="0" RangeMax="0.07295535692204717">
          0 0 0 0 0 0
          0.0013249410906922285 -0.002669893784432631 0 -0.0015804367781604891 -0.002604925748343768 0
          0.00223456711682405 -0.011551005767027195 0 -0.0032100593463207463 -0.011278034148678954 0
          0.00221347081014884 -0.0242867351650733 0 -0.004747764560319339 -0.023803329030887877 0
          0.0015443769746105558 -0.039431473445829146 0 -0.006352352155316717 -0.03881036280096523 0
          0.0004316997272678311 -0.055897298859241044 0 -0.007943385053379902 -0.05519259770895747 0
          -0.0009373882096265233 -0.0729493345203899 0
          <InformationKey name="L2_NORM_RANGE" location="vtkDataArray" length="2">
            <Value index="0">
              0
            </Value>
            <Value index="1">
              0.072955356922
            </Value>
          </InformationKey>
        </DataArray>
        <DataArray type="Float64" Name="Nodal Stress" NumberOfComponents="6" format="ascii" RangeMin="9879.071366541693" RangeMax="150398.20168558595">
          143736.2222108587 -3598.4187705820505 0 -44119.937411111154 0 0
          -75134.7495823226 -12507.935920380593 0 -3988.53067879088 0 0
          98327.10495351184 7544.991953082116 0 -19215.031493997893 0 0
          -90679.69014924878 -845.7347571261782 0 5225.054983104271 0 0
          68338.50378426087 9251.233378492007 0 -22932.649925974656 0 0
          -72858.90496691696 -2193.4535799964833 0 5014.5674782434235 0 0
          49355.41639388987 8957.992164547717 0 -18806.804389719902 0 0
          -51056.06956340896 -612.402014592868 0 4818.37657111055 0 0
          30051.84908111997 7502.262282244076 0 -14406.55455527011 0 0
          -32885.27378098334 -69.81307447280767 0 2860.6836384746134 0 0
          16644.464017305396 5448.568093628124 0 -9515.316361269386 0 0
          -18383.713142400346 467.14178841022675 0 1272.5269484259572 0 0
          7485.24400685266 3349.3740698269917 0 -5508.980537583236 0 0
          <InformationKey name="L2_NORM_RANGE" location="vtkDataArray" length="2">
            <Value index="0">
              9879.0713665
            </Value>
            <Value index="1">
              150398.20169
            </Value>
          </InformationKey>
        </DataArray>
        <DataArray type="Float64" Name="Nodal Strain" NumberOfComponents="6" format="ascii" RangeMin="0" RangeMax="0">
          0 0 0 0 0 0
          0 0 0 0 0 0
          0 0 0 0 0 0
          0 0 0 0 0 0
          0 0 0 0 0 0
          0 0 0 0 0 0
          0 0 0 0 0 0
          0 0 0 0 0 0
          0 0 0 0 0 0
          0 0 0 0 0 0
          0 0 0 0 0 0
          0 0 0 0 0 0
          0 0 0 0 0 0
          <InformationKey name="L2_NORM_RANGE" location="vtkDataArray" length="2">
            <Value index="0">
              0
            </Value>
            <Value index="1">
              0
            </Value>
          </InformationKey>
        </DataArray>
        <DataArray type="Float64" Name="Sld_traction" NumberOfComponents="3" format="ascii" RangeMin="2500.9904365282177" RangeMax="71603.4222459325">
          -68915.99542248626 19432.849823357185 0 25606.19937882996 21672.052529370052 0
          -28617.878069658345 18257.52219647392 0 -14770.243524966045 12309.739200915556 0
          -25253.343126271026 14619.521389566586 0 -9906.335910300359 9060.736279569073 0
          -20807.176860309293 12949.70744874873 0 -6409.534818605418 6205.344751515848 0
          -16073.163569499353 10035.524593049478 0 -3610.8887143708 3718.592283069672 0
          -11087.653277830097 6966.776385156189 0 -1732.9127316346735 1803.3209997513086 0
          -6747.73128923456 4123.652052393937 0
          <InformationKey name="L2_NORM_RANGE" location="vtkDataArray" length="2">
            <Value index="0">
              2500.9904365
            </Value>
            <Value index="1">
              71603.422246
            </Value>
          </InformationKey>
        </DataArray>
        <DataArray type="Float64" Name="Velocity" NumberOfComponents="3" format="ascii" RangeMin="0" RangeMax="5.342037303439151">
          0 0 0 0 0 0
          -0.12007043187108546 0.2552266815577897 0 0.14561738454681072 0.24249320454493906 0
          -0.14967400274260623 1.0494684953977371 0 0.315833100793512 0.9996935682132762 0
          -0.05935248914366742 2.1029055974305386 0 0.48390857503957463 2.0244536909968147 0
          0.10810001310566619 3.227598409012977 0 0.6604340442190137 3.1380534712815518 0
          0.3040353087386555 4.315311018364021 0 0.8269683548759614 4.225740583235471 0
          0.49866954610859815 5.31871142619331 0
          <InformationKey name="L2_NORM_RANGE" location="vtkDataArray" length="2">
            <Value index="0">
              0
            </Value>
            <Value index="1">
              5.3420373034
            </Value>
          </InformationKey>
        </DataArray>
        <DataArray type="Float64" Name="Acceleration" NumberOfComponents="3" format="ascii" RangeMin="0" RangeMax="1787.1651193886637">
          0 0 0 0 0 0
          -74.14138828600176 180.0611294574269 0 111.46878667624492 173.4217270497743 0
          -78.99180701269734 706.9737078407561 0 198.0716206526945 680.1080808386978 0
          4.28567434714887 1251.459714210505 0 239.85869418161565 1222.562579438676 0
          106.97354403974873 1634.2797071283494 0 241.32139160550378 1619.4126368198777 0
          185.12608970040583 1770.9479924116895 0 192.25634431253638 1776.7939278461854 0
          217.88755921045868 1645.372170411676 0
          <InformationKey name="L2_NORM_RANGE" location="vtkDataArray" length="2">
            <Value index="0">
              0
            </Value>
            <Value index="1">
              1787.1651194
            </Value>
          </InformationKey>
        </DataArray>
        <DataArray type="Float64" Name="Sigma" NumberOfComponents="6" format="ascii" RangeMin="18242.011364291575" RangeMax="223119.8069247551">
          146502.3677783266 -146502.36777832775 0 -82804.35201622876 0 0
          -136617.35174279963 136617.35174279826 0 21874.716689582667 0 0
          138281.89814902586 -138281.8981490261 0 -32745.762301569765 0 0
          -131108.88945020965 131108.88945021064 0 30523.65785593692 0 0
          99057.56325870186 -99057.56325870153 0 -54288.25007755155 0 0
          -94630.00575412501 94630.00575412388 0 33045.877726273364 0 0
          70010.81573684514 -70010.8157368442 0 -42819.43460916578 0 0
          -65535.39804911544 65535.39804911601 0 26503.832575169996 0 0
          42146.47813552239 -42146.47813552152 0 -32869.82307792089 0 0
          -40064.00254446867 40064.00254446827 0 17594.173097754057 0 0
          23036.609596244532 -23036.60959624405 0 -20725.724121801897 0 0
          -21674.803775474826 21674.80377547126 0 9636.86401942733 0 0
          10119.202030458324 -10119.202030451608 0 -11312.580569817623 0 0
          <InformationKey name="L2_NORM_RANGE" location="vtkDataArray" length="2">
            <Value index="0">
              18242.011364
            </Value>
            <Value index="1">
              223119.80692
            </Value>
          </InformationKey>
        </DataArray>
        <DataArray type="Float64" Name="Press" format="ascii" RangeMin="-172397.28041318164" RangeMax="165558.56107053533">
          143557.16311160073 -172397.28041318164 165558.56107053533 -139742.85048983584 117150.62004401436 -108812.64556257759
          90261.15672081061 -75158.28048575555 57395.936168410626 -46699.48341498623 33696.39905916964 -24975.620423755947
          16118.78635311239
        </DataArray>
        <DataArray type="Float64" Name="Dev strain" NumberOfComponents="6" format="ascii" RangeMin="0" RangeMax="0">
          0 0 0 0 0 0
          0 0 0 0 0 0
          0 0 0 0 0 0
          0 0 0 0 0 0
          0 0 0 0 0 0
          0 0 0 0 0 0
          0 0 0 0 0 0
          0 0 0 0 0 0
          0 0 0 0 0 0
          0 0 0 0 0 0
          0 0 0 0 0 0
          0 0 0 0 0 0
          0 0 0 0 0 0
          <InformationKey name="L2_NORM_RANGE" location="vtkDataArray" length="2">
            <Value index="0">
              0
            </Value>
            <Value index="1">
              0
            </Value>
          </InformationKey>
        </DataArray>
        <DataArray type="Float64" Name="J2 Stresses" format="ascii" RangeMin="134391869.52031767" RangeMax="23177083942.86312">
          23177083942.86312 18783926604.778027 19389954592.87532 17422464315.094 10549204362.872383 9227845497.700579
          5359890315.200573 4470501682.749201 2046431936.5214853 1682513031.6316097 638074291.7830349 493014405.73749375
          134391869.52031767
        </DataArray>
      </PointData>
      <CellData>
        <DataArray type="UInt8" Name="vtkGhostType" format="ascii" RangeMin="0" RangeMax="0">
          0 0 0 0 0 0
          0 0 0 0 0
        </DataArray>
        <DataArray type="Float64" Name="Gauss Stress" NumberOfComponents="6" format="ascii" RangeMin="14905.105778402041" RangeMax="100036.55708009905">
          -92008.63762548855 -5712.408929499792 0 6550.870747983276 0 0
          94961.78598450245 -3816.1568052003804 0 -31225.13254273862 0 0
          -86028.7359846773 -1574.5146875886935 0 3093.7618348862507 0 0
          83065.63419407734 12245.252889065621 0 -18836.784841061468 0 0
          -61288.11913130594 -1185.0604203756106 0 5576.758564092528 0 0
          57679.16814788981 8053.585986941848 0 -21353.935653481327 0 0
          -42638.25006346429 -336.3017580894657 0 3742.7275316677224 0 0
          39706.90274223929 8625.638860071997 0 -16395.141703972226 0 0
          -25560.300501090507 241.16398137431315 0 2168.437665126498 0 0
          23170.645666630764 6424.588875098911 0 -12000.458033989584 0 0
          12106.857613251374 4452.852379100563 0 -7467.14689073073 0 0
          <InformationKey name="L2_NORM_RANGE" location="vtkDataArray" length="2">
            <Value index="0">
              14905.105778
            </Value>
            <Value index="1">
              100036.55708
            </Value>
          </InformationKey>
        </DataArray>
        <DataArray type="Float64" Name="Gauss Strain" NumberOfComponents="6" format="ascii" RangeMin="0" RangeMax="0">
          0 0 0 0 0 0
          0 0 0 0 0 0
          0 0 0 0 0 0
          0 0 0 0 0 0
          0 0 0 0 0 0
          0 0 0 0 0 0
          0 0 0 0 0 0
          0 0 0 0 0 0
          0 0 0 0 0 0
          0 0 0 0 0 0
          0 0 0 0 0 0
          <InformationKey name="L2_NORM_RANGE" location="vtkDataArray" length="2">
            <Value index="0">
              0
            </Value>
            <Value index="1">
              0
            </Value>
          </InformationKey>
        </DataArray>
      </CellData>
      <Points>
        <DataArray type="Float32" Name="Points" NumberOfComponents="3" format="ascii" RangeMin="0" RangeMax="0.6020797527609908">
          0 0.05000000074505806 0 0 0 0
          0.10000000149011612 0.05000000074505806 0 0.10000000149011612 0 0
          0.20000000298023224 0.05000000074505806 0 0.20000000298023224 0 0
          0.30000001192092896 0.05000000074505806 0 0.30000001192092896 0 0
          0.4000000059604645 0.05000000074505806 0 0.4000000059604645 0 0
          0.5 0.05000000074505806 0 0.5 0 0
          0.6000000238418579 0.05000000074505806 0
          <InformationKey name="L2_NORM_RANGE" location="vtkDataArray" length="2">
            <Value index="0">
              0
            </Value>
            <Value index="1">
              0.60207975276
            </Value>
          </InformationKey>
        </DataArray>
      </Points>
      <Cells>
        <DataArray type="Int64" Name="connectivity" format="ascii" RangeMin="0" RangeMax="12">
          3 2 1 2 0 1
          5 4 3 4 2 3
          7 6 5 6 4 5
          9 8 7 8 6 7
          11 10 9 10 8 9
          12 10 11
        </DataArray>
        <DataArray type="Int64" Name="offsets" format="ascii" RangeMin="3" RangeMax="33">
          3 6 9 12 15 18
          21 24 27 30 33
        </DataArray>
        <DataArray type="UInt8" Name="types" format="ascii" RangeMin="5" RangeMax="5">
          5 5 5 5 5 5
          5 5 5 5 5
        </DataArray>
      </Cells>
    </Piece>
  </UnstructuredGrid>
</VTKFile>
