<?xml version="1.0"?>
<VTKFile type="UnstructuredGrid" version="0.1" byte_order="LittleEndian" header_type="UInt32" compressor="vtkZLibDataCompressor">
  <UnstructuredGrid>
    <Piece NumberOfPoints="13" NumberOfCells="11">
      <PointData>
        <DataArray type="Float64" Name="Disp" NumberOfComponents="3" format="ascii" RangeMin="0.0378643153910086" RangeMax="0.1637062891956811">
          -0.008748177417225939 -0.05530631528746237 0 -0.0008373558714309798 -0.07628029947463233 0
          -0.01114670919875207 -0.07520943145114668 0 -0.0028751284011164753 -0.09753061735052002 0
          -0.013650815459975256 -0.09635754519390523 0 -0.005180591771976419 -0.11941696732265213 0
          -0.016175136276525382 -0.11819506329633077 0 -0.007636561624585741 -0.14149001500299305 0
          -0.01863144971022459 -0.14026834909221506 0 -0.010117641412871789 -0.16339333662809052 0
          -0.02104690941450679 -0.16218155248513202 0 0.0007943767908186488 -0.0562212885488222 0
          -0.00654298200304594 -0.037294714994722616 0
          <InformationKey name="L2_NORM_RANGE" location="vtkDataArray" length="2">
            <Value index="0">
              0.037864315391
            </Value>
            <Value index="1">
              0.1637062892
            </Value>
          </InformationKey>
        </DataArray>
        <DataArray type="Float64" Name="Nodal Stress" NumberOfComponents="6" format="ascii" RangeMin="584.8640830711621" RangeMax="54248.20158364934">
          -40325.66541240889 -1837.982907693231 0 6676.495898908844 0 0
          25257.80349207855 6888.004699645115 0 -12085.298768979592 0 0
          -28081.26590553375 -832.3991376953505 0 4443.295212074177 0 0
          14718.87857404275 5386.781458832404 0 -8639.967176097856 0 0
          -17160.56077960246 62.81014647609888 0 2316.1638586067866 0 0
          6668.410576522453 3702.8061376366654 0 -5359.932949751482 0 0
          -8652.327629762956 501.5272534138341 0 700.0315274355704 0 0
          1992.8689523238677 1912.5588465454493 0 -2566.8342379182927 0 0
          -3648.208377053428 248.4218310666811 0 73.46692800787919 0 0
          210.1105216473384 916.8502858817047 0 -1294.6241043987172 0 0
          410.6747922017307 74.75570324384239 0 409.66302682723887 0 0
          37698.766906232464 7963.823147489331 0 -15236.210334690519 0 0
          -53520.55804579184 -2907.5750946068633 0 8364.40366054283 0 0
          <InformationKey name="L2_NORM_RANGE" location="vtkDataArray" length="2">
            <Value index="0">
              584.86408307
            </Value>
            <Value index="1">
              54248.201584
            </Value>
          </InformationKey>
        </DataArray>
        <DataArray type="Float64" Name="Nodal Strain" NumberOfComponents="6" format="ascii" RangeMin="0" RangeMax="0">
          0 0 0 0 0 0
          0 0 0 0 0 0
          0 0 0 0 0 0
          0 0 0 0 0 0
          0 0 0 0 0 0
          0 0 0 0 0 0
          0 0 0 0 0 0
          0 0 0 0 0 0
          0 0 0 0 0 0
          0 0 0 0 0 0
          0 0 0 0 0 0
          0 0 0 0 0 0
          0 0 0 0 0 0
          <InformationKey name="L2_NORM_RANGE" location="vtkDataArray" length="2">
            <Value index="0">
              0
            </Value>
            <Value index="1">
              0
            </Value>
          </InformationKey>
        </DataArray>
        <DataArray type="Float64" Name="Sld_traction" NumberOfComponents="3" format="ascii" RangeMin="140.09127152817314" RangeMax="17745.141893479336">
          -5271.925878568409 5859.582615155257 0 -11679.60199689228 8647.91056618309 0
          -3275.554158264603 3712.2780107403905 0 -8993.931554889157 6424.89082401659 0
          -1720.7680116793135 1864.2136549753773 0 -6097.483683275882 4197.591098901569 0
          -457.44930263141083 646.9440036977517 0 -3239.5051839641287 2200.693259623842 0
          -259.1439235929598 324.03417388228604 0 -779.4168488975597 382.4097246351312 0
          135.8749626304176 34.1109790032909 0 -14173.144987932152 10677.641217552175 0
          -7587.788625177186 8178.461382706621 0
          <InformationKey name="L2_NORM_RANGE" location="vtkDataArray" length="2">
            <Value index="0">
              140.09127153
            </Value>
            <Value index="1">
              17745.141893
            </Value>
          </InformationKey>
        </DataArray>
        <DataArray type="Float64" Name="Velocity" NumberOfComponents="3" format="ascii" RangeMin="0.879111377019276" RangeMax="8.285647236423166">
          -0.5065809322267767 -1.603670788228424 0 -0.20624017882172083 -2.7456325421141017 0
          -0.7768396483080071 -2.6252649266009414 0 -0.43662640706195543 -3.9926937457362115 0
          -1.0888059385330715 -3.8480856178653724 0 -0.7217293250299763 -5.363933628022558 0
          -1.4200921169333673 -5.205686175043034 0 -1.041557593331937 -6.782341922563148 0
          -1.7443603539783261 -6.623024780253665 0 -1.36673792015279 -8.172146449009787 0
          -2.057893932982685 -8.015154951910759 0 -0.04688011740114134 -1.6927235578916502 0
          -0.2933155404841412 -0.8287356676982256 0
          <InformationKey name="L2_NORM_RANGE" location="vtkDataArray" length="2">
            <Value index="0">
              0.87911137702
            </Value>
            <Value index="1">
              8.2856472364
            </Value>
          </InformationKey>
        </DataArray>
        <DataArray type="Float64" Name="Acceleration" NumberOfComponents="3" format="ascii" RangeMin="129.62432298564673" RangeMax="1787.410739600644">
          87.01905548089599 276.153169016412 0 8.684460836926533 515.3601919492867 0
          134.43071337271613 496.8726856994981 0 36.76619856702587 795.8484307748295 0
          186.495380759794 774.0923036504682 0 74.71659249990898 1114.612949916569 0
          238.91083107190025 1091.0519496051566 0 120.46507963335898 1450.1737661962397 0
          286.93059761831864 1426.4313342092355 0 170.02589274637103 1779.3055802294111 0
          333.25624875585345 1755.8009347095212 0 -8.328173732672553 290.2380859337136 0
          48.220350134349246 120.3214982553327 0
          <InformationKey name="L2_NORM_RANGE" location="vtkDataArray" length="2">
            <Value index="0">
              129.62432299
            </Value>
            <Value index="1">
              1787.4107396
            </Value>
          </InformationKey>
        </DataArray>
        <DataArray type="Float64" Name="Sigma" NumberOfComponents="6" format="ascii" RangeMin="2491.4989860652145" RangeMax="102505.65585215329">
          -50236.11252773449 50236.11252772733 0 27264.76850663971 0 0
          34365.06174636681 -34365.06174636899 0 -29835.467463919893 0 0
          -33735.96839749702 33735.96839750441 0 19255.016513509578 0 0
          19914.67561508168 -19914.675615082673 0 -20538.500560324905 0 0
          -19643.020053068893 19643.020053064218 0 11442.601554312008 0 0
          8756.326463911795 -8756.326463908594 0 -11901.513076696763 0 0
          -9165.685366492307 9165.68536650232 0 4821.499978413385 0 0
          2925.5065726257567 -2925.5065726332136 0 -4871.278360508573 0 0
          -3662.584437834635 3662.58443783582 0 1581.9100520920488 0 0
          -169.80487473164436 169.8048747362102 0 -2479.8991525054366 0 0
          2252.1137452398457 -2252.1137452450857 0 1268.3206038611715 0 0
          51680.51558004331 -51680.515580037325 0 -38256.83591874395 0 0
          -68424.90707849679 68424.90707849301 0 33815.287434513484 0 0
          <InformationKey name="L2_NORM_RANGE" location="vtkDataArray" length="2">
            <Value index="0">
              2491.4989861
            </Value>
            <Value index="1">
              102505.65585
            </Value>
          </InformationKey>
        </DataArray>
        <DataArray type="Float64" Name="Press" format="ascii" RangeMin="-82696.65295372288" RangeMax="70206.03790454405">
          -61487.37753458089 49544.28790927944 -41586.332077272185 31055.40725212982 -23998.122935415537 15734.388296580637
          -10696.426615116916 6107.5316993147335 -4427.767893455656 1302.1955011390628 2048.216691605052 70206.03790454405
          -82696.65295372288
        </DataArray>
        <DataArray type="Float64" Name="Dev strain" NumberOfComponents="6" format="ascii" RangeMin="0" RangeMax="0">
          0 0 0 0 0 0
          0 0 0 0 0 0
          0 0 0 0 0 0
          0 0 0 0 0 0
          0 0 0 0 0 0
          0 0 0 0 0 0
          0 0 0 0 0 0
          0 0 0 0 0 0
          0 0 0 0 0 0
          0 0 0 0 0 0
          0 0 0 0 0 0
          0 0 0 0 0 0
          0 0 0 0 0 0
          <InformationKey name="L2_NORM_RANGE" location="vtkDataArray" length="2">
            <Value index="0">
              0
            </Value>
            <Value index="1">
              0
            </Value>
          </InformationKey>
        </DataArray>
        <DataArray type="Float64" Name="J2 Stresses" format="ascii" RangeMin="1566308.6471327003" RangeMax="4967836324.770353">
          2709508902.329006 1403496248.5293338 1230804478.9510486 502051806.1705651 418581519.38786066 112084756.52127002
          89821503.74808306 14490926.922888089 14040134.617500259 1566308.6471327003 5474175.610054737 3036772064.247214
          4967836324.770353
        </DataArray>
      </PointData>
      <CellData>
        <DataArray type="UInt8" Name="vtkGhostType" format="ascii" RangeMin="0" RangeMax="1">
          1 1 0 0 0 0
          0 0 0 0 0
        </DataArray>
        <DataArray type="Float64" Name="Gauss Stress" NumberOfComponents="6" format="ascii" RangeMin="910.0108528983761" RangeMax="47655.19906910165">
          -46986.165536649234 -2332.4961858589036 0 7607.740007469749 0 0
          31357.471025972758 7484.494493521203 0 -13609.178292008048 0 0
          -34378.81362714611 -1307.4675079036292 0 5561.4391854098 0 0
          -22664.453532014046 -354.91164169064814 0 3386.3725024988944 0 0
          19852.377349362854 6156.531373396605 0 -10372.983836911739 0 0
          -13004.180069867076 364.0725672353756 0 1454.1961520095433 0 0
          10606.551546406497 4587.896862455955 0 -6999.137360903221 0 0
          -6306.475346986342 295.3668074823627 0 510.7105566656203 0 0
          4553.880350274568 2876.448570246322 0 -3983.7638195973177 0 0
          -885.8770893459907 167.6399555384677 0 123.44383448259481 0 0
          691.6921890192061 1296.280682312319 0 -1923.0891536406539 0 0
          <InformationKey name="L2_NORM_RANGE" location="vtkDataArray" length="2">
            <Value index="0">
              910.0108529
            </Value>
            <Value index="1">
              47655.199069
            </Value>
          </InformationKey>
        </DataArray>
        <DataArray type="Float64" Name="Gauss Strain" NumberOfComponents="6" format="ascii" RangeMin="0" RangeMax="0">
          0 0 0 0 0 0
          0 0 0 0 0 0
          0 0 0 0 0 0
          0 0 0 0 0 0
          0 0 0 0 0 0
          0 0 0 0 0 0
          0 0 0 0 0 0
          0 0 0 0 0 0
          0 0 0 0 0 0
          0 0 0 0 0 0
          0 0 0 0 0 0
          <InformationKey name="L2_NORM_RANGE" location="vtkDataArray" length="2">
            <Value index="0">
              0
            </Value>
            <Value index="1">
              0
            </Value>
          </InformationKey>
        </DataArray>
      </CellData>
      <Points>
        <DataArray type="Float32" Name="Points" NumberOfComponents="3" format="ascii" RangeMin="0.4000000059604645" RangeMax="1.0012492197622458">
          0.5 0 0 0.6000000238418579 0.05000000074505806 0
          0.6000000238418579 0 0 0.699999988079071 0.05000000074505806 0
          0.699999988079071 0 0 0.800000011920929 0.05000000074505806 0
          0.800000011920929 0 0 0.8999999761581421 0.05000000074505806 0
          0.8999999761581421 0 0 1 0.05000000074505806 0
          1 0 0 0.5 0.05000000074505806 0
          0.4000000059604645 0 0
          <InformationKey name="L2_NORM_RANGE" location="vtkDataArray" length="2">
            <Value index="0">
              0.40000000596
            </Value>
            <Value index="1">
              1.0012492198
            </Value>
          </InformationKey>
        </DataArray>
      </Points>
      <Cells>
        <DataArray type="Int64" Name="connectivity" format="ascii" RangeMin="0" RangeMax="12">
          0 11 12 1 11 0
          2 1 0 4 3 2
          3 1 2 6 5 4
          5 3 4 8 7 6
          7 5 6 10 9 8
          9 7 8
        </DataArray>
        <DataArray type="Int64" Name="offsets" format="ascii" RangeMin="3" RangeMax="33">
          3 6 9 12 15 18
          21 24 27 30 33
        </DataArray>
        <DataArray type="UInt8" Name="types" format="ascii" RangeMin="5" RangeMax="5">
          5 5 5 5 5 5
          5 5 5 5 5
        </DataArray>
      </Cells>
    </Piece>
  </UnstructuredGrid>
</VTKFile>
