<?xml version="1.0"?>
<VTKFile type="UnstructuredGrid" version="0.1" byte_order="LittleEndian" header_type="UInt32" compressor="vtkZLibDataCompressor">
  <UnstructuredGrid>
    <Piece NumberOfPoints="13" NumberOfCells="11">
      <PointData>
        <DataArray type="Float64" Name="Disp" NumberOfComponents="3" format="ascii" RangeMin="0.031142218604455922" RangeMax="0.12082577726518853">
          -0.0060360263562783635 -0.04448831533783115 0 0.00017334887655864265 -0.05968953089455634 0
          -0.007283720349237505 -0.05913116513181088 0 -0.0008974426027463194 -0.07483772070683628 0
          -0.008512448154310558 -0.07425444012139899 0 -0.002052568026839388 -0.090156219146176 0
          -0.009714190348934582 -0.08956559640921923 0 -0.003240868329091963 -0.1054838813499828 0
          -0.010886003776746884 -0.10489599790900571 0 -0.004429079957730769 -0.12074457214494148 0
          -0.012051932029362236 -0.12015942664707503 0 0.0010817493458334046 -0.04499640443016531 0
          -0.004793239797873264 -0.030771133093336105 0
          <InformationKey name="L2_NORM_RANGE" location="vtkDataArray" length="2">
            <Value index="0">
              0.031142218604
            </Value>
            <Value index="1">
              0.12082577727
            </Value>
          </InformationKey>
        </DataArray>
        <DataArray type="Float64" Name="Nodal Stress" NumberOfComponents="6" format="ascii" RangeMin="91.73379060708518" RangeMax="31953.07827625115">
          -20833.680055749726 -93.26592514112443 0 1777.4926863264238 0 0
          11989.869294875094 3242.2617140981547 0 -5988.194291371881 0 0
          -12355.575706208485 159.64015004408512 0 807.6986708058031 0 0
          6245.473225696722 2096.9655447890123 0 -3692.600188073206 0 0
          -6307.422141882124 268.13205376317126 0 198.86303702877098 0 0
          2667.5357461513145 1173.5399611265002 0 -1973.0791282930752 0 0
          -2592.0018743116725 218.01784649508375 0 -80.07430480041616 0 0
          857.4096206789594 489.86157479098995 0 -811.0999624580937 0 0
          -856.2330876115349 61.511446426460175 0 -74.42012311676106 0 0
          192.84514833133147 180.5130725463365 0 -342.3302931367589 0 0
          35.03623484048076 7.538762082265614 0 84.44357674574323 0 0
          20324.61366689675 4475.999034510526 0 -8680.96477568225 0 0
          -31818.599529794163 -614.2994389210431 0 2863.3147731531994 0 0
          <InformationKey name="L2_NORM_RANGE" location="vtkDataArray" length="2">
            <Value index="0">
              91.733790607
            </Value>
            <Value index="1">
              31953.078276
            </Value>
          </InformationKey>
        </DataArray>
        <DataArray type="Float64" Name="Nodal Strain" NumberOfComponents="6" format="ascii" RangeMin="0" RangeMax="0">
          0 0 0 0 0 0
          0 0 0 0 0 0
          0 0 0 0 0 0
          0 0 0 0 0 0
          0 0 0 0 0 0
          0 0 0 0 0 0
          0 0 0 0 0 0
          0 0 0 0 0 0
          0 0 0 0 0 0
          0 0 0 0 0 0
          0 0 0 0 0 0
          0 0 0 0 0 0
          0 0 0 0 0 0
          <InformationKey name="L2_NORM_RANGE" location="vtkDataArray" length="2">
            <Value index="0">
              0
            </Value>
            <Value index="1">
              0
            </Value>
          </InformationKey>
        </DataArray>
        <DataArray type="Float64" Name="Sld_traction" NumberOfComponents="3" format="ascii" RangeMin="45.74299585767242" RangeMax="11916.926142586784">
          -2581.959752049396 2511.9428636787948 0 -7089.328004161463 4403.718465013177 0
          -1355.518930583611 1360.0063220336367 0 -4509.585408907947 2736.8781675531395 0
          -572.0004601746728 593.3073576828857 0 -2474.629412528266 1468.8129498163514 0
          -116.28722984452348 196.7162705229783 0 -1057.6155827476894 623.4653518286299 0
          -56.16659081796121 99.52614150651189 0 -212.10751854914088 100.32250001311252 0
          37.725968912304346 25.868377213557142 0 -10069.51221092377 6373.229363668423 0
          -4277.192431433166 4099.811825764269 0
          <InformationKey name="L2_NORM_RANGE" location="vtkDataArray" length="2">
            <Value index="0">
              45.742995858
            </Value>
            <Value index="1">
              11916.926143
            </Value>
          </InformationKey>
        </DataArray>
        <DataArray type="Float64" Name="Velocity" NumberOfComponents="3" format="ascii" RangeMin="2.892740393501434" RangeMax="12.472192468839072">
          -0.8469085341127158 -4.190226159613545 0 -0.3209446607771218 -5.812111419055643 0
          -1.1003415109810444 -5.6949868612760035 0 -0.5479585007182324 -7.418804993860984 0
          -1.3628540170878076 -7.294059867447128 0 -0.7939071990801496 -9.074275139721507 0
          -1.6259363727624851 -8.946405374889842 0 -1.0500707232703435 -10.744972863267634 0
          -1.88248760703044 -10.617383933321534 0 -1.3081601583321438 -12.403398807581674 0
          -2.135654131219665 -12.276511180263732 0 -0.1247504814827628 -4.294235179357468 0
          -0.6136526820837935 -2.826902433754338 0
          <InformationKey name="L2_NORM_RANGE" location="vtkDataArray" length="2">
            <Value index="0">
              2.8927403935
            </Value>
            <Value index="1">
              12.472192469
            </Value>
          </InformationKey>
        </DataArray>
        <DataArray type="Float64" Name="Acceleration" NumberOfComponents="3" format="ascii" RangeMin="400.08094045280154" RangeMax="981.8437756031785">
          62.36249724642175 954.9972785072896 0 31.310097539373373 967.5460423052427 0
          16.555128221390987 981.7041954785964 0 16.51148600986801 886.3145167968978 0
          -41.564005703127805 907.8111983419876 0 -18.29791473265263 734.5365747581163 0
          -103.2051837860572 760.3894940188256 0 -68.71596245532533 551.3281465617329 0
          -157.99874589598494 577.7173298365378 0 -125.40614085876587 379.91848961127107 0
          -208.78264697197483 405.78863973253465 0 24.77431263768767 949.7154036204847 0
          89.51925355364074 821.1958316578603 0
          <InformationKey name="L2_NORM_RANGE" location="vtkDataArray" length="2">
            <Value index="0">
              400.08094045
            </Value>
            <Value index="1">
              981.8437756
            </Value>
          </InformationKey>
        </DataArray>
        <DataArray type="Float64" Name="Sigma" NumberOfComponents="6" format="ascii" RangeMin="578.651355222453" RangeMax="59992.7902270938">
          -26320.808577288746 26320.80857728211 0 10756.720175317349 0 0
          16459.569733832854 -16459.569733827535 0 -13095.624062833684 0 0
          -15171.462468807675 15171.462468801794 0 6241.74605460295 0 0
          8392.670152623936 -8392.670152624309 0 -7651.6312038406 0 0
          -7491.249408632368 7491.249408629434 0 3004.4124948240296 0 0
          3380.604498895409 -3380.6044988906942 0 -3784.8345197527806 0 0
          -2890.3726386636617 2890.372638660375 0 996.1131543086045 0 0
          1048.3988185329356 -1048.3988185472354 0 -1315.3117177087267 0 0
          -885.315572039859 885.315572052793 0 258.3373218040584 0 0
          86.13450449769394 -86.13450449496652 0 -565.6846163465335 0 0
          427.0880065305962 -427.08800653582983 0 322.56080076272394 0 0
          28238.85333151208 -28238.853331511917 0 -19582.733953451254 0 0
          -40888.50740869686 40888.50740869785 0 15981.076403355459 0 0
          <InformationKey name="L2_NORM_RANGE" location="vtkDataArray" length="2">
            <Value index="0">
              578.65135522
            </Value>
            <Value index="1">
              59992.790227
            </Value>
          </InformationKey>
        </DataArray>
        <DataArray type="Float64" Name="Press" format="ascii" RangeMin="-47169.797502637375" RangeMax="37570.862640246196">
          -30321.201143095397 22826.45230933075 -17438.338762585943 12280.064330895715 -8493.174134014063 5384.516541663559
          -3179.112707502924 1800.3336471022303 -1046.3542003259179 348.62966651538176 391.43726382671593 37570.862640246196
          -47169.797502637375
        </DataArray>
        <DataArray type="Float64" Name="Dev strain" NumberOfComponents="6" format="ascii" RangeMin="0" RangeMax="0">
          0 0 0 0 0 0
          0 0 0 0 0 0
          0 0 0 0 0 0
          0 0 0 0 0 0
          0 0 0 0 0 0
          0 0 0 0 0 0
          0 0 0 0 0 0
          0 0 0 0 0 0
          0 0 0 0 0 0
          0 0 0 0 0 0
          0 0 0 0 0 0
          0 0 0 0 0 0
          0 0 0 0 0 0
          <InformationKey name="L2_NORM_RANGE" location="vtkDataArray" length="2">
            <Value index="0">
              0
            </Value>
            <Value index="1">
              0
            </Value>
          </InformationKey>
        </DataArray>
        <DataArray type="Float64" Name="J2 Stresses" format="ascii" RangeMin="87418.92415760952" RangeMax="1735718738.8635697">
          721711721.3946221 313791278.2215862 239913121.89488846 85073777.3106446 58375441.31207652 15009729.863414008
          8602314.344372697 1531651.3114017171 800468.2050669368 87418.92415760952 208415.5328716862 893303704.7515594
          1735718738.8635697
        </DataArray>
      </PointData>
      <CellData>
        <DataArray type="UInt8" Name="vtkGhostType" format="ascii" RangeMin="0" RangeMax="1">
          1 1 0 0 0 0
          0 0 0 0 0
        </DataArray>
        <DataArray type="Float64" Name="Gauss Stress" NumberOfComponents="6" format="ascii" RangeMin="227.24478392426838" RangeMax="26406.698135072085">
          -26296.866219986703 -316.55778367284506 0 2385.020875073853 0 0
          16151.242764845909 3899.49977280807 0 -7307.212613655864 0 0
          -16655.262969538053 33.204571968594564 0 1300.9473890288727 0 0
          -9307.163430173467 206.19771970087595 0 531.5091151954598 0 0
          9116.318431763215 2662.466819996825 0 -4835.169737357112 0 0
          -4429.595949418017 237.74908284856218 0 71.89704312661809 0 0
          4484.4773271440645 1629.7938318865474 0 -2810.6844095897836 0 0
          -1717.474217632399 100.7187104797737 0 -20.287080532021264 0 0
          1848.1227200091835 822.3689341617705 0 -1368.011027717634 0 0
          -226.1267769984629 21.935263679392115 0 5.071168740082982 0 0
          450.6089547608216 284.4637874340951 0 -540.8863374170674 0 0
          <InformationKey name="L2_NORM_RANGE" location="vtkDataArray" length="2">
            <Value index="0">
              227.24478392
            </Value>
            <Value index="1">
              26406.698135
            </Value>
          </InformationKey>
        </DataArray>
        <DataArray type="Float64" Name="Gauss Strain" NumberOfComponents="6" format="ascii" RangeMin="0" RangeMax="0">
          0 0 0 0 0 0
          0 0 0 0 0 0
          0 0 0 0 0 0
          0 0 0 0 0 0
          0 0 0 0 0 0
          0 0 0 0 0 0
          0 0 0 0 0 0
          0 0 0 0 0 0
          0 0 0 0 0 0
          0 0 0 0 0 0
          0 0 0 0 0 0
          <InformationKey name="L2_NORM_RANGE" location="vtkDataArray" length="2">
            <Value index="0">
              0
            </Value>
            <Value index="1">
              0
            </Value>
          </InformationKey>
        </DataArray>
      </CellData>
      <Points>
        <DataArray type="Float32" Name="Points" NumberOfComponents="3" format="ascii" RangeMin="0.4000000059604645" RangeMax="1.0012492197622458">
          0.5 0 0 0.6000000238418579 0.05000000074505806 0
          0.6000000238418579 0 0 0.699999988079071 0.05000000074505806 0
          0.699999988079071 0 0 0.800000011920929 0.05000000074505806 0
          0.800000011920929 0 0 0.8999999761581421 0.05000000074505806 0
          0.8999999761581421 0 0 1 0.05000000074505806 0
          1 0 0 0.5 0.05000000074505806 0
          0.4000000059604645 0 0
          <InformationKey name="L2_NORM_RANGE" location="vtkDataArray" length="2">
            <Value index="0">
              0.40000000596
            </Value>
            <Value index="1">
              1.0012492198
            </Value>
          </InformationKey>
        </DataArray>
      </Points>
      <Cells>
        <DataArray type="Int64" Name="connectivity" format="ascii" RangeMin="0" RangeMax="12">
          0 11 12 1 11 0
          2 1 0 4 3 2
          3 1 2 6 5 4
          5 3 4 8 7 6
          7 5 6 10 9 8
          9 7 8
        </DataArray>
        <DataArray type="Int64" Name="offsets" format="ascii" RangeMin="3" RangeMax="33">
          3 6 9 12 15 18
          21 24 27 30 33
        </DataArray>
        <DataArray type="UInt8" Name="types" format="ascii" RangeMin="5" RangeMax="5">
          5 5 5 5 5 5
          5 5 5 5 5
        </DataArray>
      </Cells>
    </Piece>
  </UnstructuredGrid>
</VTKFile>
