<?xml version="1.0"?>
<VTKFile type="UnstructuredGrid" version="0.1" byte_order="LittleEndian" header_type="UInt32" compressor="vtkZLibDataCompressor">
  <UnstructuredGrid>
    <Piece NumberOfPoints="13" NumberOfCells="11">
      <PointData>
        <DataArray type="Float64" Name="Disp" NumberOfComponents="3" format="ascii" RangeMin="0.041077615518698866" RangeMax="0.16024019769598175">
          -0.008992152230789639 -0.058545653406966894 0 -0.0012573681567569811 -0.07884716931438804 0
          -0.011117198315801912 -0.07786592126855625 0 -0.0031632828602969117 -0.09891778247299936 0
          -0.013263509438602833 -0.09788642762557781 0 -0.0052078000461403245 -0.1192704564332841 0
          -0.015395237103395978 -0.11822116268503345 0 -0.0073136587994873875 -0.13966627198822545 0
          -0.017485034370894003 -0.13862089313086656 0 -0.009421823794357524 -0.15996296507015426 0
          -0.01955901952295058 -0.15892328471327222 0 0.0003950634426459885 -0.05943394479643033 0
          -0.006946683028121751 -0.040485974010870174 0
          <InformationKey name="L2_NORM_RANGE" location="vtkDataArray" length="2">
            <Value index="0">
              0.041077615519
            </Value>
            <Value index="1">
              0.1602401977
            </Value>
          </InformationKey>
        </DataArray>
        <DataArray type="Float64" Name="Nodal Stress" NumberOfComponents="6" format="ascii" RangeMin="331.7270220828779" RangeMax="44303.534929284506">
          -29290.064132670963 -654.8940353942456 0 4057.697904131822 0 0
          17050.403142649226 5299.105317204744 0 -9027.921675493495 0 0
          -17927.03780138343 -104.47029344448104 0 2235.3734367153224 0 0
          9202.471871201815 3564.826381332259 0 -5712.559534749026 0 0
          -9539.157502799702 259.1381034489128 0 912.2341594471736 0 0
          4053.2552934920523 2110.7363567441453 0 -3170.225890989881 0 0
          -4119.563162339763 330.1165073154895 0 139.23637073261798 0 0
          1311.324861046158 952.1880997986816 0 -1375.526248750235 0 0
          -1482.5900609650955 122.55586107062805 0 -51.4857683009931 0 0
          227.16073314832482 393.7616969912208 0 -616.4549656113662 0 0
          277.41507105598674 26.88974316688804 0 179.89062577965203 0 0
          28117.519938751713 7113.620132696443 0 -12911.642696684758 0 0
          -43880.5464836253 -1514.6048436186472 0 5916.656124570561 0 0
          <InformationKey name="L2_NORM_RANGE" location="vtkDataArray" length="2">
            <Value index="0">
              331.72702208
            </Value>
            <Value index="1">
              44303.534929
            </Value>
          </InformationKey>
        </DataArray>
        <DataArray type="Float64" Name="Nodal Strain" NumberOfComponents="6" format="ascii" RangeMin="0" RangeMax="0">
          0 0 0 0 0 0
          0 0 0 0 0 0
          0 0 0 0 0 0
          0 0 0 0 0 0
          0 0 0 0 0 0
          0 0 0 0 0 0
          0 0 0 0 0 0
          0 0 0 0 0 0
          0 0 0 0 0 0
          0 0 0 0 0 0
          0 0 0 0 0 0
          0 0 0 0 0 0
          0 0 0 0 0 0
          <InformationKey name="L2_NORM_RANGE" location="vtkDataArray" length="2">
            <Value index="0">
              0
            </Value>
            <Value index="1">
              0
            </Value>
          </InformationKey>
        </DataArray>
        <DataArray type="Float64" Name="Sld_traction" NumberOfComponents="3" format="ascii" RangeMin="73.32703352122451" RangeMax="15976.501332180993">
          -3561.0977392395826 3896.213290864709 0 -9450.361802339294 6588.443707322287 0
          -1989.0534631244436 2217.6193705087117 0 -6291.233906377303 4284.954886651108 0
          -929.646221310839 1014.6018748940079 0 -3683.074422793572 2438.420992132261 0
          -226.27851915188327 338.88354012541737 0 -1704.0751779790137 1116.1539494284918 0
          -119.4378024073509 165.18882012800606 0 -379.46980159254633 187.30444673076371 0
          67.77634502122042 27.98608405238704 0 -13050.024274312944 9216.5862040684 0
          -5644.2909291130545 6100.816379124129 0
          <InformationKey name="L2_NORM_RANGE" location="vtkDataArray" length="2">
            <Value index="0">
              73.327033521
            </Value>
            <Value index="1">
              15976.501332
            </Value>
          </InformationKey>
        </DataArray>
        <DataArray type="Float64" Name="Velocity" NumberOfComponents="3" format="ascii" RangeMin="0.4121283157698447" RangeMax="10.778169085119487">
          -0.378990882945315 0.44496064747227493 0 0.09013909011685906 -1.2807509128994994 0
          -0.8261608204515314 -1.0987008077746623 0 -0.226550263270747 -3.366625352959474 0
          -1.3384793653405014 -3.1405704712230715 0 -0.6553018380365805 -5.740536791537281 0
          -1.8714199102747555 -5.4916304049381495 0 -1.153755209686278 -8.219606761805046 0
          -2.378922029484716 -7.969618343986227 0 -1.66896946042427 -10.63563608427988 0
          -2.8676286662764587 -10.38968886251051 0 0.2532933488294149 0.3251034113910052 0
          -0.03731423186862415 1.3344166577751366 0
          <InformationKey name="L2_NORM_RANGE" location="vtkDataArray" length="2">
            <Value index="0">
              0.41212831577
            </Value>
            <Value index="1">
              10.778169085
            </Value>
          </InformationKey>
        </DataArray>
        <DataArray type="Float64" Name="Acceleration" NumberOfComponents="3" format="ascii" RangeMin="800.7400525089362" RangeMax="1166.5767945162904">
          132.53828487957526 1159.0233045737623 0 101.49900553892542 1135.8171960901382 0
          82.09084018949216 1159.4083415417845 0 45.2047532456063 1065.0604447939404 0
          4.498209213872542 1102.9883386137953 0 -38.12617169575833 964.6498977374868 0
          -88.95627844216506 1010.661376579621 0 -135.75672044189923 859.8169989138405 0
          -185.02447950582246 906.2939133410109 0 -229.8818267986826 767.0325790992938 0
          -275.84380221907304 811.9209144351917 0 119.07894668643718 1153.3757995596534 0
          155.7788261954056 1073.6960870686817 0
          <InformationKey name="L2_NORM_RANGE" location="vtkDataArray" length="2">
            <Value index="0">
              800.74005251
            </Value>
            <Value index="1">
              1166.5767945
            </Value>
          </InformationKey>
        </DataArray>
        <DataArray type="Float64" Name="Sigma" NumberOfComponents="6" format="ascii" RangeMin="1083.4938370855355" RangeMax="82488.6980001292">
          -36107.205575402084 36107.205575399355 0 18929.457339888784 0 0
          22611.120459199345 -22611.12045919604 0 -20970.53959012493 0 0
          -21477.656189495716 21477.656189496032 0 11548.18891676267 0 0
          11895.215079619124 -11895.215079622298 0 -12665.152812554206 0 0
          -11066.334324301877 11066.33432431224 0 5939.522071362637 0 0
          4887.059845612606 -4887.059845623515 0 -6530.074198952429 0 0
          -4500.770470206742 4500.770470206576 0 2167.2292829611765 0 0
          1564.6731740425425 -1564.673174044516 0 -2404.0792945475937 0 0
          -1532.9471713023993 1532.9471713032963 0 597.1019481147933 0 0
          -52.02810584019038 52.028105846105206 0 -1080.9926213471974 0 0
          1043.012966462602 -1043.0129664615908 0 601.726588175506 0 0
          37957.79138234357 -37957.79138234254 0 -30691.88264852833 0 0
          -55099.12360439655 55099.123604397355 0 27065.817072671067 0 0
          <InformationKey name="L2_NORM_RANGE" location="vtkDataArray" length="2">
            <Value index="0">
              1083.4938371
            </Value>
            <Value index="1">
              82488.698
            </Value>
          </InformationKey>
        </DataArray>
        <DataArray type="Float64" Name="Press" format="ascii" RangeMin="-66155.04574238134" RangeMax="53355.11797687426">
          -43589.13340251321 33486.869175228996 -26014.971539671216 18819.606718826355 -13243.165877312378 8654.519684806684
          -5183.561863473452 3080.2267595742214 -1864.1449526297947 541.63227616901 965.5611524510585 53355.11797687426
          -66155.04574238134
        </DataArray>
        <DataArray type="Float64" Name="Dev strain" NumberOfComponents="6" format="ascii" RangeMin="0" RangeMax="0">
          0 0 0 0 0 0
          0 0 0 0 0 0
          0 0 0 0 0 0
          0 0 0 0 0 0
          0 0 0 0 0 0
          0 0 0 0 0 0
          0 0 0 0 0 0
          0 0 0 0 0 0
          0 0 0 0 0 0
          0 0 0 0 0 0
          0 0 0 0 0 0
          0 0 0 0 0 0
          0 0 0 0 0 0
          <InformationKey name="L2_NORM_RANGE" location="vtkDataArray" length="2">
            <Value index="0">
              0
            </Value>
            <Value index="1">
              0
            </Value>
          </InformationKey>
        </DataArray>
        <DataArray type="Float64" Name="J2 Stresses" format="ascii" RangeMin="294843.1856493972" RangeMax="3219053035.425437">
          1393311383.2599158 621203651.0955977 494629882.20850027 181597665.73177338 131283235.98638755 34543821.19560848
          21431155.516715366 3893101.455189567 2439059.714116023 294843.1856493972 1178394.7699373958 1676291841.7532353
          3219053035.425437
        </DataArray>
      </PointData>
      <CellData>
        <DataArray type="UInt8" Name="vtkGhostType" format="ascii" RangeMin="0" RangeMax="1">
          1 1 0 0 0 0
          0 0 0 0 0
        </DataArray>
        <DataArray type="Float64" Name="Gauss Stress" NumberOfComponents="6" format="ascii" RangeMin="308.42978243467087" RangeMax="36915.007176303574">
          -36545.86632182512 -1046.8411235220374 0 5101.130588010508 0 0
          22571.520005243634 6263.71582781694 0 -10910.988299588162 0 0
          -23696.9923575513 -381.1648204186981 0 3169.0355555088427 0 0
          -13695.768710778571 70.08157867624595 0 1607.5193918570349 0 0
          13106.727901235627 4420.941668353942 0 -7362.501161972157 0 0
          -6817.4176682917205 302.612297638718 0 525.559051790462 0 0
          6648.967042416838 2838.33997512903 0 -4418.568313381333 0 0
          -2812.1748413318746 167.18813697877707 0 120.08397884279191 0 0
          2834.049043451954 1533.4073438153332 0 -2255.6414035129483 0 0
          -299.63794489657084 61.67026222602816 0 39.27863831436741 0 0
          579.13732667113 592.6720620727742 0 -962.6566559266657 0 0
          <InformationKey name="L2_NORM_RANGE" location="vtkDataArray" length="2">
            <Value index="0">
              308.42978243
            </Value>
            <Value index="1">
              36915.007176
            </Value>
          </InformationKey>
        </DataArray>
        <DataArray type="Float64" Name="Gauss Strain" NumberOfComponents="6" format="ascii" RangeMin="0" RangeMax="0">
          0 0 0 0 0 0
          0 0 0 0 0 0
          0 0 0 0 0 0
          0 0 0 0 0 0
          0 0 0 0 0 0
          0 0 0 0 0 0
          0 0 0 0 0 0
          0 0 0 0 0 0
          0 0 0 0 0 0
          0 0 0 0 0 0
          0 0 0 0 0 0
          <InformationKey name="L2_NORM_RANGE" location="vtkDataArray" length="2">
            <Value index="0">
              0
            </Value>
            <Value index="1">
              0
            </Value>
          </InformationKey>
        </DataArray>
      </CellData>
      <Points>
        <DataArray type="Float32" Name="Points" NumberOfComponents="3" format="ascii" RangeMin="0.4000000059604645" RangeMax="1.0012492197622458">
          0.5 0 0 0.6000000238418579 0.05000000074505806 0
          0.6000000238418579 0 0 0.699999988079071 0.05000000074505806 0
          0.699999988079071 0 0 0.800000011920929 0.05000000074505806 0
          0.800000011920929 0 0 0.8999999761581421 0.05000000074505806 0
          0.8999999761581421 0 0 1 0.05000000074505806 0
          1 0 0 0.5 0.05000000074505806 0
          0.4000000059604645 0 0
          <InformationKey name="L2_NORM_RANGE" location="vtkDataArray" length="2">
            <Value index="0">
              0.40000000596
            </Value>
            <Value index="1">
              1.0012492198
            </Value>
          </InformationKey>
        </DataArray>
      </Points>
      <Cells>
        <DataArray type="Int64" Name="connectivity" format="ascii" RangeMin="0" RangeMax="12">
          0 11 12 1 11 0
          2 1 0 4 3 2
          3 1 2 6 5 4
          5 3 4 8 7 6
          7 5 6 10 9 8
          9 7 8
        </DataArray>
        <DataArray type="Int64" Name="offsets" format="ascii" RangeMin="3" RangeMax="33">
          3 6 9 12 15 18
          21 24 27 30 33
        </DataArray>
        <DataArray type="UInt8" Name="types" format="ascii" RangeMin="5" RangeMax="5">
          5 5 5 5 5 5
          5 5 5 5 5
        </DataArray>
      </Cells>
    </Piece>
  </UnstructuredGrid>
</VTKFile>
