<?xml version="1.0"?>
<VTKFile type="UnstructuredGrid" version="0.1" byte_order="LittleEndian" header_type="UInt32" compressor="vtkZLibDataCompressor">
  <UnstructuredGrid>
    <Piece NumberOfPoints="13" NumberOfCells="11">
      <PointData>
        <DataArray type="Float64" Name="Disp" NumberOfComponents="3" format="ascii" RangeMin="0.001795897547851703" RangeMax="0.02044815291541997">
          -0.0005611156499674008 -0.003638276655765369 0 0.0006939118747517546 -0.006242742478476885 0
          -0.0007525064728656856 -0.006220387780143537 0 0.0007738518596609311 -0.009421987193452311 0
          -0.0009215765033896889 -0.009392358857215835 0 0.0007884964470011739 -0.012998652337699241 0
          -0.0010520550511864473 -0.012964460522609285 0 0.0007399419138261419 -0.016746829074476218 0
          -0.0011232887681480166 -0.016712557690187646 0 0.0006487829570607447 -0.020437857968168428 0
          -0.0011827464863831902 -0.02040336301507981 0 0.0005591152672575548 -0.003653014745859088 0
          -0.0003688194839470202 -0.0017576177601062223 0
          <InformationKey name="L2_NORM_RANGE" location="vtkDataArray" length="2">
            <Value index="0">
              0.0017958975479
            </Value>
            <Value index="1">
              0.020448152915
            </Value>
          </InformationKey>
        </DataArray>
        <DataArray type="Float64" Name="Nodal Stress" NumberOfComponents="6" format="ascii" RangeMin="664.9343558959159" RangeMax="11350.425568678047">
          -9177.599954796371 -408.464324546978 0 641.4378663055995 0 0
          9550.703329437945 770.0413788691387 0 -1809.7303160840352 0 0
          -7776.732674451807 -151.4205247313377 0 195.15777187911806 0 0
          6911.980216166857 812.6198740438688 0 -1933.481114521115 0 0
          -5484.311749012559 97.29029821265581 0 -190.39299008102765 0 0
          4030.429965331432 736.0510567202548 0 -1668.1236107975685 0 0
          -3118.3518159178834 213.39819594375095 0 -435.4915576051212 0 0
          1754.2274005215986 457.96691033172084 0 -1008.3102620283506 0 0
          -1427.6293303958134 106.85510035039287 0 -282.3340836701041 0 0
          715.2567889157451 213.63646994155303 0 -600.2035920650383 0 0
          -656.9004959909983 -38.39804739280553 0 -95.62962916333484 0 0
          11254.048030372463 611.1510913412636 0 -1343.5244187294827 0 0
          -9383.321905697365 -623.1581708412153 0 1021.9547176543397 0 0
          <InformationKey name="L2_NORM_RANGE" location="vtkDataArray" length="2">
            <Value index="0">
              664.9343559
            </Value>
            <Value index="1">
              11350.425569
            </Value>
          </InformationKey>
        </DataArray>
        <DataArray type="Float64" Name="Nodal Strain" NumberOfComponents="6" format="ascii" RangeMin="0" RangeMax="0">
          0 0 0 0 0 0
          0 0 0 0 0 0
          0 0 0 0 0 0
          0 0 0 0 0 0
          0 0 0 0 0 0
          0 0 0 0 0 0
          0 0 0 0 0 0
          0 0 0 0 0 0
          0 0 0 0 0 0
          0 0 0 0 0 0
          0 0 0 0 0 0
          0 0 0 0 0 0
          0 0 0 0 0 0
          <InformationKey name="L2_NORM_RANGE" location="vtkDataArray" length="2">
            <Value index="0">
              0
            </Value>
            <Value index="1">
              0
            </Value>
          </InformationKey>
        </DataArray>
        <DataArray type="Float64" Name="Sld_traction" NumberOfComponents="3" format="ascii" RangeMin="63.951737952568585" RangeMax="3635.1443875218265">
          -2236.2402042242543 1448.4951804091988 0 -3216.8713055204375 1692.9305130012488 0
          -1623.9875414283363 1037.3080633374868 0 -3141.831981814654 1510.1519059365808 0
          -903.3801779328777 555.1872288248597 0 -2492.6354711571353 1167.1783734705016 0
          -196.22592342331595 184.63526236473456 0 -1466.4428508622877 687.881079401986 0
          -55.79062179127686 102.92007386676701 0 -257.02034749475104 90.54623991813561 0
          45.88757026214914 44.54386245702462 0 -2798.5363497236376 1658.8971221878096 0
          -2586.1163003421966 1693.2438222336639 0
          <InformationKey name="L2_NORM_RANGE" location="vtkDataArray" length="2">
            <Value index="0">
              63.951737953
            </Value>
            <Value index="1">
              3635.1443875
            </Value>
          </InformationKey>
        </DataArray>
        <DataArray type="Float64" Name="Velocity" NumberOfComponents="3" format="ascii" RangeMin="3.7801721106371753" RangeMax="17.160495526990655">
          -0.5701052238488539 -5.629184241411206 0 0.42226762062220213 -7.770365578670121 0
          -0.6762161550459276 -7.738223593229515 0 0.37522512120054075 -10.04568641930048 0
          -0.783736099598743 -10.004679206569868 0 0.2987059338932483 -12.406269583629683 0
          -0.8891025084354349 -12.359907637754969 0 0.20321781295326014 -14.793502457440916 0
          -0.9853048048433533 -14.74623296758714 0 0.10232791320793769 -17.160190433967937 0
          -1.0777307925695374 -17.11334482001626 0 0.4315983158314344 -5.650738750914124 0
          -0.46631903619186477 -3.751299473852255 0
          <InformationKey name="L2_NORM_RANGE" location="vtkDataArray" length="2">
            <Value index="0">
              3.7801721106
            </Value>
            <Value index="1">
              17.160495527
            </Value>
          </InformationKey>
        </DataArray>
        <DataArray type="Float64" Name="Acceleration" NumberOfComponents="3" format="ascii" RangeMin="182.7061561572992" RangeMax="1045.8006756078325">
          -63.00762490481304 -562.637106012593 0 -176.28397498661275 -445.28217858303105 0
          -73.94187474660748 -421.59977348141183 0 -252.92639942032633 -180.68325604778147 0
          -95.92081607893203 -155.50156443112428 0 -320.6080079834553 174.5044316239655 0
          -130.2085200067628 199.95957169038593 0 -375.9361925827377 571.3495874745131 0
          -179.33023707669702 596.5739522325639 0 -420.5838228082598 957.5010710666538 0
          -230.80331401572994 982.1248926185508 0 -98.36047582341553 -582.9493131627532 0
          -59.964967244628724 -566.8684800026604 0
          <InformationKey name="L2_NORM_RANGE" location="vtkDataArray" length="2">
            <Value index="0">
              182.70615616
            </Value>
            <Value index="1">
              1045.8006756
            </Value>
          </InformationKey>
        </DataArray>
        <DataArray type="Float64" Name="Sigma" NumberOfComponents="6" format="ascii" RangeMin="276.1301036911161" RangeMax="21972.227966948158">
          -13912.550687187766 13912.550687187979 0 2949.7722687243845 0 0
          13116.668217849923 -13116.668217850573 0 -4123.004959427881 0 0
          -11530.62157376036 11530.621573760802 0 2341.9738604167164 0 0
          9491.38475936159 -9491.384759362345 0 -3951.045334726694 0 0
          -7911.9188825730025 7911.918882572626 0 1499.8385231632979 0 0
          5387.082338604193 -5387.082338604699 0 -3047.8938662248406 0 0
          -4262.708386144746 4262.708386144262 0 377.9707656103103 0 0
          2291.3882576774895 -2291.38825767827 0 -1531.4834728029437 0 0
          -1863.4497943804065 1863.4497943811036 0 166.27112079332463 0 0
          894.0344094547584 -894.0344094539632 0 -951.0122654825354 0 0
          -133.7947561353728 133.79475613461815 0 201.11131401793565 0 0
          15326.961224160159 -15326.961224161121 0 -3598.2386104441634 0 0
          -14556.923727068062 14556.923727067327 0 3113.9208661505445 0 0
          <InformationKey name="L2_NORM_RANGE" location="vtkDataArray" length="2">
            <Value index="0">
              276.13010369
            </Value>
            <Value index="1">
              21972.227967
            </Value>
          </InformationKey>
        </DataArray>
        <DataArray type="Float64" Name="Press" format="ascii" RangeMin="-16339.397630447207" RangeMax="17099.62049101433">
          -15455.584929413657 14970.714381541462 -12652.262666192586 11158.118000111099 -8502.855896988649 6705.606741014328
          -4401.062016347619 3003.3598764678845 -1943.0655807869123 1235.0266135249788 -341.27905975283255 17099.62049101433
          -16339.397630447207
        </DataArray>
        <DataArray type="Float64" Name="Dev strain" NumberOfComponents="6" format="ascii" RangeMin="0" RangeMax="0">
          0 0 0 0 0 0
          0 0 0 0 0 0
          0 0 0 0 0 0
          0 0 0 0 0 0
          0 0 0 0 0 0
          0 0 0 0 0 0
          0 0 0 0 0 0
          0 0 0 0 0 0
          0 0 0 0 0 0
          0 0 0 0 0 0
          0 0 0 0 0 0
          0 0 0 0 0 0
          0 0 0 0 0 0
          <InformationKey name="L2_NORM_RANGE" location="vtkDataArray" length="2">
            <Value index="0">
              0
            </Value>
            <Value index="1">
              0
            </Value>
          </InformationKey>
        </DataArray>
        <DataArray type="Float64" Name="J2 Stresses" format="ascii" RangeMin="28012.476925728093" RangeMax="238152570.64134666">
          195734355.73290557 176296777.61102957 134326444.26799178 93989074.45951505 63160839.303303406 31343070.3778467
          18206398.2602207 5836820.554291211 3479356.6575801456 1025403.6075629637 28012.476925728093 238152570.64134666
          214328154.18582836
        </DataArray>
      </PointData>
      <CellData>
        <DataArray type="UInt8" Name="vtkGhostType" format="ascii" RangeMin="0" RangeMax="1">
          1 1 0 0 0 0
          0 0 0 0 0
        </DataArray>
        <DataArray type="Float64" Name="Gauss Stress" NumberOfComponents="6" format="ascii" RangeMin="743.6326492716935" RangeMax="10526.006255838976">
          -9279.291752980736 -517.6162929174479 0 821.8181748102554 0 0
          10381.94289932149 694.5570627728083 0 -1590.4904337158866 0 0
          -8487.879085720997 -270.2097236555237 0 389.58038990440707 0 0
          -6649.385420013969 -15.281622033017982 0 -36.41098371555961 0 0
          8184.667039637045 799.7127706692871 0 -1910.692144579287 0 0
          -4328.618700811832 196.41125259674942 0 -390.02819248374396 0 0
          5442.472353176522 798.1068762474538 0 -1833.033559262746 0 0
          -2391.845881171437 164.66740072681614 0 -329.0805287997695 0 0
          2907.8889370905104 630.7141303319618 0 -1400.4688578058249 0 0
          -717.5093893585956 17.964038015664098 0 -194.54327689042498 0 0
          1205.764593985931 324.4493454849407 0 -772.0748724973847 0 0
          <InformationKey name="L2_NORM_RANGE" location="vtkDataArray" length="2">
            <Value index="0">
              743.63264927
            </Value>
            <Value index="1">
              10526.006256
            </Value>
          </InformationKey>
        </DataArray>
        <DataArray type="Float64" Name="Gauss Strain" NumberOfComponents="6" format="ascii" RangeMin="0" RangeMax="0">
          0 0 0 0 0 0
          0 0 0 0 0 0
          0 0 0 0 0 0
          0 0 0 0 0 0
          0 0 0 0 0 0
          0 0 0 0 0 0
          0 0 0 0 0 0
          0 0 0 0 0 0
          0 0 0 0 0 0
          0 0 0 0 0 0
          0 0 0 0 0 0
          <InformationKey name="L2_NORM_RANGE" location="vtkDataArray" length="2">
            <Value index="0">
              0
            </Value>
            <Value index="1">
              0
            </Value>
          </InformationKey>
        </DataArray>
      </CellData>
      <Points>
        <DataArray type="Float32" Name="Points" NumberOfComponents="3" format="ascii" RangeMin="0.4000000059604645" RangeMax="1.0012492197622458">
          0.5 0 0 0.6000000238418579 0.05000000074505806 0
          0.6000000238418579 0 0 0.699999988079071 0.05000000074505806 0
          0.699999988079071 0 0 0.800000011920929 0.05000000074505806 0
          0.800000011920929 0 0 0.8999999761581421 0.05000000074505806 0
          0.8999999761581421 0 0 1 0.05000000074505806 0
          1 0 0 0.5 0.05000000074505806 0
          0.4000000059604645 0 0
          <InformationKey name="L2_NORM_RANGE" location="vtkDataArray" length="2">
            <Value index="0">
              0.40000000596
            </Value>
            <Value index="1">
              1.0012492198
            </Value>
          </InformationKey>
        </DataArray>
      </Points>
      <Cells>
        <DataArray type="Int64" Name="connectivity" format="ascii" RangeMin="0" RangeMax="12">
          0 11 12 1 11 0
          2 1 0 4 3 2
          3 1 2 6 5 4
          5 3 4 8 7 6
          7 5 6 10 9 8
          9 7 8
        </DataArray>
        <DataArray type="Int64" Name="offsets" format="ascii" RangeMin="3" RangeMax="33">
          3 6 9 12 15 18
          21 24 27 30 33
        </DataArray>
        <DataArray type="UInt8" Name="types" format="ascii" RangeMin="5" RangeMax="5">
          5 5 5 5 5 5
          5 5 5 5 5
        </DataArray>
      </Cells>
    </Piece>
  </UnstructuredGrid>
</VTKFile>
