<?xml version="1.0"?>
<VTKFile type="UnstructuredGrid" version="0.1" byte_order="LittleEndian" header_type="UInt32" compressor="vtkZLibDataCompressor">
  <UnstructuredGrid>
    <Piece NumberOfPoints="13" NumberOfCells="11">
      <PointData>
        <DataArray type="Float64" Name="Disp" NumberOfComponents="3" format="ascii" RangeMin="0" RangeMax="0.038783611233270114">
          0 0 0 0 0 0
          0.0006210785480515259 -0.0012044339043449997 0 -0.0007225844382653128 -0.0011876408278149776 0
          0.0012015192041921067 -0.005374476572991189 0 -0.0014325925707135442 -0.0053116956240241014 0
          0.0014717477678208473 -0.011672312983039054 0 -0.002086750201868743 -0.011545715124760115 0
          0.001520489874480207 -0.019620449456319515 0 -0.002754883288005261 -0.019438943819089304 0
          0.0013623153228860875 -0.028778994178583317 0 -0.0034234182534155673 -0.028549614294574376 0
          0.00103652655508479 -0.03876975771131463 0
          <InformationKey name="L2_NORM_RANGE" location="vtkDataArray" length="2">
            <Value index="0">
              0
            </Value>
            <Value index="1">
              0.038783611233
            </Value>
          </InformationKey>
        </DataArray>
        <DataArray type="Float64" Name="Nodal Stress" NumberOfComponents="6" format="ascii" RangeMin="12164.086203967532" RangeMax="71251.56943405265">
          68767.10248264768 1790.0429775818523 0 -18565.22310921869 0 0
          -34463.56228947064 -2462.3421116585964 0 -743.62831881459 0 0
          48397.54662092562 3597.185972740069 0 -6671.549347237857 0 0
          -43726.10014632994 -1201.0576956386442 0 2563.898179641123 0 0
          37807.382846573244 3248.3779413365746 0 -8625.498952899605 0 0
          -37405.98689068037 -1401.36291015591 0 2026.8135133576272 0 0
          31227.205244343037 3308.018058886384 0 -7574.600277327028 0 0
          -29723.43882823983 -862.5316948629364 0 2064.003072492824 0 0
          23518.282321196635 2975.1293840629546 0 -6782.393428845951 0 0
          -22734.055367280445 -550.4687524998302 0 1528.9086223112809 0 0
          16986.715033269946 2576.7545427007312 0 -5550.374847469354 0 0
          -16246.53178364012 -198.3934293181138 0 985.3349585907497 0 0
          11196.409849281137 2055.773741573141 0 -4287.0962186463685 0 0
          <InformationKey name="L2_NORM_RANGE" location="vtkDataArray" length="2">
            <Value index="0">
              12164.086204
            </Value>
            <Value index="1">
              71251.569434
            </Value>
          </InformationKey>
        </DataArray>
        <DataArray type="Float64" Name="Nodal Strain" NumberOfComponents="6" format="ascii" RangeMin="0" RangeMax="0">
          0 0 0 0 0 0
          0 0 0 0 0 0
          0 0 0 0 0 0
          0 0 0 0 0 0
          0 0 0 0 0 0
          0 0 0 0 0 0
          0 0 0 0 0 0
          0 0 0 0 0 0
          0 0 0 0 0 0
          0 0 0 0 0 0
          0 0 0 0 0 0
          0 0 0 0 0 0
          0 0 0 0 0 0
          <InformationKey name="L2_NORM_RANGE" location="vtkDataArray" length="2">
            <Value index="0">
              0
            </Value>
            <Value index="1">
              0
            </Value>
          </InformationKey>
        </DataArray>
        <DataArray type="Float64" Name="Sld_traction" NumberOfComponents="3" format="ascii" RangeMin="3192.8963508090997" RangeMax="33607.65611071144">
          -31932.968963949446 10476.642706672845 0 10722.099569760816 7210.2822902250955 0
          -13318.2681041206 8347.953232529391 0 -8403.950081805942 6142.984400577516 0
          -12500.22466797987 7008.674325208795 0 -6812.415982245907 5224.722745344191 0
          -10710.817174344285 6388.594575460031 0 -5120.25641758208 4151.04199196602 0
          -8993.212048372548 5351.498753950361 0 -3660.3812854926173 3070.347609751208 0
          -7242.5647107842415 4297.974182814606 0 -2431.728886248732 2069.1258373510213 0
          -5562.764384867865 3215.2883584305146 0
          <InformationKey name="L2_NORM_RANGE" location="vtkDataArray" length="2">
            <Value index="0">
              3192.8963508
            </Value>
            <Value index="1">
              33607.656111
            </Value>
          </InformationKey>
        </DataArray>
        <DataArray type="Float64" Name="Velocity" NumberOfComponents="3" format="ascii" RangeMin="0" RangeMax="8.020391787978896">
          0 0 0 0 0 0
          0.1668301934424992 -0.3475404651792876 0 -0.20840545632690177 -0.34069001763807405 0
          0.276430434227396 -1.4778189055389197 0 -0.394832564389701 -1.4457372691082002 0
          0.24937595927378786 -2.99817532360516 0 -0.5531065897065917 -2.9415298138779953 0
          0.13906402987596833 -4.688739118888647 0 -0.7094493356039442 -4.616398020476673 0
          -0.025542342286606234 -6.392443627225383 0 -0.857171388010321 -6.31193106896918 0
          -0.21397041853013943 -8.01753709643263 0
          <InformationKey name="L2_NORM_RANGE" location="vtkDataArray" length="2">
            <Value index="0">
              0
            </Value>
            <Value index="1">
              8.020391788
            </Value>
          </InformationKey>
        </DataArray>
        <DataArray type="Float64" Name="Acceleration" NumberOfComponents="3" format="ascii" RangeMin="0" RangeMax="428.7797526674188">
          0 0 0 0 0 0
          -8.372973621635623 16.529407919644427 0 12.34468622502095 18.96673901300693 0
          -32.59810307169653 79.49067409431177 0 4.822803792703439 87.89849820944391 0
          -55.38448180215437 158.20968504459552 0 -12.922163774921728 169.9659206735064 0
          -81.29176443091148 247.2821210105849 0 -36.63336831163883 259.03082934439044 0
          -101.93310613467372 335.3859362730327 0 -60.85534062878014 345.27936771598615 0
          -116.38813822857742 412.6813269063896 0
          <InformationKey name="L2_NORM_RANGE" location="vtkDataArray" length="2">
            <Value index="0">
              0
            </Value>
            <Value index="1">
              428.77975267
            </Value>
          </InformationKey>
        </DataArray>
        <DataArray type="Float64" Name="Sigma" NumberOfComponents="6" format="ascii" RangeMin="23891.685124982137" RangeMax="100847.31752496996">
          66407.25768782038 -66407.25768782166 0 -36746.88700759266 0 0
          -66934.14375906975 66934.14375906915 0 10363.09406889655 0 0
          68073.7473935586 -68073.74739355948 0 -11130.21249058597 0 0
          -63698.52912689507 63698.5291268942 0 11933.47525602549 0 0
          54079.90196217422 -54079.90196217504 0 -20764.699627036756 0 0
          -51401.20305686996 51401.20305687003 0 12841.206142883473 0 0
          44093.65431818697 -44093.654318187015 0 -17132.476483128525 0 0
          -40967.24936070032 40967.249360701215 0 11340.585306675692 0 0
          33077.80489623967 -33077.804896239075 0 -15519.805259305775 0 0
          -30717.834609484402 30717.83460948269 0 9329.654325942221 0 0
          23754.33807992212 -23754.33807992272 0 -12365.330428458203 0 0
          -21722.153550597013 21722.153550598687 0 6886.346678394384 0 0
          15573.807716816413 -15573.807716817575 0 -9258.814422511963 0 0
          <InformationKey name="L2_NORM_RANGE" location="vtkDataArray" length="2">
            <Value index="0">
              23891.685125
            </Value>
            <Value index="1">
              100847.31752
            </Value>
          </InformationKey>
        </DataArray>
        <DataArray type="Float64" Name="Press" format="ascii" RangeMin="-76466.56005313683" RangeMax="78612.92613641564">
          69483.96241859111 -76466.56005313683 78612.92613641564 -69482.28435568497 61448.28518653291 -57543.34587709117
          52053.87440158573 -45893.674524853915 39708.23707499484 -34612.547120799114 29305.171953078694 -24433.590237377866
          19743.897865140967
        </DataArray>
        <DataArray type="Float64" Name="Dev strain" NumberOfComponents="6" format="ascii" RangeMin="0" RangeMax="0">
          0 0 0 0 0 0
          0 0 0 0 0 0
          0 0 0 0 0 0
          0 0 0 0 0 0
          0 0 0 0 0 0
          0 0 0 0 0 0
          0 0 0 0 0 0
          0 0 0 0 0 0
          0 0 0 0 0 0
          0 0 0 0 0 0
          0 0 0 0 0 0
          0 0 0 0 0 0
          0 0 0 0 0 0
          <InformationKey name="L2_NORM_RANGE" location="vtkDataArray" length="2">
            <Value index="0">
              0
            </Value>
            <Value index="1">
              0
            </Value>
          </InformationKey>
        </DataArray>
        <DataArray type="Float64" Name="J2 Stresses" format="ascii" RangeMin="263974897.92801747" RangeMax="4747507299.803862">
          4747507299.803862 4507028030.429974 4665005491.723484 4093104570.8513865 3032428983.8886843 2683307819.494589
          2017630788.7430081 1710467738.9563336 1154357265.5753713 965345975.5559781 602493926.7664909 483707397.5195092
          263974897.92801747
        </DataArray>
      </PointData>
      <CellData>
        <DataArray type="UInt8" Name="vtkGhostType" format="ascii" RangeMin="0" RangeMax="0">
          0 0 0 0 0 0
          0 0 0 0 0
        </DataArray>
        <DataArray type="Float64" Name="Gauss Stress" NumberOfComponents="6" format="ascii" RangeMin="15088.583951332384" RangeMax="48067.3895864619">
          -43298.28125493748 -1592.3309266674214 0 3722.1189447786905 0 0
          46392.396608059746 1361.1557265193187 0 -12504.668476427361 0 0
          -42199.058422611364 -1519.171608218013 0 1336.6605906240702 0 0
          43011.34906536712 4041.268912807757 0 -6653.812287199081 0 0
          -33219.314699914234 -1036.115966991708 0 2349.7716554768813 0 0
          34243.72231150623 3062.1534958451416 0 -8351.989989093938 0 0
          -26468.421214867747 -730.2351655711241 0 1716.8114577707142 0 0
          27357.548935151 3221.4090326672563 0 -7103.898811919537 0 0
          -19475.538495085864 -351.7717749798778 0 1283.5568586261343 0 0
          20171.72342465061 2762.18451353177 0 -6185.160453940588 0 0
          14073.823942327774 2336.495778233397 0 -4912.599390858595 0 0
          <InformationKey name="L2_NORM_RANGE" location="vtkDataArray" length="2">
            <Value index="0">
              15088.583951
            </Value>
            <Value index="1">
              48067.389586
            </Value>
          </InformationKey>
        </DataArray>
        <DataArray type="Float64" Name="Gauss Strain" NumberOfComponents="6" format="ascii" RangeMin="0" RangeMax="0">
          0 0 0 0 0 0
          0 0 0 0 0 0
          0 0 0 0 0 0
          0 0 0 0 0 0
          0 0 0 0 0 0
          0 0 0 0 0 0
          0 0 0 0 0 0
          0 0 0 0 0 0
          0 0 0 0 0 0
          0 0 0 0 0 0
          0 0 0 0 0 0
          <InformationKey name="L2_NORM_RANGE" location="vtkDataArray" length="2">
            <Value index="0">
              0
            </Value>
            <Value index="1">
              0
            </Value>
          </InformationKey>
        </DataArray>
      </CellData>
      <Points>
        <DataArray type="Float32" Name="Points" NumberOfComponents="3" format="ascii" RangeMin="0" RangeMax="0.6020797527609908">
          0 0.05000000074505806 0 0 0 0
          0.10000000149011612 0.05000000074505806 0 0.10000000149011612 0 0
          0.20000000298023224 0.05000000074505806 0 0.20000000298023224 0 0
          0.30000001192092896 0.05000000074505806 0 0.30000001192092896 0 0
          0.4000000059604645 0.05000000074505806 0 0.4000000059604645 0 0
          0.5 0.05000000074505806 0 0.5 0 0
          0.6000000238418579 0.05000000074505806 0
          <InformationKey name="L2_NORM_RANGE" location="vtkDataArray" length="2">
            <Value index="0">
              0
            </Value>
            <Value index="1">
              0.60207975276
            </Value>
          </InformationKey>
        </DataArray>
      </Points>
      <Cells>
        <DataArray type="Int64" Name="connectivity" format="ascii" RangeMin="0" RangeMax="12">
          3 2 1 2 0 1
          5 4 3 4 2 3
          7 6 5 6 4 5
          9 8 7 8 6 7
          11 10 9 10 8 9
          12 10 11
        </DataArray>
        <DataArray type="Int64" Name="offsets" format="ascii" RangeMin="3" RangeMax="33">
          3 6 9 12 15 18
          21 24 27 30 33
        </DataArray>
        <DataArray type="UInt8" Name="types" format="ascii" RangeMin="5" RangeMax="5">
          5 5 5 5 5 5
          5 5 5 5 5
        </DataArray>
      </Cells>
    </Piece>
  </UnstructuredGrid>
</VTKFile>
