<?xml version="1.0"?>
<VTKFile type="UnstructuredGrid" version="0.1" byte_order="LittleEndian" header_type="UInt32" compressor="vtkZLibDataCompressor">
  <UnstructuredGrid>
    <Piece NumberOfPoints="13" NumberOfCells="11">
      <PointData>
        <DataArray type="Float64" Name="Disp" NumberOfComponents="3" format="ascii" RangeMin="0" RangeMax="0.08534009648843506">
          0 0 0 0 0 0
          -0.001138570521631936 0.002136504031326001 0 0.0013834134849480284 0.0021824103113043144 0
          -0.00290940967619372 0.0100862416184412 0 0.0023186597131957054 0.01034597662795298 0
          -0.004815363551290114 0.022689096743529164 0 0.002643352583676922 0.02324134943930144 0
          -0.007327759491991647 0.03962405588788732 0 0.0021916096030522923 0.040534006237200916 0
          -0.010403628139178119 0.06035009248338433 0 0.0008439889505333307 0.061631513654653455 0
          -0.014002533959706341 0.0841834966686623 0
          <InformationKey name="L2_NORM_RANGE" location="vtkDataArray" length="2">
            <Value index="0">
              0
            </Value>
            <Value index="1">
              0.085340096488
            </Value>
          </InformationKey>
        </DataArray>
        <DataArray type="Float64" Name="Nodal Stress" NumberOfComponents="6" format="ascii" RangeMin="28633.956608697772" RangeMax="124776.68918472336">
          -120499.14315204705 -15465.417387261572 0 28460.49065918086 0 0
          58697.30584571529 -9743.979786014943 0 689.5987904762546 0 0
          -83296.43171312883 -7995.675099764605 0 3401.781568815119 0 0
          80923.6557437232 2857.103888023547 0 -2580.1210864277064 0 0
          -70753.78908162598 -4414.483696951134 0 4766.025195572804 0 0
          69806.28786371925 1254.770276020283 0 3098.6158151573404 0 0
          -61278.61264728386 -4464.264805159033 0 1616.3691368976934 0 0
          58476.20192655315 1701.075496879081 0 5215.906462258032 0 0
          -49818.45420833838 -3046.4561449038224 0 1221.3403712251763 0 0
          46616.96436549634 1640.6816258773085 0 6801.697253288576 0 0
          -39014.84189347757 -2128.7842640879335 0 1210.118809557618 0 0
          34931.61684127026 1703.2301321891327 0 7177.455079376621 0 0
          -28556.80248005112 -1165.3144545782677 0 1747.7257811464742 0 0
          <InformationKey name="L2_NORM_RANGE" location="vtkDataArray" length="2">
            <Value index="0">
              28633.956609
            </Value>
            <Value index="1">
              124776.68918
            </Value>
          </InformationKey>
        </DataArray>
        <DataArray type="Float64" Name="Nodal Strain" NumberOfComponents="6" format="ascii" RangeMin="0" RangeMax="0">
          0 0 0 0 0 0
          0 0 0 0 0 0
          0 0 0 0 0 0
          0 0 0 0 0 0
          0 0 0 0 0 0
          0 0 0 0 0 0
          0 0 0 0 0 0
          0 0 0 0 0 0
          0 0 0 0 0 0
          0 0 0 0 0 0
          0 0 0 0 0 0
          0 0 0 0 0 0
          0 0 0 0 0 0
          <InformationKey name="L2_NORM_RANGE" location="vtkDataArray" length="2">
            <Value index="0">
              0
            </Value>
            <Value index="1">
              0
            </Value>
          </InformationKey>
        </DataArray>
        <DataArray type="Float64" Name="Sld_traction" NumberOfComponents="3" format="ascii" RangeMin="10768.92038198435" RangeMax="61889.0346597971">
          57030.68187853301 -24036.512550516414 0 -16208.4267454562 -1773.293529148188 0
          25730.53859128627 -13235.482235848745 0 18707.54750934389 -8952.33347067234 0
          29923.440684507998 -12471.676122930516 0 18899.406313957174 -7500.3451467871555 0
          27384.421269304465 -9911.892215229334 0 16370.262205007999 -5423.864812400371 0
          25081.04132890859 -7016.794818517983 0 13831.751161588718 -3458.1183225265363 0
          22091.18240465313 -4741.3520710759785 0 10581.075677625498 -2002.6192094055352 0
          18249.37233021138 -3009.9087348188614 0
          <InformationKey name="L2_NORM_RANGE" location="vtkDataArray" length="2">
            <Value index="0">
              10768.920382
            </Value>
            <Value index="1">
              61889.03466
            </Value>
          </InformationKey>
        </DataArray>
        <DataArray type="Float64" Name="Velocity" NumberOfComponents="3" format="ascii" RangeMin="0" RangeMax="0.995460155246285">
          0 0 0 0 0 0
          -0.02481183442962065 0.053619856132731236 0 0.03610261853370822 0.05686606418932194 0
          -0.0666445416670649 0.234030691133861 0 0.037439679364407175 0.24468458690610717 0
          -0.09596308185857971 0.45019434334794717 0 0.014007607988133053 0.4673047013279419 0
          -0.12960573150886434 0.6662889027879686 0 -0.02840461275776729 0.6863992981704072 0
          -0.1572565982123324 0.8495904621731292 0 -0.07920149728344511 0.8683260759591889 0
          -0.1753399687996442 0.9798963292227896 0
          <InformationKey name="L2_NORM_RANGE" location="vtkDataArray" length="2">
            <Value index="0">
              0
            </Value>
            <Value index="1">
              0.99546015525
            </Value>
          </InformationKey>
        </DataArray>
        <DataArray type="Float64" Name="Acceleration" NumberOfComponents="3" format="ascii" RangeMin="0" RangeMax="358.8450946224067">
          0 0 0 0 0 0
          -20.725676547648845 52.94898325976328 0 36.27007646662719 57.59733226306662 0
          -47.83574735920638 210.03589431555702 0 27.104160107489406 218.9752569733064 0
          -41.04996384112201 331.16713935372536 0 -3.9013320559047315 339.01565371701145 0
          -13.47066851101954 358.59216810247017 0 -37.4327485341214 355.8597720815451 0
          55.15233996814641 244.16717007335683 0 -48.96863793991383 221.25498208271893 0
          172.6074012342342 -35.691440880153095 0
          <InformationKey name="L2_NORM_RANGE" location="vtkDataArray" length="2">
            <Value index="0">
              0
            </Value>
            <Value index="1">
              358.84509462
            </Value>
          </InformationKey>
        </DataArray>
        <DataArray type="Float64" Name="Sigma" NumberOfComponents="6" format="ascii" RangeMin="58266.59036554749" RangeMax="179567.49482932125">
          -107745.08873803404 107745.08873803401 0 62616.436589672594 0 0
          126647.26881352194 -126647.26881352183 0 -12861.71852550702 0 0
          -121224.54286702465 121224.54286702488 0 1470.8079828853054 0 0
          114551.89206063497 -114551.89206063458 0 -7702.858419325111 0 0
          -103207.97457575813 103207.9745757577 0 11288.28362492361 0 0
          99125.38813570932 -99125.38813570914 0 2827.8118564816814 0 0
          -88554.99605543015 88554.99605543271 0 -2235.531487827871 0 0
          82551.54229345002 -82551.54229345116 0 9868.948573160611 0 0
          -72357.80596602312 72357.80596602306 0 -3910.2625399096 0 0
          65708.96885848987 -65708.96885849064 0 12690.995757129269 0 0
          -56432.280237819024 56432.28023781977 0 -4966.52350417861 0 0
          49024.179456823054 -49024.17945682314 0 13165.375974573753 0 0
          -41118.92507819188 41118.92507819266 0 -3669.2715427634007 0 0
          <InformationKey name="L2_NORM_RANGE" location="vtkDataArray" length="2">
            <Value index="0">
              58266.590366
            </Value>
            <Value index="1">
              179567.49483
            </Value>
          </InformationKey>
        </DataArray>
        <DataArray type="Float64" Name="Press" format="ascii" RangeMin="-132705.61169570484" RangeMax="129254.61862898528">
          -126517.31301390185 113811.11664489118 -132705.61169570484 129254.61862898528 -115472.93353957277 105375.77519839219
          -98713.902027484 89908.64307184254 -80176.76840524023 71471.75441617708 -62355.07385371775 54101.45878347783
          -45118.17279528954
        </DataArray>
        <DataArray type="Float64" Name="Dev strain" NumberOfComponents="6" format="ascii" RangeMin="0" RangeMax="0">
          0 0 0 0 0 0
          0 0 0 0 0 0
          0 0 0 0 0 0
          0 0 0 0 0 0
          0 0 0 0 0 0
          0 0 0 0 0 0
          0 0 0 0 0 0
          0 0 0 0 0 0
          0 0 0 0 0 0
          0 0 0 0 0 0
          0 0 0 0 0 0
          0 0 0 0 0 0
          0 0 0 0 0 0
          <InformationKey name="L2_NORM_RANGE" location="vtkDataArray" length="2">
            <Value index="0">
              0
            </Value>
            <Value index="1">
              0
            </Value>
          </InformationKey>
        </DataArray>
        <DataArray type="Float64" Name="J2 Stresses" format="ascii" RangeMin="1694131887.9996228" RangeMax="16080886648.781816">
          12589208679.963951 16080886648.781816 14695930612.349754 13136969481.62836 10683742352.829473 9827841703.028917
          7843236726.635744 6839106171.512283 5239474622.499403 4357933931.772911 3190768841.7691708 2446701952.5527673
          1694131887.9996228
        </DataArray>
      </PointData>
      <CellData>
        <DataArray type="UInt8" Name="vtkGhostType" format="ascii" RangeMin="0" RangeMax="0">
          0 0 0 0 0 0
          0 0 0 0 0
        </DataArray>
        <DataArray type="Float64" Name="Gauss Stress" NumberOfComponents="6" format="ascii" RangeMin="34038.14373575407" RangeMax="85539.44783456615">
          76778.24719510133 -3204.8314763199655 0 -6364.589653982275 0 0
          -82578.05695208412 -14363.148424392817 0 17075.175349016958 0 0
          76542.25530279698 2896.051555739555 0 2137.74568736006 0 0
          -76268.18399614673 -3014.433741381449 0 1685.4110628279368 0 0
          63230.816872159994 1149.5272896743818 0 3487.076313938142 0 0
          -67149.54762138122 -5391.159291061109 0 3960.187997859139 0 0
          52368.77808956539 1766.9746322868818 0 6216.560596793428 0 0
          -55781.09569629497 -3540.2558776256924 0 1241.0515151410464 0 0
          40506.33580781035 1639.0904228143836 0 6963.282742508138 0 0
          -44713.73506271107 -2659.656832476244 0 1271.4032376803516 0 0
          -33966.27124157245 -1614.9206687800606 0 1509.8603092105795 0 0
          <InformationKey name="L2_NORM_RANGE" location="vtkDataArray" length="2">
            <Value index="0">
              34038.143736
            </Value>
            <Value index="1">
              85539.447835
            </Value>
          </InformationKey>
        </DataArray>
        <DataArray type="Float64" Name="Gauss Strain" NumberOfComponents="6" format="ascii" RangeMin="0" RangeMax="0">
          0 0 0 0 0 0
          0 0 0 0 0 0
          0 0 0 0 0 0
          0 0 0 0 0 0
          0 0 0 0 0 0
          0 0 0 0 0 0
          0 0 0 0 0 0
          0 0 0 0 0 0
          0 0 0 0 0 0
          0 0 0 0 0 0
          0 0 0 0 0 0
          <InformationKey name="L2_NORM_RANGE" location="vtkDataArray" length="2">
            <Value index="0">
              0
            </Value>
            <Value index="1">
              0
            </Value>
          </InformationKey>
        </DataArray>
      </CellData>
      <Points>
        <DataArray type="Float32" Name="Points" NumberOfComponents="3" format="ascii" RangeMin="0" RangeMax="0.6020797527609908">
          0 0.05000000074505806 0 0 0 0
          0.10000000149011612 0.05000000074505806 0 0.10000000149011612 0 0
          0.20000000298023224 0.05000000074505806 0 0.20000000298023224 0 0
          0.30000001192092896 0.05000000074505806 0 0.30000001192092896 0 0
          0.4000000059604645 0.05000000074505806 0 0.4000000059604645 0 0
          0.5 0.05000000074505806 0 0.5 0 0
          0.6000000238418579 0.05000000074505806 0
          <InformationKey name="L2_NORM_RANGE" location="vtkDataArray" length="2">
            <Value index="0">
              0
            </Value>
            <Value index="1">
              0.60207975276
            </Value>
          </InformationKey>
        </DataArray>
      </Points>
      <Cells>
        <DataArray type="Int64" Name="connectivity" format="ascii" RangeMin="0" RangeMax="12">
          3 2 1 2 0 1
          5 4 3 4 2 3
          7 6 5 6 4 5
          9 8 7 8 6 7
          11 10 9 10 8 9
          12 10 11
        </DataArray>
        <DataArray type="Int64" Name="offsets" format="ascii" RangeMin="3" RangeMax="33">
          3 6 9 12 15 18
          21 24 27 30 33
        </DataArray>
        <DataArray type="UInt8" Name="types" format="ascii" RangeMin="5" RangeMax="5">
          5 5 5 5 5 5
          5 5 5 5 5
        </DataArray>
      </Cells>
    </Piece>
  </UnstructuredGrid>
</VTKFile>
