<?xml version="1.0"?>
<VTKFile type="UnstructuredGrid" version="0.1" byte_order="LittleEndian" header_type="UInt32" compressor="vtkZLibDataCompressor">
  <UnstructuredGrid>
    <Piece NumberOfPoints="13" NumberOfCells="11">
      <PointData>
        <DataArray type="Float64" Name="Disp" NumberOfComponents="3" format="ascii" RangeMin="0.023792965050698126" RangeMax="0.11374578924040243">
          0.0016827883713351173 0.035969175069265225 0 -0.006219153888120511 0.049428950012079496 0
          0.0010879049230583535 0.049970029787181736 0 -0.007639835175673511 0.06461039092866243 0
          0.00017878657427565416 0.06522989195794188 0 -0.009059275745530296 0.08057752981931507 0
          -0.0009732981480359475 0.08123953515244714 0 -0.010421770030049208 0.09685728541169347 0
          -0.0023023804278446513 0.09752333781816527 0 -0.011692816104970803 0.1130345445769804 0
          -0.0036363174009797594 0.11368765001389282 0 -0.004863853117934718 0.03553558624566425 0
          0.001932794070456025 0.02371433096220411 0
          <InformationKey name="L2_NORM_RANGE" location="vtkDataArray" length="2">
            <Value index="0">
              0.023792965051
            </Value>
            <Value index="1">
              0.11374578924
            </Value>
          </InformationKey>
        </DataArray>
        <DataArray type="Float64" Name="Nodal Stress" NumberOfComponents="6" format="ascii" RangeMin="1758.1451077557124" RangeMax="31289.455339232543">
          24172.174278338498 630.3326248755515 0 2919.120118637624 0 0
          -17749.50149746906 -1059.2837480597732 0 2549.6913689673725 0 0
          17307.951576627656 458.18182200693127 0 3000.3217475830993 0 0
          -11633.761556806554 -688.1831673582425 0 2478.8453436832756 0 0
          10940.146436748068 251.70881553444545 0 2653.120079362886 0 0
          -6508.015645279097 -458.1515810691385 0 2126.0317202559154 0 0
          5995.930805126976 188.20051017153267 0 2135.450938541249 0 0
          -2934.718957117773 -270.204184172121 0 1205.1863917419464 0 0
          2601.4447109800176 52.824709585291934 0 962.6819508098075 0 0
          -1655.2416540392865 -92.22751985125528 0 585.4428846956114 0 0
          2553.954719832468 805.4180086918992 0 1226.4360414405244 0 0
          -24320.776096899295 -1517.9587255868646 0 2506.0480074706716 0 0
          31182.132836669818 796.1317371515195 0 2463.8955820419596 0 0
          <InformationKey name="L2_NORM_RANGE" location="vtkDataArray" length="2">
            <Value index="0">
              1758.1451078
            </Value>
            <Value index="1">
              31289.455339
            </Value>
          </InformationKey>
        </DataArray>
        <DataArray type="Float64" Name="Nodal Strain" NumberOfComponents="6" format="ascii" RangeMin="0" RangeMax="0">
          0 0 0 0 0 0
          0 0 0 0 0 0
          0 0 0 0 0 0
          0 0 0 0 0 0
          0 0 0 0 0 0
          0 0 0 0 0 0
          0 0 0 0 0 0
          0 0 0 0 0 0
          0 0 0 0 0 0
          0 0 0 0 0 0
          0 0 0 0 0 0
          0 0 0 0 0 0
          0 0 0 0 0 0
          <InformationKey name="L2_NORM_RANGE" location="vtkDataArray" length="2">
            <Value index="0">
              0
            </Value>
            <Value index="1">
              0
            </Value>
          </InformationKey>
        </DataArray>
        <DataArray type="Float64" Name="Sld_traction" NumberOfComponents="3" format="ascii" RangeMin="147.65784847861732" RangeMax="12872.547707434413">
          5743.524301437811 -2086.431422252589 0 10235.565463553383 -2950.1373303594814 0
          3757.5625986502127 -1253.0249100739136 0 7876.204655879023 -2052.2877326183034 0
          1854.7957520715913 -620.846603886136 0 5182.287869199126 -1395.6136780763923 0
          272.18626387408426 -276.74915793496274 0 2592.177058926949 -767.6623668785105 0
          -51.77772886427684 -226.46640036389016 0 253.32308657483503 -138.91897621541116 0
          -40.89247796357717 -141.88250583963008 0 12233.005467331659 -4007.001586773917 0
          7606.650691423483 -3054.439176440235 0
          <InformationKey name="L2_NORM_RANGE" location="vtkDataArray" length="2">
            <Value index="0">
              147.65784848
            </Value>
            <Value index="1">
              12872.547707
            </Value>
          </InformationKey>
        </DataArray>
        <DataArray type="Float64" Name="Velocity" NumberOfComponents="3" format="ascii" RangeMin="4.015836070312257" RangeMax="12.788794962352725">
          0.08696062735809307 -5.572074145889097 0 1.0674491371258004 -6.997630843453262 0
          0.3151925582788546 -7.110542081398034 0 1.2802669958966693 -8.46943731789068 0
          0.561122051588134 -8.584942797582876 0 1.4969599257211597 -9.876805638888648 0
          0.8056519112904497 -9.991587494416528 0 1.7198269622575868 -11.24389072790278 0
          1.0372957350796996 -11.357590739410412 0 1.9501910687271105 -12.612413292314173 0
          1.2640556767788835 -12.726171452369385 0 0.8594861602995967 -5.468302593899203 0
          -0.09760625380901278 -4.014649718573011 0
          <InformationKey name="L2_NORM_RANGE" location="vtkDataArray" length="2">
            <Value index="0">
              4.0158360703
            </Value>
            <Value index="1">
              12.788794962
            </Value>
          </InformationKey>
        </DataArray>
        <DataArray type="Float64" Name="Acceleration" NumberOfComponents="3" format="ascii" RangeMin="35.355010256854335" RangeMax="1514.9432283273356">
          -116.639517126785 157.6401306071275 0 -17.468076938790546 -30.738299209988327 0
          -139.2290813086181 -38.5219249722868 0 32.4836964567985 -319.11972724471707 0
          -134.6611958913902 -337.4560541292158 0 91.78978443698907 -684.7517945515283 0
          -103.84767947706314 -710.0723212085868 0 150.15907244375194 -1088.9711729986739 0
          -52.10225405033452 -1115.80425845251 0 198.85540824245254 -1489.4633404119522 0
          1.3545474137408746 -1514.942622760398 0 -49.38446502677925 154.26330768016487 0
          -74.96032747497202 241.09843033993093 0
          <InformationKey name="L2_NORM_RANGE" location="vtkDataArray" length="2">
            <Value index="0">
              35.355010257
            </Value>
            <Value index="1">
              1514.9432283
            </Value>
          </InformationKey>
        </DataArray>
        <DataArray type="Float64" Name="Sigma" NumberOfComponents="6" format="ascii" RangeMin="2778.4720199486505" RangeMax="61264.76357946994">
          33354.313550750856 -33354.31355074918 0 3432.371131738365 0 0
          -26727.454155872838 26727.4541558731 0 2054.1838313121934 0 0
          23605.48995566885 -23605.48995566777 0 3538.719355023229 0 0
          -17625.883680629486 17625.883680628438 0 2150.0525459413307 0 0
          14633.27882725767 -14633.27882725751 0 2926.2732321349167 0 0
          -9786.863257639548 9786.863257640072 0 1858.284269576916 0 0
          7481.091080576116 -7481.091080580168 0 2721.2411464011157 0 0
          -4216.2131295348345 4216.213129536466 0 916.4963145111976 0 0
          3318.3778734575353 -3318.3778734526722 0 819.8641176616337 0 0
          -2502.9455684172326 2502.945568411491 0 24.201959034134376 0 0
          1340.820558621383 -1340.8205586190115 0 2030.839044533165 0 0
          -36336.997808924345 36336.99780892373 0 2172.672467569036 0 0
          43286.399575902324 -43286.39957590455 0 2438.540538682896 0 0
          <InformationKey name="L2_NORM_RANGE" location="vtkDataArray" length="2">
            <Value index="0">
              2778.4720199
            </Value>
            <Value index="1">
              61264.763579
            </Value>
          </InformationKey>
        </DataArray>
        <DataArray type="Float64" Name="Press" format="ascii" RangeMin="-40079.477596747114" RangeMax="46558.704275341996">
          35903.92819432677 -29384.63474360907 25367.206797235693 -19298.077838912435 15654.66310413409 -10931.410133073974
          8238.852534759313 -4736.2172163534315 3336.788648271665 -3033.1069914159534 3207.531900095544 -40079.477596747114
          46558.704275341996
        </DataArray>
        <DataArray type="Float64" Name="Dev strain" NumberOfComponents="6" format="ascii" RangeMin="0" RangeMax="0">
          0 0 0 0 0 0
          0 0 0 0 0 0
          0 0 0 0 0 0
          0 0 0 0 0 0
          0 0 0 0 0 0
          0 0 0 0 0 0
          0 0 0 0 0 0
          0 0 0 0 0 0
          0 0 0 0 0 0
          0 0 0 0 0 0
          0 0 0 0 0 0
          0 0 0 0 0 0
          0 0 0 0 0 0
          <InformationKey name="L2_NORM_RANGE" location="vtkDataArray" length="2">
            <Value index="0">
              0
            </Value>
            <Value index="1">
              0
            </Value>
          </InformationKey>
        </DataArray>
        <DataArray type="Float64" Name="J2 Stresses" format="ascii" RangeMin="2828876.5766186723" RangeMax="1875199008.2344732">
          1115455525.338244 715411723.4574974 560349789.7155614 311827457.01063955 216273617.99354264 96645997.53037938
          57818012.100122444 17986444.527296953 11179676.003893692 6264882.952150364 2828876.5766186723 1321557536.178583
          1875199008.2344732
        </DataArray>
      </PointData>
      <CellData>
        <DataArray type="UInt8" Name="vtkGhostType" format="ascii" RangeMin="0" RangeMax="1">
          1 1 0 0 0 0
          0 0 0 0 0
        </DataArray>
        <DataArray type="Float64" Name="Gauss Stress" NumberOfComponents="6" format="ascii" RangeMin="2165.9274011945254" RangeMax="27701.066599148435">
          27562.290063550172 693.1465183972149 0 2681.1947126634323 0 0
          -21090.107520025245 -1283.3485773272548 0 2553.075810206531 0 0
          20706.283199500096 551.3836324698472 0 3008.424772691262 0 0
          14112.225721584799 370.3023200535014 0 2871.6817110331585 0 0
          -14687.784555373102 -855.8859681506812 0 2580.985244092251 0 0
          8429.870718671224 211.53295187394087 0 2501.9328827043164 0 0
          -9118.09765962123 -598.4522522804407 0 2311.5366825510546 0 0
          4474.226597058789 85.3893807270575 0 1485.8671928579824 0 0
          -4650.253373755454 -302.26316935724066 0 1832.0072434964095 0 0
          1889.1554735376474 451.6535644303548 0 958.3017070763112 0 0
          -2611.105461330751 -343.9182450008113 0 586.8541304023217 0 0
          <InformationKey name="L2_NORM_RANGE" location="vtkDataArray" length="2">
            <Value index="0">
              2165.9274012
            </Value>
            <Value index="1">
              27701.066599
            </Value>
          </InformationKey>
        </DataArray>
        <DataArray type="Float64" Name="Gauss Strain" NumberOfComponents="6" format="ascii" RangeMin="0" RangeMax="0">
          0 0 0 0 0 0
          0 0 0 0 0 0
          0 0 0 0 0 0
          0 0 0 0 0 0
          0 0 0 0 0 0
          0 0 0 0 0 0
          0 0 0 0 0 0
          0 0 0 0 0 0
          0 0 0 0 0 0
          0 0 0 0 0 0
          0 0 0 0 0 0
          <InformationKey name="L2_NORM_RANGE" location="vtkDataArray" length="2">
            <Value index="0">
              0
            </Value>
            <Value index="1">
              0
            </Value>
          </InformationKey>
        </DataArray>
      </CellData>
      <Points>
        <DataArray type="Float32" Name="Points" NumberOfComponents="3" format="ascii" RangeMin="0.4000000059604645" RangeMax="1.0012492197622458">
          0.5 0 0 0.6000000238418579 0.05000000074505806 0
          0.6000000238418579 0 0 0.699999988079071 0.05000000074505806 0
          0.699999988079071 0 0 0.800000011920929 0.05000000074505806 0
          0.800000011920929 0 0 0.8999999761581421 0.05000000074505806 0
          0.8999999761581421 0 0 1 0.05000000074505806 0
          1 0 0 0.5 0.05000000074505806 0
          0.4000000059604645 0 0
          <InformationKey name="L2_NORM_RANGE" location="vtkDataArray" length="2">
            <Value index="0">
              0.40000000596
            </Value>
            <Value index="1">
              1.0012492198
            </Value>
          </InformationKey>
        </DataArray>
      </Points>
      <Cells>
        <DataArray type="Int64" Name="connectivity" format="ascii" RangeMin="0" RangeMax="12">
          0 11 12 1 11 0
          2 1 0 4 3 2
          3 1 2 6 5 4
          5 3 4 8 7 6
          7 5 6 10 9 8
          9 7 8
        </DataArray>
        <DataArray type="Int64" Name="offsets" format="ascii" RangeMin="3" RangeMax="33">
          3 6 9 12 15 18
          21 24 27 30 33
        </DataArray>
        <DataArray type="UInt8" Name="types" format="ascii" RangeMin="5" RangeMax="5">
          5 5 5 5 5 5
          5 5 5 5 5
        </DataArray>
      </Cells>
    </Piece>
  </UnstructuredGrid>
</VTKFile>
