<?xml version="1.0"?>
<VTKFile type="UnstructuredGrid" version="0.1" byte_order="LittleEndian" header_type="UInt32" compressor="vtkZLibDataCompressor">
  <UnstructuredGrid>
    <Piece NumberOfPoints="183" NumberOfCells="79">
      <PointData>
        <DataArray type="Float64" Name="Density" format="ascii" RangeMin="0.9640375962809977" RangeMax="1.0636042139938404">
          1 1 1 1 1 1
          1 1 1 1 1 1
          1 1 1 1 1 1
          1 1 1 1 1 1
          1 1 0.9999999750110256 1 1 0.9999999870793415
          1 1 1.0000000775059794 0.9999999923274733 0.999999996101675 1.0000000629625005
          0.9999999688639202 0.9999980934817505 1.0000000652254446 1.0000000234315247 0.9999985470040563 1.000000028723475
          1.0000000362698933 1.000006973442743 0.9999990551438109 0.9999990393174368 1.0000001017399558 1.0000029132657824
          0.9999993260422716 0.9999996952461198 0.9999992175968253 0.9999999939550065 0.9999066711198419 0.9999995731300138
          1.0000033556031562 0.999999787641701 0.999999988748306 1.0000019788278378 1.0000114654913406 1.0000002633430825
          1.000000559765079 0.9999999772290888 0.9998379445278853 1.0005041915223822 0.9999897580973437 0.9999843572570029
          0.9999951778042651 0.9999268700902392 0.9999999818863402 1.0000001492097053 0.9999996007967372 1.0000448748929107
          0.9999953305651693 0.9999933223386315 1.0000511823093707 0.9999753132554401 1.0000006095795062 1.0000007323005458
          0.999858609670286 0.9999997920889916 1.000004478529914 0.9999567243831013 1.0000769220539192 0.9999725963248832
          0.9999999104478214 1.0000002529375152 1.0000364508842545 0.9966326930887535 1.0003058230337123 0.9999993638299908
          0.9993092451908582 1.0000248829157286 0.9999827733911103 1.0000890398398279 1.0000016228219242 0.9999904018332292
          1.0001128041001883 1.0003441352394926 0.9999996479534539 1.000000327129301 0.9995395640192142 0.9998793239058245
          0.9999996483479422 1.0001005465116646 1.0000005634906028 0.9999997633819646 0.9981525898422439 0.9997112340869843
          0.9999510267849955 0.9999994391971759 1.0000529084609275 0.9999692798675964 0.9993673649148963 0.9999989667449247
          0.9941863638525481 1.0002517402705067 0.9999800269509825 1.0017869443157803 0.9989391133633045 0.9998932775818349
          1.0001082883382062 0.9995882264510556 0.9998620806640232 1.0000720886566643 1.0023061993868752 0.9999927425514016
          1.0000767892158167 1.000787694646027 1.0000873126314653 1.0030414482745307 0.9974763525689454 1.000129054471546
          0.9976488873512267 0.9983132328125357 0.9991156169292765 1.0052553671610935 0.9989368139115713 1.001072451460765
          1.0004571563538585 0.9966960510667118 1.0020193981691705 0.9831759783221435 0.9845945775769898 1.0030248397364838
          1.0032429552095123 0.985709364944815 1.002509685447325 1.00313410059372 0.9712793565116744 0.985510089857433
          0.9960583608595909 0.9850671745726041 0.99106877221359 0.9647634677281877 0.9826707933957326 0.9640375962809977
          1.0298382563442334 1.0426592077602528 1.053352447124416 1.0551487340843768 1.0321278762971415 1.0598870258831843
          1.003538353105451 0.9778607999342583 1.059920938261697 1.0636042139938404 1.0332345634835227 1.0459356437799645
          1 1 1 1 1 1
          1 1.04522580779845 1 1.0366555771043724 1 1
          1 1 1
        </DataArray>
        <DataArray type="Float64" Name="Momentum" NumberOfComponents="3" format="ascii" RangeMin="0" RangeMax="1">
          4.832564918196586e-19 -1.994678292599671e-19 0 5.765414229332631e-19 0 0
          1.1058060703141851e-18 2.82264422112405e-19 0 -1.396506730192117e-18 6.988142219075882e-19 0
          -5.3727299388699745e-19 0 0 1.0596597448332894e-19 7.009828902746371e-19 0
          -5.096770518652164e-20 8.275260528515572e-20 0 -9.6913892241773e-19 9.694441598771602e-19 0
          -3.559309654897237e-19 0 0 1.2804643089445874e-18 -2.2811707672408234e-19 0
          4.299897333696176e-19 1.8350736226792586e-19 0 9.640995108453728e-19 2.394481750267087e-20 0
          -3.1699006000026727e-19 -3.0118861957887684e-19 0 6.333281170161599e-19 0 0
          3.221446022495791e-19 -2.4566578839412737e-19 0 5.639926420745681e-20 -1.107634178272961e-18 0
          1.4766187306521143e-18 2.7355113831012275e-19 0 -7.383436868327252e-19 -8.183263400015661e-19 0
          -1.847171793918405e-18 1.270787342518938e-18 0 -1.059914541646869e-18 0 0
          6.712750264567033e-19 0 0 -2.4154490874445634e-19 0 0
          -4.090567017287772e-19 0 0 -1.803860391295302e-20 7.808005324823446e-19 0
          -1.2967202678369716e-18 2.055903761044281e-19 0 -6.94742647342157e-19 2.568376401749396e-19 0
          -2.5268311409488385e-8 0 0 -9.055487625588752e-19 0 0
          5.520079074769718e-19 -4.3908928474836e-19 0 -1.3057122566971462e-8 5.481861831680552e-9 0
          -5.940381711958587e-20 -2.099704633355316e-19 0 2.546825207528461e-19 0 0
          7.834150014474078e-8 0 0 -7.64163854937327e-9 0 0
          -3.9205255686964955e-9 -2.810503828045137e-9 0 6.041351732520705e-8 -4.317661657763756e-8 0
          -2.1861954006448418e-8 1.0231900904748511e-8 0 -0.000001975312561108322 0 0
          3.024485929461459e-8 -3.212563111112006e-8 0 2.3233470594213373e-8 0 0
          -0.00000147944808612052 9.030606442274652e-7 0 2.479667283252842e-8 2.821023019120824e-8 0
          2.0015369577901972e-8 2.3118399044749625e-8 0 0.0000069133063967032155 0 0
          -9.119678801262154e-7 0.0000019501036092179035 0 -0.000001004857149290106 0 0
          1.998399834017896e-9 -1.0298334747572075e-8 0 0.0000034036878123335404 -0.000004170376040274895 0
          -6.758538080761221e-7 -6.370610299423434e-7 0 -1.2911100065939701e-7 6.286193483695122e-7 0
          -8.586335818742253e-7 -0.0000011727616626732956 0 -1.2015160884948144e-7 -5.3419256883889375e-8 0
          -0.00008062624138964898 0 0 -6.927106358724611e-7 -0.000003725024364039861 0
          0.000003315139863197562 0 0 -2.266239168826765e-7 0.00000139063265276326 0
          4.856218883315753e-7 -6.187638657877088e-7 0 0.000002385410656749553 0.000003488566544852612 0
          1.3113506286752464e-7 -0.000009036846585992084 0 0.0000010674780273344857 0.0000011447471898401438 0
          3.6610719677474777e-7 5.315787580925939e-7 0 3.145657221340804e-8 -3.9380944295415706e-8 0
          -0.00010602212487684592 0.0002706025088583585 0 0.0003541943069826853 0 0
          -8.162989711809606e-7 0.000005904623877342667 0 -0.00001067935460130307 -0.000011798953179566378 0
          -0.000007760677128290416 0.0000020040531482334574 0 -0.0000690453273571125 0 0
          -9.513504012249398e-8 -3.7623481867327487e-7 0 -4.34285556132586e-7 5.151626497178212e-7 0
          -2.0762923150379042e-7 -5.5288107398094245e-8 0 0.000005529691818558012 -0.00001423747091813732 0
          -4.0876825916264955e-7 0.000004443686768117018 0 -7.841168709719747e-7 -0.000011402128055603182 0
          0.00003069681632484337 0.000028137028928603564 0 -0.000002937042634982344 -0.00010085586234016378 0
          0.0000010983649896638766 -0.0000011185273361414346 0 4.56475671702365e-7 8.550123593030734e-7 0
          -0.00008737921241464173 0.0002876074351589754 0 -1.2229077700363478e-8 9.466345259478154e-8 0
          -0.000022628130548643646 -0.0000021103351457827676 0 -0.000026041015536441898 0.000019573234878833963 0
          0.00018788029210637053 -0.0005006589258369892 0 -0.000007092870735732713 -0.000025363240518646626 0
          -5.797928479733551e-7 -0.000001310542818834373 0 -3.8975923333258435e-7 7.589078811329831e-7 0
          0.000009349129241129881 0.00004889012044567 0 -0.0034175241156856736 0 0
          0.00019717679828643028 0 0 -2.9117644827336434e-7 1.2220033963175336e-7 0
          -0.0006152870294846513 -0.00022573151528520005 0 0.000044112139911661616 0.00006483195407621334 0
          -0.000010515005912953277 0.00001733355864584901 0 0.00006849380259976246 -0.00003411460802975859 0
          0.000002037641830349508 -0.0000014381148122466454 0 -0.0000019569205944106494 -0.000009046359486101942 0
          0.00003332268447918117 0.000034644725933630606 0 -0.00011684669394470294 -0.0003306031016091766 0
          -4.531580601794855e-8 1.9220450064444642e-7 0 9.342255549851508e-7 0.0000014041049086543974 0
          -0.0003761938876423293 -0.0005260759511797731 0 -0.00008555218810092695 0.0000642483875592852 0
          -6.97518436782417e-7 -0.0000014677490054300498 0 0.00005918576423970141 -0.00008603651497580064 0
          0 0 0 -0.0000010404910158125847 9.153574516306794e-7 0
          -0.0015418970576531043 0.0004315791786658296 0 -0.0002868305173697207 0.0004919867379984821 0
          -0.00001712157575631125 -0.000022820455630843122 0 0 0 0
          0.00000279548570618053 0.00002276909947586207 0 -0.000016528651134189876 0.000029908063073813065 0
          -0.000592638390156242 -0.0008126461082465344 0 0 0 0
          -0.003324995622097704 0.006213680564938377 0 0.0001615085974791219 -0.00005002364675873622 0
          -0.000008544824155741684 -0.00001575811700952883 0 0.0015393078976376439 -0.00003801846977768362 0
          -0.001024001380716347 0.0006504002861092384 0 0 0 0
          0.00004390054295445785 0.000035536482378162066 0 -0.00016560711604082318 -0.0003948560834681734 0
          0 0 0 0.00003365259400659339 -0.00005398105564865425 0
          0.0016523091711131356 -0.0017053965253284575 0 0 0 0
          0.00003113504112956348 0.0000406488255095577 0 0.0010311517797062298 0.0012138488932416215 0
          0.00004807276083365916 0.00001064753806903102 0 0.003204250046809929 0.0004147568270709024 0
          -0.002315954940613263 0.0009437395194042939 0 0.00008008917327097423 0.000019806309356317513 0
          -0.002195079071599035 0 0 -0.0015942578239138616 -0.0008493595630299454 0
          -0.0009557187629140945 0.0002285590494136174 0 0.009585522101038147 0 0
          -0.0009267249860011458 -0.0005696164118790181 0 0.00078323709408045 -0.0011820091997691354 0
          0.0006100446423217943 0.0013622463074470736 0 -0.0030290053148682686 -0.0005111054117856213 0
          0.0024226368433906283 -0.0021406123797187964 0 -0.01911215400391271 0.007720035069997513 0
          -0.015641406854605047 -0.00022808380931456913 0 0.0033468521988288262 0.0008004731097515706 0
          0.0027890494496507733 0.0008900425013963545 0 -0.008762254530675003 0.0026764657039839595 0
          0.0029501800073752703 0.0022525170459293167 0 0.003617943196171697 -0.001135663407980939 0
          -0.030269984889722747 0.002185316993475059 0 -0.008408473864509672 -0.007728061890824365 0
          -0.0017625560203218431 -0.00741844865141781 0 -0.009354748649645472 0.001947477553819788 0
          -0.00532412490908517 0.006861484255385438 0 -0.03706052098107043 -0.005497805521049885 0
          -0.010246275518289771 -0.0027958366000590726 0 -0.03781746099869381 -0.00023608574199517085 0
          0.03255807863957706 -0.0010962359565885706 0 0.049303542100695624 -0.007434593340099736 0
          0.06392604650099254 0.001281121688431955 0 0.06517146836777529 -0.0015035529482710847 0
          0.0376433894458288 0.002649098609488554 0 0.07040673894570902 0.001048448085185556 0
          0.006918427473156248 0 0 -0.0272558258322912 -0.004723776191628116 0
          0.07580088210969887 0.00008953028875297126 0 0.07469442005917021 -0.0012864768841071748 0
          0.03927577676666154 -0.003457585433121598 0 0.05912041233417806 0.0016942342944542557 0
          1 0 0 1 0 0
          1 0 0 1 0 0
          1 0 0 1 0 0
          1 0 0 0.0527923450479889 0.0031943277000350103 0
          1 0 0 0.04092383524674334 0.0009836466719327294 0
          1 0 0 1 0 0
          1 0 0 1 0 0
          1 0 0
          <InformationKey name="L2_NORM_RANGE" location="vtkDataArray" length="2">
            <Value index="0">
              0
            </Value>
            <Value index="1">
              1
            </Value>
          </InformationKey>
        </DataArray>
        <DataArray type="Float64" Name="Energy" format="ascii" RangeMin="1.6179455749325555" RangeMax="2.2232">
          1.7231999999999998 1.7231999999999998 1.7231999999999998 1.7231999999999998 1.7231999999999998 1.7231999999999998
          1.7231999999999998 1.7231999999999998 1.7231999999999998 1.7231999999999998 1.7231999999999998 1.7231999999999998
          1.7231999999999998 1.7231999999999998 1.7231999999999998 1.7231999999999998 1.7231999999999998 1.7231999999999998
          1.7231999999999998 1.7231999999999998 1.7231999999999998 1.7231999999999998 1.7231999999999998 1.7231999999999998
          1.7231999999999998 1.7231999999999998 1.7231999393867403 1.7231999999999998 1.7231999999999998 1.7231999686884925
          1.7231999999999998 1.7231999999999998 1.7232001879084873 1.7231999813882912 1.7231999905577824 1.7232001529541532
          1.7231999256730202 1.7231953508771232 1.723200155377918 1.7232000567991137 1.723196495770913 1.7232000690055223
          1.7232000873521351 1.7232169357081457 1.7231976831382394 1.7231976600283605 1.723200246557247 1.7232070822796033
          1.7231983770319441 1.7231992692590412 1.7231980965294431 1.7231999851883302 1.7229723055114956 1.723198965416633
          1.723208138925845 1.7231994516484317 1.7231999666182645 1.7232048025632551 1.723227423964828 1.7232007082834508
          1.7232013564703388 1.7231999484449012 1.7228104763443481 1.724421966735917 1.723176065178578 1.7231619293376248
          1.7231883178666605 1.7230225410812343 1.7231999483454001 1.7232003529309843 1.7231990610224457 1.7233072909658864
          1.7231888839819276 1.7231841708730968 1.7233241140621611 1.7231404576058276 1.7232014364720576 1.7232017486131808
          1.7228391606982905 1.723199501625559 1.7232120452887678 1.7230929170633447 1.7234037787444232 1.7231348606545394
          1.7231997573385205 1.7232005878705332 1.7232875975939599 1.7144732291927829 1.7239409105958634 1.7231985420550904
          1.721498992959655 1.7232644688603422 1.7231604193750591 1.723416834690811 1.7232037869441847 1.7231771640607052
          1.7234692738988968 1.724021088828359 1.7231991860596008 1.723200689722253 1.7221280989034133 1.722913487271861
          1.7231986055518083 1.723440422470444 1.7232021607067052 1.7231988555826947 1.7187691306948845 1.7225158891270302
          1.7230805272703278 1.7231984218279144 1.7233284642358875 1.7231340453739403 1.7215816674905302 1.723197874443114
          1.7109803308409182 1.7237968336115135 1.7231544153743676 1.7275276634031882 1.720672101977162 1.7229359595570382
          1.7234600387364185 1.7222194710593064 1.7228808623182374 1.7233739278782731 1.7286900866199784 1.7231893215607608
          1.7233754917957027 1.725150803842335 1.723403750033302 1.730482020478428 1.717087081932827 1.7234959219616532
          1.7170697113089624 1.7192443263141706 1.7211863975461024 1.739065018608747 1.7206912806169445 1.725784444664542
          1.7242096501793727 1.715245631561464 1.7280403810770395 1.6723262737910838 1.6798065488589289 1.7303313842509014
          1.7308485158488556 1.6920376422726486 1.729102727689942 1.730599256697614 1.6398052809101245 1.6915393901517426
          1.7157096821538926 1.6902833106306812 1.704408388490035 1.6206279085515303 1.685190660802552 1.6179455749325555
          1.8106522307526205 1.8498882960379286 1.8794917191124016 1.8864803931244682 1.816403269761144 1.8998003814190463
          1.7330629336743903 1.6527377915328474 1.8989407924565342 1.9115568457865066 1.8189335253570103 1.8596370662425126
          2.2232 2.2232 2.2232 2.2232 2.2232 2.2232
          2.2232 1.8567706296726163 2.2232 1.8334531172425181 2.2232 2.2232
          2.2232 2.2232 2.2232
        </DataArray>
      </PointData>
      <CellData>
        <DataArray type="UInt8" Name="vtkGhostType" format="ascii" RangeMin="0" RangeMax="0">
          0 0 0 0 0 0
          0 0 0 0 0 0
          0 0 0 0 0 0
          0 0 0 0 0 0
          0 0 0 0 0 0
          0 0 0 0 0 0
          0 0 0 0 0 0
          0 0 0 0 0 0
          0 0 0 0 0 0
          0 0 0 0 0 0
          0 0 0 0 0 0
          0 0 0 0 0 0
          0 0 0 0 0 0
          0
        </DataArray>
      </CellData>
      <Points>
        <DataArray type="Float32" Name="Points" NumberOfComponents="3" format="ascii" RangeMin="0" RangeMax="7.102112369882704">
          7 1.2000000476837158 0 6.5 1.2000000476837158 0
          7 0.6000000238418579 0 6.5 0.6000000238418579 0
          6 1.2000000476837158 0 7 -2.220446049250313e-16 0
          6.25 0.16698729991912842 0 5.75 0.7669873237609863 0
          5.5 1.2000000476837158 0 5.5 0.33397459983825684 0
          7 -0.6000000238418579 0 5.25 0.7669873237609863 0
          6.5 -0.6000000238418579 0 5 1.2000000476837158 0
          5.75 -0.4330126941204071 0 5 2.220446049250313e-16 0
          4.75 0.4330126941204071 0 5.25 -0.4330126941204071 0
          7 -1.2000000476837158 0 6.5 -1.2000000476837158 0
          4.5 1.2000000476837158 0 6 -1.2000000476837158 0
          5.5 -1.2000000476837158 0 4.25 0.4330126941204071 0
          4.5 -0.33397459983825684 0 4.75 -0.7669873237609863 0
          4 1.2000000476837158 0 5 -1.2000000476837158 0
          4.25 -0.7669873237609863 0 3.6823039054870605 0.4431717097759247 0
          3.9323039054870605 -0.32381561398506165 0 4.5 -1.2000000476837158 0
          3.5 1.2000000476837158 0 4 -1.2000000476837158 0
          3.6823039054870605 -0.7568283081054688 0 3.1823039054870605 0.4431717097759247 0
          3.364607095718384 -0.31365659832954407 0 3 1.2000000476837158 0
          2.953885078430176 0.029621059074997902 0 3.5 -1.2000000476837158 0
          2.771580934524536 0.7864493131637573 0 3.1823039054870605 -0.7568283081054688 0
          2.9061310291290283 -0.4530656039714813 0 2.5 1.2000000476837158 0
          2.5431621074676514 0.3728986978530884 0 3 -1.2000000476837158 0
          2.495408058166504 -0.10978800058364868 0 2.271580934524536 0.7864493131637573 0
          2.7238268852233887 -0.8962373733520508 0 2.2451179027557373 0.2950834035873413 0
          2.4476540088653564 -0.5924746990203857 0 2.197364091873169 -0.18760329484939575 0
          2 1.2000000476837158 0 1.9735369682312012 0.708634078502655 0
          2.5 -1.2000000476837158 0 1.947074055671692 0.2172681987285614 0
          2.0834739208221436 -0.4830414056777954 0 2.2238268852233887 -0.8962373733520508 0
          1.766793966293335 0.8914316296577454 0 1.7403310537338257 0.40006569027900696 0
          1.833184003829956 -0.07816994935274124 0 1.696537971496582 0.15281939506530762 0
          1.5884170532226562 0.9876154065132141 0 1.5 1.2000000476837158 0
          1.5335869789123535 0.5828632116317749 0 1.7192939519882202 -0.3736081123352051 0
          1.8596470355987549 -0.7868040204048157 0 2 -1.2000000476837158 0
          1.4897949695587158 0.3356168866157532 0 1.5826480388641357 -0.1426188051700592 0
          1.4460029602050781 0.08837053179740906 0 1.3552099466323853 0.6790469884872437 0
          1.339123010635376 0.4750398099422455 0 1.4790019989013672 -0.34034401178359985 0
          1.5011229515075684 -0.5437853932380676 0 1.641476035118103 -0.9569813013076782 0
          1.2953310012817383 0.22779349982738495 0 1.3423570394515991 -0.10935469716787338 0
          1.1768330335617065 0.7752308249473572 0 1.2693469524383545 0.06596699357032776 0
          1.1607470512390137 0.5712236166000366 0 1.1446599960327148 0.36721640825271606 0
          1.0884170532226562 0.9876154065132141 0 1.2387109994888306 -0.3070800006389618 0
          1.1186749935150146 0.20538990199565887 0 1.1657010316848755 -0.13175830245018005 0
          1.2608319520950317 -0.5105212926864624 0 1 1.2000000476837158 0
          1.5 -1.2000000476837158 0 1.0926909446716309 0.043563440442085266 0
          1.2829530239105225 -0.7139626741409302 0 0.9874739050865173 0.6781361103057861 0
          1.0298000574111938 0.28314921259880066 0 0.9713870286941528 0.4741289019584656 0
          1.0038150548934937 0.12132269889116287 0 1.0768250226974487 -0.25308090448379517 0
          1.0993930101394653 -0.3733969032764435 0 0.8990572094917297 0.8905206918716431 0
          0.9963455200195312 0.021781720221042633 0 1.0038150548934937 -0.07775924354791641 0
          1.1215139627456665 -0.5768383145332336 0 0.9149399995803833 0.1990818977355957 0
          0.9074699878692627 0.09954095631837845 0 0.8565272092819214 0.39006170630455017 0
          0.8999999761581421 0 0 0.9074699878692627 -0.09954095631837845 0
          0.7981144189834595 0.5810413956642151 0 1.141476035118103 -0.9569813013076782 0
          0.9149399995803833 -0.1990818977355957 0 0.8500000238418579 0.08660253882408142 0
          0.9375075101852417 -0.319397896528244 0 0.8324699997901917 0.14284220337867737 0
          0.9600750803947449 -0.43971389532089233 0 0.8500000238418579 -0.08660253882408142 0
          0.7150853276252747 1.018962025642395 0 0.7654337286949158 0.21538899838924408 0
          0.8324699997901917 -0.14284220337867737 0 0.9678938984870911 -0.6856740713119507 0
          0.7070209980010986 0.4063687026500702 0 0.75 0.08660253882408142 0
          0.8092945218086243 -0.23232249915599823 0 0.8318619728088379 -0.35263851284980774 0
          0.75 -0.08660253882408142 0 0.6829637289047241 0.15914930403232574 0
          0.6141425967216492 0.7094823122024536 0 0.699999988079071 0 0
          0.7268245220184326 -0.1760828047990799 0 0.8064550161361694 -0.5485497117042542 0
          0.6600599884986877 0.04330126941204071 0 0.5785459280014038 0.5376487970352173 0
          0.615927517414093 0.23169609904289246 0 0.6600599884986877 -0.04330126941204071 0
          1 -1.2000000476837158 0 0.7036489844322205 -0.26556310057640076 0
          0.5930237174034119 0.11584799736738205 0 0.5 1.2000000476837158 0
          0.6368845105171204 -0.13278159499168396 0 0.8264175057411194 -0.9286928176879883 0
          0.678242027759552 -0.46147438883781433 0 0.5701199769973755 2.220446049250313e-16 0
          0.4874523878097534 0.3629761040210724 0 0.4301707148551941 0.8379232287406921 0
          0.6528350114822388 -0.6573855876922607 0 0.46278950572013855 0.17328590154647827 0
          0.5381790995597839 -0.23345430195331573 0 0.39457398653030396 0.6660897135734558 0
          0.47141459584236145 -0.10067269951105118 0 0.4398857057094574 0.05743790045380592 0
          0.3589772880077362 0.4942561089992523 0 0.5127720832824707 -0.42936548590660095 0
          0.7066044211387634 -1.0821729898452759 0 0.33431440591812134 0.30456599593162537 0
          0.5330219268798828 -0.8108659982681274 0 0.3727092146873474 -0.2013455033302307 0
          0.34118029475212097 -0.04323484003543854 0 0.3096514046192169 0.11487580090761185 0
          0.21508529782295227 1.018962025642395 0 0.21508529782295227 0.8189616203308105 0
          0.17948870360851288 0.6471279859542847 0 0.17948870360851288 0.4471279978752136 0
          0.3264175057411194 -0.5286927819252014 0 0.15482570230960846 0.25743791460990906 0
          0.5 -1.2000000476837158 0 0.4132086932659149 -0.9643464088439941 0
          0.1863546073436737 -0.10067269951105118 0 0.15482570230960846 0.05743790045380592 0
          0.3264175057411194 -0.7286928296089172 0 0.1863546073436737 -0.300672709941864 0
          0 1.2000000476837158 0 0 1 0
          0 0.800000011920929 0 0 0.6000000238418579 0
          0 0.4000000059604645 0 0 0.20000000298023224 0
          0 0 0 0.20660440623760223 -0.8821731805801392 0
          0 -0.20000000298023224 0 0.20660440623760223 -1.0821729898452759 0
          0 -0.4000000059604645 0 0 -0.6000000238418579 0
          0 -0.800000011920929 0 0 -1 0
          0 -1.2000000476837158 0
          <InformationKey name="L2_NORM_RANGE" location="vtkDataArray" length="2">
            <Value index="0">
              0
            </Value>
            <Value index="1">
              7.1021123699
            </Value>
          </InformationKey>
        </DataArray>
      </Points>
      <Cells>
        <DataArray type="Int64" Name="connectivity" format="ascii" RangeMin="0" RangeMax="182">
          104 122 108 113 116 105
          122 119 139 125 128 131
          119 104 101 109 102 111
          108 122 133 116 126 120
          139 119 130 128 123 134
          101 104 89 102 98 94
          104 108 89 105 99 98
          122 139 133 131 136 126
          119 101 130 111 115 123
          108 133 112 120 121 110
          139 130 155 134 143 147
          101 89 81 94 84 92
          112 133 142 121 138 127
          155 130 148 143 140 151
          81 89 70 84 79 76
          108 112 83 110 96 95
          139 155 153 147 154 146
          101 81 106 92 93 103
          142 133 153 138 144 149
          70 89 83 79 85 77
          153 155 174 154 165 164
          174 155 172 165 161 173
          148 130 106 140 118 129
          83 112 90 96 100 86
          106 81 78 93 80 91
          112 142 90 127 117 100
          81 70 64 76 68 72
          139 153 133 146 144 136
          155 148 172 151 159 161
          172 148 170 159 158 171
          108 83 89 95 85 99
          101 106 130 103 118 115
          153 174 178 164 176 167
          153 178 142 167 160 149
          168 170 141 169 157 156
          178 180 142 179 166 160
          180 182 163 181 177 175
          90 142 132 117 137 107
          78 81 64 80 72 71
          78 64 52 71 58 62
          64 70 55 68 61 59
          83 90 65 86 74 73
          106 78 87 91 82 97
          170 148 141 158 145 157
          87 78 52 82 62 63
          168 141 87 156 114 135
          163 182 132 177 162 150
          180 163 142 175 152 166
          142 163 132 152 150 137
          55 70 65 61 69 60
          64 55 52 59 53 58
          65 90 67 74 75 66
          83 65 70 73 69 77
          148 106 141 129 124 145
          90 132 67 107 88 75
          87 141 106 114 124 97
          65 67 50 66 57 56
          50 67 45 57 54 48
          65 50 55 56 51 60
          50 45 36 48 41 42
          52 55 44 53 49 47
          44 55 50 49 51 46
          52 44 37 47 40 43
          37 44 36 40 38 35
          36 45 33 41 39 34
          50 36 44 42 38 46
          33 27 24 31 25 28
          4 13 9 8 11 7
          24 27 9 25 17 15
          9 13 24 11 16 15
          4 9 5 7 6 3
          21 18 5 19 10 12
          26 37 36 32 35 29
          27 21 9 22 14 17
          13 26 24 20 23 16
          0 4 5 1 3 2
          33 24 36 28 30 34
          36 24 26 30 23 29
          5 9 21 6 14 12
        </DataArray>
        <DataArray type="Int64" Name="offsets" format="ascii" RangeMin="6" RangeMax="474">
          6 12 18 24 30 36
          42 48 54 60 66 72
          78 84 90 96 102 108
          114 120 126 132 138 144
          150 156 162 168 174 180
          186 192 198 204 210 216
          222 228 234 240 246 252
          258 264 270 276 282 288
          294 300 306 312 318 324
          330 336 342 348 354 360
          366 372 378 384 390 396
          402 408 414 420 426 432
          438 444 450 456 462 468
          474
        </DataArray>
        <DataArray type="UInt8" Name="types" format="ascii" RangeMin="22" RangeMax="22">
          22 22 22 22 22 22
          22 22 22 22 22 22
          22 22 22 22 22 22
          22 22 22 22 22 22
          22 22 22 22 22 22
          22 22 22 22 22 22
          22 22 22 22 22 22
          22 22 22 22 22 22
          22 22 22 22 22 22
          22 22 22 22 22 22
          22 22 22 22 22 22
          22 22 22 22 22 22
          22 22 22 22 22 22
          22
        </DataArray>
      </Cells>
    </Piece>
  </UnstructuredGrid>
</VTKFile>
