<?xml version="1.0"?>
<VTKFile type="UnstructuredGrid" version="0.1" byte_order="LittleEndian" header_type="UInt32" compressor="vtkZLibDataCompressor">
  <UnstructuredGrid>
    <Piece NumberOfPoints="27" NumberOfCells="32">
      <PointData>
        <DataArray type="Float64" Name="Density" format="ascii" RangeMin="1" RangeMax="1.827924969668899">
          1 1 1.7 1.2288301125108294 1 1.7
          1.0768820701655053 1.3711427928010793 1.2409835902125246 1.6999999999999997 1.4740811403469183 1.4183154105480944
          1.6999999999999997 1.561489433281292 1.565785898633482 1.6999999999999997 1.6339771736292477 1.6754069529163602
          1.7 1.695394896542954 1.7493916816522428 1.7000000000000002 1.7465449447048953 1.7894731797030574
          1.7000000000000002 1.7884703631763597 1.827924969668899
        </DataArray>
        <DataArray type="Float64" Name="Momentum" NumberOfComponents="3" format="ascii" RangeMin="2.8999999999999995" RangeMax="4.952542583300551">
          2.9 0 0 2.8999999999999995 0 0
          4.45281 -0.8607099999999999 0 3.3964164225583726 -0.2739971631984828 0
          2.9 0 0 4.452809999999999 -0.86071 0
          3.062438270078035 0 0 3.7157838293100944 -0.4547913812902392 0
          3.4577107467889636 0 0 4.45281 -0.86071 0
          3.963503916609724 -0.5433348333004331 0 3.879388092347577 0 0
          4.45281 -0.8607099999999999 0 4.176714177981114 -0.5776540044751696 0
          4.236214255435181 0 0 4.4528099999999995 -0.86071 0
          4.358513472638217 -0.5884394161336355 0 4.51382562334559 0 0
          4.45281 -0.8607099999999999 0 4.517614830223065 -0.5785689747262188 0
          4.715023751649788 0 0 4.45281 -0.8607100000000001 0
          4.6517783336618255 -0.5541014283710601 0 4.842995088085341 0 0
          4.45281 -0.86071 0 4.747671557462397 -0.5314265743647085 0
          4.9525077745424815 0.01856831983712226 0
          <InformationKey name="L2_NORM_RANGE" location="vtkDataArray" length="2">
            <Value index="0">
              2.9
            </Value>
            <Value index="1">
              4.9525425833
            </Value>
          </InformationKey>
        </DataArray>
        <DataArray type="Float64" Name="Energy" format="ascii" RangeMin="5.978459999999999" RangeMax="11.253662776234263">
          5.97846 5.978459999999999 9.850459753 7.215454279036752 5.978460000000001 9.850459752999999
          6.365419961607696 8.035228366793884 7.336557204706656 9.850459753 8.67466035413354 8.396506300658375
          9.850459752999999 9.219071179839382 9.314242147678112 9.850459752999999 9.662950792377405 10.04236143980632
          9.850459752999999 10.047976298069196 10.58296562123166 9.850459752999999 10.384197907984818 10.945718057005344
          9.850459753 10.627743474722916 11.253662776234263
        </DataArray>
      </PointData>
      <CellData>
        <DataArray type="UInt8" Name="vtkGhostType" format="ascii" RangeMin="0" RangeMax="0">
          0 0 0 0 0 0
          0 0 0 0 0 0
          0 0 0 0 0 0
          0 0 0 0 0 0
          0 0 0 0 0 0
          0 0
        </DataArray>
        <DataArray type="Float64" Name="CORES" format="ascii" RangeMin="-3.029873170731708" RangeMax="1.0901637459482105">
          0.11980543280407012 -1.0518793375248237 -0.11238262896647448 -0.3214414576418723 -0.14850611990650509 0.030999960741308546
          -0.10331547931726554 0.14163994239148642 -0.04709963595008036 0.15972985814995325 -0.006895556493654058 0.13697999023595137
          0.026935444397760674 0.09801950311295315 0.010909252870059692 0.07530774828326373 0.1215463360782103 -3.029873170731708
          -0.029624302784730577 1.0901637459482105 -0.1561483868560349 0.6767935404832086 -0.2267098481581049 0.4622515779819899
          -0.24517061328246098 0.36180892944711923 -0.2298637992999693 0.3138627793583294 -0.17322829122043437 0.31125626241071713
          -0.08707122596712474 0.34157994265057634
        </DataArray>
        <DataArray type="Float64" Name="MORES" NumberOfComponents="3" format="ascii" RangeMin="0.07770258910100844" RangeMax="9.186736572829364">
          0.5233461419868884 -0.3866421106100828 0 -2.6530639977072763 1.606141203455285 0
          -0.26820537942175116 -0.39179960516854406 0 -0.725819775070694 0.6562415212203097 0
          -0.35549348727872 -0.23312294918394344 0 0.1472588886819154 0.10984494222331627 0
          -0.24782478992838516 -0.06689374838642295 0 0.46591539231959844 -0.04651958069612138 0
          -0.11848004856474632 0.07343683094305517 0 0.536403822460063 -0.013278543894450111 0
          -0.022316251077603003 0.16070688020196988 0 0.4718551462369383 0.018398011100228352 0
          0.050540654930683424 0.1817560839091943 0 0.3654533147785527 0.03541965570998502 0
          0.08431388479757404 0.09807341220449273 0 0.38687536423120694 0.07010871223365411 0
          0.47995820620160706 -0.08982597127613406 0 -7.940054956075823 4.620785231219513 0
          -0.06432561901194053 -0.04358792369144038 0 2.7929648073973983 -1.7451692368391445 0
          -0.4791683146659284 -0.0916005821505172 0 1.7361209207111648 -1.1326167905671185 0
          -0.6497662806682856 -0.0795472950561697 0 1.1921529811545963 -0.7364532154553067 0
          -0.6765999618359054 -0.005453789046790503 0 0.9469391709913666 -0.4708848413589096 0
          -0.6387025089943402 0.017964041610673886 0 0.8316311177012528 -0.2972506102664446 0
          -0.48489092560951474 0.03201308616107568 0 0.8285424315593302 -0.18489090502545813 0
          -0.14798704788156591 0.10375275357776509 0 0.9099382253948555 -0.1074668222460835 0
          <InformationKey name="L2_NORM_RANGE" location="vtkDataArray" length="2">
            <Value index="0">
              0.077702589101
            </Value>
            <Value index="1">
              9.1867365728
            </Value>
          </InformationKey>
        </DataArray>
        <DataArray type="Float64" Name="ENRES" format="ascii" RangeMin="-20.656459114151268" RangeMax="7.4094267243055665">
          1.1294853460984715 -6.955696033932785 -0.8819735674372516 -2.1143423307088005 -1.0779866830805038 0.20857868098884746
          -0.753842925355176 1.1424391786230617 -0.37605886934742105 1.4976492775314687 -0.10287526323922745 1.3728238532194106
          0.07050854282925441 1.0482139428192934 0.2227886803915548 1.1024040559343784 1.012397603333108 -20.656459114151268
          -0.14744391161644754 7.4094267243055665 -1.1958714525856673 4.664736683322485 -1.6490504632457357 3.179246210993706
          -1.634706506434869 2.4605606515037404 -1.5443425077033672 2.1177157434089358 -1.2470420804437157 2.0748878967427045
          -0.42512574121346436 2.238725222567444
        </DataArray>
      </CellData>
      <Points>
        <DataArray type="Float32" Name="Points" NumberOfComponents="3" format="ascii" RangeMin="0" RangeMax="4.2201894765504395">
          0 1 0 0 0.5 0
          0.512499988079071 1 0 0.512499988079071 0.5 0
          0 0 0 1.024999976158142 1 0
          0.512499988079071 0 0 1.024999976158142 0.5 0
          1.024999976158142 0 0 1.537500023841858 1 0
          1.537500023841858 0.5 0 1.537500023841858 0 0
          2.049999952316284 1 0 2.049999952316284 0.5 0
          2.049999952316284 0 0 2.5625 1 0
          2.5625 0.5 0 2.5625 0 0
          3.075000047683716 1 0 3.075000047683716 0.5 0
          3.075000047683716 0 0 3.5875000953674316 1 0
          3.5875000953674316 0.5 0 3.5875000953674316 0 0
          4.099999904632568 1 0 4.099999904632568 0.5 0
          4.099999904632568 0 0
          <InformationKey name="L2_NORM_RANGE" location="vtkDataArray" length="2">
            <Value index="0">
              0
            </Value>
            <Value index="1">
              4.2201894766
            </Value>
          </InformationKey>
        </DataArray>
      </Points>
      <Cells>
        <DataArray type="Int64" Name="connectivity" format="ascii" RangeMin="0" RangeMax="26">
          6 3 4 3 1 4
          8 7 6 7 3 6
          11 10 8 10 7 8
          14 13 11 13 10 11
          17 16 14 16 13 14
          20 19 17 19 16 17
          23 22 20 22 19 20
          26 25 23 25 22 23
          3 2 1 2 0 1
          7 5 3 5 2 3
          10 9 7 9 5 7
          13 12 10 12 9 10
          16 15 13 15 12 13
          19 18 16 18 15 16
          22 21 19 21 18 19
          25 24 22 24 21 22
        </DataArray>
        <DataArray type="Int64" Name="offsets" format="ascii" RangeMin="3" RangeMax="96">
          3 6 9 12 15 18
          21 24 27 30 33 36
          39 42 45 48 51 54
          57 60 63 66 69 72
          75 78 81 84 87 90
          93 96
        </DataArray>
        <DataArray type="UInt8" Name="types" format="ascii" RangeMin="5" RangeMax="5">
          5 5 5 5 5 5
          5 5 5 5 5 5
          5 5 5 5 5 5
          5 5 5 5 5 5
          5 5 5 5 5 5
          5 5
        </DataArray>
      </Cells>
    </Piece>
  </UnstructuredGrid>
</VTKFile>
