<?xml version="1.0"?>
<VTKFile type="UnstructuredGrid" version="0.1" byte_order="LittleEndian" header_type="UInt32" compressor="vtkZLibDataCompressor">
  <UnstructuredGrid>
    <Piece NumberOfPoints="25" NumberOfCells="16">
      <PointData>
        <DataArray type="Float64" Name="nsi_BC" NumberOfComponents="3" format="ascii" RangeMin="0" RangeMax="0">
          0 0 0 0 0 0
          0 0 0 0 0 0
          0 0 0 0 0 0
          0 0 0 0 0 0
          0 0 0 0 0 0
          0 0 0 0 0 0
          0 0 0 0 0 0
          0 0 0 0 0 0
          0 0 0 0 0 0
          0 0 0 0 0 0
          0 0 0 0 0 0
          0 0 0 0 0 0
          0 0 0
          <InformationKey name="L2_NORM_RANGE" location="vtkDataArray" length="2">
            <Value index="0">
              0
            </Value>
            <Value index="1">
              0
            </Value>
          </InformationKey>
        </DataArray>
        <DataArray type="Float64" Name="nsi_FIXNO" NumberOfComponents="3" format="ascii" RangeMin="1.4142135623730951" RangeMax="1.4142135623730951">
          1 1 0 1 1 0
          1 1 0 -1 -1 0
          1 1 0 1 1 0
          -1 -1 0 -1 -1 0
          -1 -1 0 1 1 0
          1 1 0 -1 -1 0
          -1 -1 0 -1 -1 0
          -1 -1 0 1 1 0
          1 1 0 1 1 0
          1 1 0 -1 -1 0
          1 1 0 1 1 0
          1 1 0 1 1 0
          1 1 0
          <InformationKey name="L2_NORM_RANGE" location="vtkDataArray" length="2">
            <Value index="0">
              1.4142135624
            </Value>
            <Value index="1">
              1.4142135624
            </Value>
          </InformationKey>
        </DataArray>
        <DataArray type="Float64" Name="Velocity" NumberOfComponents="3" format="ascii" RangeMin="0" RangeMax="0.07575261820568613">
          0 0 0 0 0 0
          0 0 0 -0.030309466729106515 0.017181797357080655 0
          0 0 0 0 0 0
          0.03509434854971583 -0.00005172677832891454 0 1.8469236475610051e-7 -0.07575261820546098 0
          6.543041148818207e-9 6.5399645633908154e-9 0 0 0 0
          0 0 0 -0.030384272782342816 -0.017328282087296178 0
          0.030384269884694302 0.017328279211461066 0 -1.8939847043659974e-7 0.07575261462493427 0
          -0.03509435212147008 0.00005172207216999278 0 0 0 0
          0 0 0 0 0 0
          0 0 0 0.030309470957121568 -0.017181793128226312 0
          0 0 0 0 0 0
          0 0 0 0 0 0
          0 0 0
          <InformationKey name="L2_NORM_RANGE" location="vtkDataArray" length="2">
            <Value index="0">
              0
            </Value>
            <Value index="1">
              0.075752618206
            </Value>
          </InformationKey>
        </DataArray>
        <DataArray type="Float64" Name="Pressure" format="ascii" RangeMin="-0.8368258836730258" RangeMax="1.1077003149552793">
          0 -0.22084263482101146 -0.1499952794372923 -0.8368258836629441 0.13489832361990983 0.13573188911422265
          0.13489042450436517 0.1340822936894795 0.13477622862250635 0.49138765867142886 0.421621587341799 1.1077003149552793
          1.1077002850578 0.1340824836807843 0.13489023476765716 0.27151053268464764 0.27151019920430763 0.49138784292935733
          0.4216214030225438 -0.8368258836730258 0.13489823789555405 0.13573197495546196 -0.220842834080479 -0.14999508001660575
          1.2749401534506433e-10
        </DataArray>
        <DataArray type="Float64" Name="Sigma" NumberOfComponents="6" format="ascii" RangeMin="0.004064583642899411" RangeMax="0.3488004937981873">
          0.007395169849090416 -0.02581998236626512 0 0.20997478569424144 0 0
          0.011955130968687389 0.03820849436551116 0 0.06765631979593495 0 0
          -0.028850851340808892 0.0858461976774085 0 -0.03356223071875407 0 0
          -0.11451158044859366 0.04435173957292826 0 0.00968905210356757 0 0
          -0.00010143074856291956 0.00007632855551389928 0 -0.15406276013784767 0 0
          0.0001864414082777821 -0.00020601518206608826 0 -0.3488003831293844 0 0
          -0.0001401967805900739 0.0001759290367643329 0 0.004058353610377095 0 0
          -0.00031001082896003895 0.00036022517972006396 0 -0.03844397975301077 0 0
          0.0004335782891765616 -0.0004281846352465757 0 0.2543041832449538 0 0
          -0.011953476240573635 -0.038310586210261066 0 0.06776126156569662 0 0
          0.028512886358665668 -0.08557968877165134 0 -0.033289999043094015 0 0
          0.1148207474100118 -0.044660909811311766 0 0.009715382448177165 0 0
          0.1148207506799932 -0.044660906534174316 0 0.009715365302694252 0 0
          -0.00031000890164170625 0.00036023457166270423 0 -0.038444007122780094 0 0
          -0.00014020615802814995 0.00017592708788810585 0 0.004058380890125256 0 0
          -0.007195619180185159 0.025698994918883333 0 0.20993724827961388 0 0
          -0.007195617808192778 0.025698996340485003 0 0.20993721553318961 0 0
          -0.011953452655513397 -0.03831061080245801 0 0.06776123593324537 0 0
          0.02851291097915476 -0.08557971240424256 0 -0.033289973454325425 0 0
          -0.11451155581815353 0.04435171494930357 0 0.009689052141056337 0 0
          -0.00010141975200345099 0.00007632846567437457 0 -0.15406276726557386 0 0
          0.000186441474572141 -0.00020602614749740122 0 -0.34880037594344176 0 0
          0.011955113742089796 0.03820850679095228 0 0.06765636877743916 0 0
          -0.028850863766290466 0.08584621489569652 0 -0.03356227970132601 0 0
          0.0073951365110389786 -0.025819949028397987 0 0.20997478567517563 0 0
          <InformationKey name="L2_NORM_RANGE" location="vtkDataArray" length="2">
            <Value index="0">
              0.0040645836429
            </Value>
            <Value index="1">
              0.3488004938
            </Value>
          </InformationKey>
        </DataArray>
      </PointData>
      <CellData>
        <DataArray type="UInt8" Name="vtkGhostType" format="ascii" RangeMin="0" RangeMax="0">
          0 0 0 0 0 0
          0 0 0 0 0 0
          0 0 0 0
        </DataArray>
      </CellData>
      <Points>
        <DataArray type="Float32" Name="Points" NumberOfComponents="3" format="ascii" RangeMin="0" RangeMax="1.4142135623730951">
          0 1 0 0.25 1 0
          0 0.75 0 0.25 0.75 0
          0.5 1 0 0 0.5 0
          0.5 0.75 0 0.25 0.5 0
          0.5 0.5 0 0.75 1 0
          0 0.25 0 0.75 0.75 0
          0.25 0.25 0 0.75 0.5 0
          0.5 0.25 0 0 0 0
          1 1 0 0.25 0 0
          1 0.75 0 0.75 0.25 0
          0.5 0 0 1 0.5 0
          0.75 0 0 1 0.25 0
          1 0 0
          <InformationKey name="L2_NORM_RANGE" location="vtkDataArray" length="2">
            <Value index="0">
              0
            </Value>
            <Value index="1">
              1.4142135624
            </Value>
          </InformationKey>
        </DataArray>
      </Points>
      <Cells>
        <DataArray type="Int64" Name="connectivity" format="ascii" RangeMin="0" RangeMax="24">
          17 12 10 15 20 14
          12 17 22 19 14 20
          24 23 19 22 12 7
          5 10 14 8 7 12
          19 13 8 14 23 21
          13 19 7 3 2 5
          8 6 3 7 13 11
          6 8 21 18 11 13
          3 1 0 2 6 4
          1 3 11 9 4 6
          18 16 9 11
        </DataArray>
        <DataArray type="Int64" Name="offsets" format="ascii" RangeMin="4" RangeMax="64">
          4 8 12 16 20 24
          28 32 36 40 44 48
          52 56 60 64
        </DataArray>
        <DataArray type="UInt8" Name="types" format="ascii" RangeMin="9" RangeMax="9">
          9 9 9 9 9 9
          9 9 9 9 9 9
          9 9 9 9
        </DataArray>
      </Cells>
    </Piece>
  </UnstructuredGrid>
</VTKFile>
