<?xml version="1.0"?>
<VTKFile type="UnstructuredGrid" version="0.1" byte_order="LittleEndian" header_type="UInt32" compressor="vtkZLibDataCompressor">
  <UnstructuredGrid>
    <Piece NumberOfPoints="94" NumberOfCells="150">
      <PointData>
        <DataArray type="Float64" Name="Velocity" NumberOfComponents="3" format="ascii" RangeMin="3.409232856713072e-23" RangeMax="2.7535993612305085">
          2.653323518775741 0 0 2.610440028365138 0.1958490988744859 0
          2.7044278770822747 0.3099592199020289 0 2.311545291804449 0 0
          1.9338676323702622 0.3893270549517687 0 2.413601033434391 0.30870614440201744 0
          2.5909064413927867 0.5371526668023704 0 1.9837941079882966 0.38127250445750527 0
          1.0029119571499334 0.34445625982520967 0 1.838566137211165 0 0
          2.152111743877294 0.535805906770362 0 2.177903140445579 0.4215242410015339 0
          2.4285696367459293 0.7709604620688059 0 0.2839200201762298 0.2603955282573768 0
          1.2053212051075581 0.4170843977046144 0 2.4149768484712655 0.8269841452945675 0
          0.0712117941518142 0.19378452848968122 0 2.2434058817689198 0.7617120849515769 0
          0.42412278744105286 0.2771062224676218 0 1.656706499710943 0.7765311423466703 0
          -0.009075223484528465 -0.007228519278527669 0 2.360860496893395 1.1264527516175713 0
          1.7252342344237017 0.2998717228391796 0 -0.006393898952062281 -0.0076761849145931685 0
          0.924608488314281 0.5119648563383358 0 2.092610588864732 0.9114944364335269 0
          2.0562645756015594 1.3462934813533742 0 -0.009629277194214168 -0.008937389731894025 0
          -0.00700075494983491 -0.009128365061943148 0 2.032532828032298 1.1176995225956181 0
          1.7082856816010923 1.5193984069054318 0 1.410189497736415 0 0
          -0.004574037333773186 -0.008194051346936591 0 -0.0027382692238693707 -0.006428725569317706 0
          1.8428315246948002 1.3792019930056265 0 1.1034687116177089 1.6493071921724218 0
          1.6723654175261036 0.6437998368891155 0 -0.0015115160456514577 -0.004247374248655929 0
          1.7247703045190272 1.019767626447727 0 1.5497612198203639 1.5278813923675967 0
          -0.0009887472447352313 -0.002133023130434998 0 1.0932964129305378 1.5805547677684315 0
          0.319739186015857 0.7959418690532577 0 3.409232856713072e-23 0 0
          1.5226061569207436 1.1280986284915662 0 1.2282951154362525 1.4372295707543632 0
          0.9360300171303199 1.3888159296754583 0 1.4437043109597072 0.7419114043525772 0
          1.265320963554857 0.19829850419701342 0 0.4404311431710243 0.7391830171087556 0
          1.3205262149776535 1.0510485099445892 0 1.077261114785942 1.171196138624396 0
          1.3560065532821726 0.8250570540240424 0 0.7887863728788707 1.0260451234208752 0
          0.19646070289678236 0 0 1.146891749495322 0.9605038038486575 0
          1.2934247925243176 0.6418938978707032 0 0.34836317289007807 0.26824285826462857 0
          0.9496815060318088 0.9276985119217446 0 0.6530514352340737 0.5432728423678116 0
          1.2303026403120183 0.3818374558795703 0 1.2123060062849733 0.5993828786085512 0
          1.113832144119065 0 0 1.0439310820862453 0.679122833492743 0
          0.49632171350673854 0 0 0.8897412461834554 0.6239737604588448 0
          0.8294245839030914 0.4863384849480471 0 1.039558594376668 0.1247273723515215 0
          0.7714704903225994 0.2840246968067577 0 0.7358842683577772 0 0
          1.0498934133728886 0.22449968022794406 0 1.0486299926556204 0.34856927291198814 0
          0.9799061124105408 0.32052026534878475 0 0.9537790715729422 0.2526609165882369 0
          0.9102272536471449 0.15131439664723154 0 0.9205607689222648 0 0
          1.0000000001369758 0 0 1.0000000001369758 0 0
          1.0000000001369758 0 0 1.0029285934489331 0 0
          1.0000000001369758 0 0 1.0000000001369758 0 0
          1.0000000001369758 0 0 1.0000000001369758 0 0
          2.7478017473200818 0.1285529798438328 0 2.7535993612305085 0 0
          0.1565772666858654 0.30112635030305707 0 0.2764894492349394 0.30278143269211255 0
          0.990421703733982 0.2607869177856898 0 1.0511498920050302 0.26713058502466286 0
          1.9935109474576336 0.24185543404700358 0 2.0692882892805895 0.14773878419875677 0
          0.1013748623664497 0.26373780688701376 0 -0.003989531479754467 -0.0072784963693273115 0
          <InformationKey name="L2_NORM_RANGE" location="vtkDataArray" length="2">
            <Value index="0">
              3.4092328567e-23
            </Value>
            <Value index="1">
              2.7535993612
            </Value>
          </InformationKey>
        </DataArray>
        <DataArray type="Float64" Name="Pressure" format="ascii" RangeMin="-3.2830156755513844" RangeMax="5.960881526583452">
          -2.2778551644261946 -2.0389384148811183 -2.6040405666461397 -0.8649393594867794 -2.930052346477375 -0.9362995765229585
          -1.768964022512975 -2.641279790586531 -2.8330615923143374 0.9245092101652913 -2.385468473722561 0.0967560584045638
          -1.6055561022667912 -2.858955020869757 -2.732569944464993 -1.88368418272659 -2.7739899816669675 -0.12089977596771549
          -2.776765315361884 -2.4891550095214257 -2.55795798063889 -0.8335786117766321 1.425107191695503 -2.7977904157234104
          -2.2916134318662746 0.4881385697524782 -1.165504569739305 -0.23698614551178696 2.728201604969026 0.5860483160554645
          -0.8469567443684262 2.19603033650951 4.15977367215215 5.186343589655221 0.6412179603344327 1.0362030930345585
          1.7365535208935983 5.742062298247898 1.6042964760937284 1.439077622690573 5.892357177761801 2.864072024193789
          4.713089101547286 5.952075771569846 2.1020781339478223 2.663341799153119 3.941491823830161 2.3481379535542017
          2.5738037672942466 5.408016707353494 2.760168799666348 3.599940023770899 2.7568463820818616 4.8721692598958395
          5.960881526583452 3.4509693771454697 2.8124463566632416 5.894550349554922 4.340746898870158 5.682141369119116
          2.9129116083971804 3.2727615191487875 2.983859464891804 3.9686905794972636 5.889490266501757 4.707194361325066
          5.307180184541526 3.118853590107025 5.604476858651506 5.642048577461012 3.456323174912781 3.888192251745213
          4.529309731908062 5.007801611872341 5.331057221409953 5.476728816579927 3.1248657804528728 3.3128420524138225
          3.7956246999484864 5.375777578700353 4.428156203246557 4.928953670850187 5.226857756823199 5.325098840869054
          -3.237181191539031 -2.8897527782558865 -2.905242916019365 -2.9510146712523966 -2.945214015313478 -3.1439589666619776
          -3.059333000429552 -3.2830156755513844 -2.8401608114269496 -2.825472353578406
        </DataArray>
        <DataArray type="Float64" Name="BTraction" NumberOfComponents="3" format="ascii" RangeMin="0" RangeMax="5.9168342107716905">
          -0.004240645637458944 2.1198596005502206 0 0 0 0
          0 0 0 -0.008693312234872637 0.7552802427726527 0
          0 0 0 0 0 0
          0 0 0 0 0 0
          0 0 0 -0.007638110774741393 -0.8952052106310802 0
          0 0 0 0 0 0
          0 0 0 0 0 0
          0 0 0 0 0 0
          0 0 0 0 0 0
          0 0 0 0 0 0
          -1.837212491159711 -0.33542717298431024 0 0 0 0
          0 0 0 -2.654623489577474 0.792658509066718 0
          0 0 0 0 0 0
          0 0 0 -0.8275799076322423 -0.5187334306223186 0
          -2.6263848032670354 0.5348018931456121 0 0 0 0
          0 0 0 -0.0003921231608029906 -2.163609161468792 0
          -4.066293770189699 1.0500517631477873 0 -4.985117534120632 1.2981128165886624 0
          0 0 0 0 0 0
          0 0 0 -5.565972813734243 1.295781706316835 0
          0 0 0 0 0 0
          -5.849748753199523 0.8884630561812242 0 0 0 0
          0 0 0 -2.968847300665026 3.2667200897610607 0
          0 0 0 0 0 0
          0 0 0 0 0 0
          0 0 0 0 0 0
          0 0 0 0 0 0
          0 0 0 0 0 0
          -0.003923359264523156 5.91496500050436 0 0 0 0
          0 0 0 0 0 0
          0 0 0 0 0 0
          0 0 0 0 0 0
          0.0036046732481194157 -2.904251138880016 0 0 0 0
          -0.006700215022792785 5.799871022418883 0 0 0 0
          0 0 0 0 0 0
          0 0 0 -0.0073781481811910025 5.607593208345193 0
          0 0 0 0 0 0
          0 0 0 0 0 0
          0 0 0 -0.002968906450075023 5.449316952791622 0
          1.5917417641861453 -1.5514986385783383 0 3.349488880469902 -0.009696032071955896 0
          3.8043796893439317 -0.01584093940218043 0 0.0005124326452818979 5.371427604006824 0
          4.3877574863964455 -0.018670350244758317 0 4.890267640232237 -0.017142739482922737 0
          5.1931653410130085 -0.008026387908515687 0 3.0523601238153586 2.260610082024078 0
          0 0 0 -0.0017933101517504195 2.8291714101026506 0
          0 0 0 0 0 0
          0 0 0 0 0 0
          0 0 0 0 0 0
          0 0 0 -2.7096470476613073 0.7901833973668088 0
          <InformationKey name="L2_NORM_RANGE" location="vtkDataArray" length="2">
            <Value index="0">
              0
            </Value>
            <Value index="1">
              5.9168342108
            </Value>
          </InformationKey>
        </DataArray>
        <DataArray type="Float64" Name="ALEdispl" NumberOfComponents="3" format="ascii" RangeMin="0" RangeMax="2.620406312158826">
          0 0 0 0.8214849310119625 -0.0979271654846127 0
          1.6189580461948685 -0.3492025839049044 0 0 0 0
          2.075093507616676 -0.5622179190323988 0 1.0288847193044859 -0.15975903499263897 0
          1.9146291909254527 -0.42541440539121317 0 2.236904932644591 -0.5884910867626966 0
          2.3918440635394247 -0.6475339288232239 0 0 0 0
          2.346387387603178 -0.5324237027499275 0 1.3269613225706451 -0.19697113275088582 0
          2.229771057551434 -0.40752088580059126 0 2.4329485837060183 -0.6700485344191494 0
          2.516582929152672 -0.5602861956688 0 2.445338418228529 -0.4273057307441735 0
          2.340559191831961 -0.641712880508325 0 2.0878471525275177 -0.28058968595163336 0
          2.530469073176288 -0.5429029250161095 0 2.5912361543894424 -0.3899031071777094 0
          2.414657217554929 -0.48128113762237973 0 2.4863810244398246 -0.2709202705599422 0
          1.1241454966946811 -0.09710621809457207 0 1.962997162905608 -0.4112691540341937 0
          2.5800521398908454 -0.3178107242882619 0 2.241715463592692 -0.19474433410651226 0
          2.5782124928975185 -0.21306482917457814 0 2.4608982935663066 -0.18059020202312204 0
          2.011722215327125 -0.11217272175253135 0 2.407448706953541 -0.12954290897188286 0
          2.5347455116067095 -0.10382805985544234 0 0 0 0
          1.5312149037242666 -0.04291690328560489 0 1.0057243597235679 0.02335478605959316 0
          2.4773889177194657 -0.04700926474965271 0 2.345356225646816 0.008673772236419408 0
          1.9664783849610903 -0.08569392379995706 0 0.5000228900783383 0.07121243426450503 0
          2.2917878030821672 -0.01997949494597968 0 2.3975970277711363 0.05896094038724855 0
          0.14828770797054466 0.06739812234315358 0 2.0107996225247264 0.13677241064047077 0
          1.3094303041344137 0.15438277837968228 0 0 0 0
          2.290217892896183 0.0706950069079143 0 2.196022603511071 0.18353152069664597 0
          1.598500377906303 0.22984749662058862 0 2.0624675352443655 0.0159099932847243 0
          0.950885341517954 -0.13204682852717145 0 0.8974319464648356 0.25754618520997213 0
          2.1751428450960577 0.17132298231110032 0 1.8701858817677224 0.3007622938630023 0
          2.062771383058266 0.11727406388866259 0 1.2533499709046887 0.33800015977180725 0
          0 0 0 1.9622844852515646 0.2894547195782377 0
          1.8543747001959503 0.0878918991132596 0 0.24089815633599407 0.18365783367080535 0
          1.5151789311481059 0.38230508690864035 0 0.5745892284785727 0.2973118882438394 0
          1.4801548405295883 -0.04811382212180478 0 1.8110019420227226 0.17807512792912772 0
          0 0 0 1.6479290582397825 0.3707479089309242 0
          0 0 0 1.1953604898560402 0.44642636515048123 0
          0.7769054292523254 0.4373753302141142 0 0.7636365978554436 -0.16626426354761475 0
          0.3690978390360451 0.2857081707690571 0 0 0 0
          0.9405066188196095 0.022559536827091237 0 1.0912171010324305 0.22946587255465425 0
          0.8755321845996012 0.35705606661228384 0 0.6454590912962502 0.3913097158668686 0
          0.3623806904434309 0.3075956181400084 0 0 0 0
          0 0 0 0 0 0
          0 0 0 0 0 0
          0 0 0 0 0 0
          0 0 0 0 0 0
          1.3356192744717148 -0.1423935416465897 0 0 0 0
          2.262002164458761 -0.7609814925404036 0 2.3144612440698045 -0.7426667456065728 0
          2.2522684159028223 -0.6800623701949182 0 2.0929206851097315 -0.6548230493673347 0
          1.8695100786715007 -0.4845278904458428 0 1.6812819800113794 -0.3847461306170272 0
          2.047296200402155 -0.6990827111099676 0 1.4731847645196534 -0.33290973457623885 0
          <InformationKey name="L2_NORM_RANGE" location="vtkDataArray" length="2">
            <Value index="0">
              0
            </Value>
            <Value index="1">
              2.6204063122
            </Value>
          </InformationKey>
        </DataArray>
        <DataArray type="Float64" Name="ALEveloc" NumberOfComponents="3" format="ascii" RangeMin="0" RangeMax="0.013797394689935617">
          0 0 0 -0.00399702636653565 -0.002302960110448643 0
          -0.007615066420539218 -0.003532806735692229 0 0 0 0
          -0.009229420510134645 -0.004137052985464851 0 -0.004761689915396827 -0.002005558824887177 0
          -0.008538194303573832 -0.00382952753737853 0 -0.009713373037059991 -0.004585004807013737 0
          -0.009991911733134184 -0.005134330732082137 0 0 0 0
          -0.01004294216210333 -0.005070035671679185 0 -0.005807631953385961 -0.0019871484849650622 0
          -0.009601746713930659 -0.00466962076785038 0 -0.009711150223262965 -0.005617025796290642 0
          -0.010324115981010351 -0.006008661730707909 0 -0.010356316959164502 -0.005739229637379051 0
          -0.008800092410625737 -0.0061032028488621215 0 -0.009194968851273355 -0.004026897371456506 0
          -0.010004587385878061 -0.006645771160148084 0 -0.01065606007873976 -0.007165622119497561 0
          -0.009075223483285377 -0.007228519277537537 0 -0.01042916947327388 -0.00692632349580613 0
          -0.005184097864810777 -0.0015011986480047423 0 -0.006393898951186472 -0.007676184913541717 0
          -0.010359919151089692 -0.008133732190686027 0 -0.0094264153008492 -0.006255462379432086 0
          -0.01058507881505566 -0.008335286482109072 0 -0.009629277192895191 -0.00893738973066982 0
          -0.007000754948875976 -0.009128365060692784 0 -0.009822925228249346 -0.008044181174436671 0
          -0.01021655550869216 -0.009273084371862222 0 0 0 0
          -0.004574037333146652 -0.008194051345814204 0 -0.002738269223494294 -0.006428725568437127 0
          -0.009919420405886115 -0.009175182794520544 0 -0.009175896420862806 -0.009903102037604507 0
          -0.007978413810552976 -0.006698370613037574 0 -0.0015115160454444165 -0.004247374248074143 0
          -0.008942329473989652 -0.008595900712234629 0 -0.009448462652270617 -0.009802641030940168 0
          -0.000988747244599797 -0.002133023130142825 0 -0.007702461415031614 -0.010002822664122168 0
          -0.004237828507451802 -0.008156558527573882 0 0 0 0
          -0.008775459753453507 -0.009272588730966244 0 -0.008639728184983042 -0.010102841377166605 0
          -0.006019409773654338 -0.009297090390572027 0 -0.007578101505773205 -0.008210654617029502 0
          -0.003926697834442772 -0.0032651793121500072 0 -0.002933058770252739 -0.006693622858889803 0
          -0.00828186351469773 -0.009472453311760776 0 -0.007412206796033161 -0.009898303800994934 0
          -0.007568407630961449 -0.008689692338411603 0 -0.00471437580741596 -0.008478661108758168 0
          0 0 0 -0.007728400641282551 -0.009489217912558301 0
          -0.006563317425248183 -0.007873021009419057 0 -0.0008650090397598897 -0.0022864387990209623 0
          -0.006146629081179356 -0.009157881864808037 0 -0.002005544340480503 -0.005105103599233107 0
          -0.004499215181163141 -0.006233586489349741 0 -0.00644567388003825 -0.007891783690487042 0
          0 0 0 -0.006614825230321308 -0.0085950152596741 0
          0 0 0 -0.005158347195803437 -0.008097583593796753 0
          -0.00331448886643404 -0.006569722633999353 0 -0.0017126220552197147 -0.0031297520711963678 0
          -0.0013410853461547356 -0.003515451851106244 0 0 0 0
          -0.002742983050792791 -0.0039040335415317096 0 -0.0040533138269784885 -0.005195711332002251 0
          -0.0038282924997830037 -0.0052722595957939156 0 -0.003042648648408419 -0.004821893472316319 0
          -0.0016254447114419923 -0.003187158555970182 0 0 0 0
          0 0 0 0 0 0
          0 0 0 0 0 0
          0 0 0 0 0 0
          0 0 0 0 0 0
          -0.006497892686316842 -0.003138751825419034 0 0 0 0
          -0.008700268886402185 -0.005054916510902174 0 -0.009440166400447758 -0.0047284591160670075 0
          -0.009636006363714422 -0.004415705248712154 0 -0.009181452803814771 -0.003821354796327392 0
          -0.008577535024261174 -0.003638275362803811 0 -0.007841140726205342 -0.003311711057239042 0
          -0.007340964423915963 -0.005597548273382769 0 -0.003989531479207997 -0.007278496368330334 0
          <InformationKey name="L2_NORM_RANGE" location="vtkDataArray" length="2">
            <Value index="0">
              0
            </Value>
            <Value index="1">
              0.01379739469
            </Value>
          </InformationKey>
        </DataArray>
      </PointData>
      <CellData>
        <DataArray type="UInt8" Name="vtkGhostType" format="ascii" RangeMin="0" RangeMax="1">
          0 0 0 0 0 0
          0 0 1 0 0 1
          0 1 0 0 1 1
          1 0 0 0 0 0
          1 1 0 1 1 0
          1 1 0 1 0 0
          0 0 0 0 0 0
          0 0 0 0 0 0
          0 0 0 0 0 0
          0 0 0 0 0 0
          0 0 0 0 0 0
          0 0 0 0 0 0
          0 0 0 0 0 0
          0 0 0 0 0 0
          0 1 0 0 0 0
          0 0 0 1 0 0
          0 0 0 0 0 1
          0 0 0 0 0 0
          0 0 0 0 0 0
          0 0 0 0 0 0
          0 0 0 0 0 0
          0 0 0 0 0 0
          0 1 0 0 0 0
          0 0 0 0 0 0
          0 0 0 0 0 0
        </DataArray>
        <DataArray type="Float64" Name="PStrain" NumberOfComponents="6" format="ascii" RangeMin="0.0065085593136918205" RangeMax="2.2327874006640664">
          0.009821055840177907 0.009821055840177907 0 0.009821055840177907 0 0
          0.011928543576741732 0.011928543576741732 0 0.011928543576741732 0 0
          0.014549536290275718 0.014549536290275718 0 0.014549536290275718 0 0
          0.011713821743740435 0.011713821743740435 0 0.011713821743740435 0 0
          0.008522275571652603 0.008522275571652603 0 0.008522275571652603 0 0
          0.008121812327944245 0.008121812327944245 0 0.008121812327944245 0 0
          0.007385912141511868 0.007385912141511868 0 0.007385912141511868 0 0
          0.010404165237588105 0.010404165237588105 0 0.010404165237588105 0 0
          0.008948093258586908 0.008948093258586908 0 0.008948093258586908 0 0
          0.007372315099923702 0.007372315099923702 0 0.007372315099923702 0 0
          0.009164396862140855 0.009164396862140855 0 0.009164396862140855 0 0
          0.0056984922355674365 0.0056984922355674365 0 0.0056984922355674365 0 0
          0.0070239906333948755 0.0070239906333948755 0 0.0070239906333948755 0 0
          0.004666419824835701 0.004666419824835701 0 0.004666419824835701 0 0
          0.07540232971584386 0.07540232971584386 0 0.07540232971584386 0 0
          0.05083745460708987 0.05083745460708987 0 0.05083745460708987 0 0
          0.08879912395040528 0.08879912395040528 0 0.08879912395040528 0 0
          0.09067345657076767 0.09067345657076767 0 0.09067345657076767 0 0
          0.04496415786530851 0.04496415786530851 0 0.04496415786530851 0 0
          0.0522208973636503 0.0522208973636503 0 0.0522208973636503 0 0
          0.04022177730613387 0.04022177730613387 0 0.04022177730613387 0 0
          0.02320223178222072 0.02320223178222072 0 0.02320223178222072 0 0
          0.019764917211735136 0.019764917211735136 0 0.019764917211735136 0 0
          0.02322872948631753 0.02322872948631753 0 0.02322872948631753 0 0
          0.04127221431717172 0.04127221431717172 0 0.04127221431717172 0 0
          0.02425645746016868 0.02425645746016868 0 0.02425645746016868 0 0
          0.020964597200383402 0.020964597200383402 0 0.020964597200383402 0 0
          0.027886643783068682 0.027886643783068682 0 0.027886643783068682 0 0
          0.016882388484931097 0.016882388484931097 0 0.016882388484931097 0 0
          0.02413154310802656 0.02413154310802656 0 0.02413154310802656 0 0
          0.015200548590121318 0.015200548590121318 0 0.015200548590121318 0 0
          0.012979611754770973 0.012979611754770973 0 0.012979611754770973 0 0
          0.014601364209280612 0.014601364209280612 0 0.014601364209280612 0 0
          0.006839449673855221 0.006839449673855221 0 0.006839449673855221 0 0
          0.09999999999999999 0.09999999999999999 0 0.09999999999999999 0 0
          0.004804224696837896 0.004804224696837896 0 0.004804224696837896 0 0
          0.011461011295068026 0.011461011295068026 0 0.011461011295068026 0 0
          0.007364949587020072 0.007364949587020072 0 0.007364949587020072 0 0
          0.005451222610466846 0.005451222610466846 0 0.005451222610466846 0 0
          0.013939512829465959 0.013939512829465959 0 0.013939512829465959 0 0
          0.027531986028848043 0.027531986028848043 0 0.027531986028848043 0 0
          0.03288230812705381 0.03288230812705381 0 0.03288230812705381 0 0
          0.013239848364429376 0.013239848364429376 0 0.013239848364429376 0 0
          0.04290251919737722 0.04290251919737722 0 0.04290251919737722 0 0
          0.01964088122444444 0.01964088122444444 0 0.01964088122444444 0 0
          0.05577227811173707 0.05577227811173707 0 0.05577227811173707 0 0
          0.012339822993965847 0.012339822993965847 0 0.012339822993965847 0 0
          0.00801805871497672 0.00801805871497672 0 0.00801805871497672 0 0
          0.04958796556488706 0.04958796556488706 0 0.04958796556488706 0 0
          0.03166585704411258 0.03166585704411258 0 0.03166585704411258 0 0
          0.036924908713229725 0.036924908713229725 0 0.036924908713229725 0 0
          0.024432570001967472 0.024432570001967472 0 0.024432570001967472 0 0
          0.010054984157412988 0.010054984157412988 0 0.010054984157412988 0 0
          0.015492045384392451 0.015492045384392451 0 0.015492045384392451 0 0
          0.02960792976450767 0.02960792976450767 0 0.02960792976450767 0 0
          0.029680325417067104 0.029680325417067104 0 0.029680325417067104 0 0
          0.027368301288286746 0.027368301288286746 0 0.027368301288286746 0 0
          0.013136874704007834 0.013136874704007834 0 0.013136874704007834 0 0
          0.016919121255653657 0.016919121255653657 0 0.016919121255653657 0 0
          0.012087009240073639 0.012087009240073639 0 0.012087009240073639 0 0
          0.004231381531945614 0.004231381531945614 0 0.004231381531945614 0 0
          0.007455696602184378 0.007455696602184378 0 0.007455696602184378 0 0
          0.01360199695626493 0.01360199695626493 0 0.01360199695626493 0 0
          0.01105510091929665 0.01105510091929665 0 0.01105510091929665 0 0
          0.009181390028685598 0.009181390028685598 0 0.009181390028685598 0 0
          0.006221390188940079 0.006221390188940079 0 0.006221390188940079 0 0
          0.0037577184717966184 0.0037577184717966184 0 0.0037577184717966184 0 0
          1.2891004068166034 1.2891004068166034 0 1.2891004068166034 0 0
          0.8288322398483674 0.8288322398483674 0 0.8288322398483674 0 0
          0.8457282411608352 0.8457282411608352 0 0.8457282411608352 0 0
          0.8823747255708605 0.8823747255708605 0 0.8823747255708605 0 0
          0.20747175846204452 0.20747175846204452 0 0.20747175846204452 0 0
          0.23292702589986386 0.23292702589986386 0 0.23292702589986386 0 0
          1.1210771467412888 1.1210771467412888 0 1.1210771467412888 0 0
          0.5627044956737345 0.5627044956737345 0 0.5627044956737345 0 0
          0.14838635125837207 0.14838635125837207 0 0.14838635125837207 0 0
          0.2284084176795202 0.2284084176795202 0 0.2284084176795202 0 0
          0.05973565283542988 0.05973565283542988 0 0.05973565283542988 0 0
          0.29651055682042954 0.29651055682042954 0 0.29651055682042954 0 0
          0.20529050750826633 0.20529050750826633 0 0.20529050750826633 0 0
          0.19431036903296198 0.19431036903296198 0 0.19431036903296198 0 0
          0.5502278802888234 0.5502278802888234 0 0.5502278802888234 0 0
          0.15526103478084782 0.15526103478084782 0 0.15526103478084782 0 0
          0.24169450555677036 0.24169450555677036 0 0.24169450555677036 0 0
          0.12081653366654466 0.12081653366654466 0 0.12081653366654466 0 0
          0.2674077098338269 0.2674077098338269 0 0.2674077098338269 0 0
          0.08171060005668213 0.08171060005668213 0 0.08171060005668213 0 0
          0.0543063912065595 0.0543063912065595 0 0.0543063912065595 0 0
          0.3581415485250567 0.3581415485250567 0 0.3581415485250567 0 0
          0.0699175141759533 0.0699175141759533 0 0.0699175141759533 0 0
          0.02155411127089272 0.02155411127089272 0 0.02155411127089272 0 0
          0.07974834379959914 0.07974834379959914 0 0.07974834379959914 0 0
          0.027236141435895176 0.027236141435895176 0 0.027236141435895176 0 0
          0.24654569116426567 0.24654569116426567 0 0.24654569116426567 0 0
          0.14297035083640905 0.14297035083640905 0 0.14297035083640905 0 0
          0.07994808203499619 0.07994808203499619 0 0.07994808203499619 0 0
          0.3048923403894068 0.3048923403894068 0 0.3048923403894068 0 0
          0.09125730137776283 0.09125730137776283 0 0.09125730137776283 0 0
          0.051549059673844794 0.051549059673844794 0 0.051549059673844794 0 0
          0.1437336571913807 0.1437336571913807 0 0.1437336571913807 0 0
          0.07333225838912258 0.07333225838912258 0 0.07333225838912258 0 0
          0.1443706205381916 0.1443706205381916 0 0.1443706205381916 0 0
          0.03303605379229094 0.03303605379229094 0 0.03303605379229094 0 0
          0.17628089640245076 0.17628089640245076 0 0.17628089640245076 0 0
          0.16467160525031466 0.16467160525031466 0 0.16467160525031466 0 0
          0.18556364746722914 0.18556364746722914 0 0.18556364746722914 0 0
          0.03190544106613555 0.03190544106613555 0 0.03190544106613555 0 0
          0.028898527677916452 0.028898527677916452 0 0.028898527677916452 0 0
          0.14563345509039916 0.14563345509039916 0 0.14563345509039916 0 0
          0.08770714934431384 0.08770714934431384 0 0.08770714934431384 0 0
          0.0826896246167004 0.0826896246167004 0 0.0826896246167004 0 0
          0.02713363159401009 0.02713363159401009 0 0.02713363159401009 0 0
          0.17300467216421123 0.17300467216421123 0 0.17300467216421123 0 0
          0.043963035999871586 0.043963035999871586 0 0.043963035999871586 0 0
          0.06973338363848419 0.06973338363848419 0 0.06973338363848419 0 0
          0.04839218680773899 0.04839218680773899 0 0.04839218680773899 0 0
          0.07093927089875261 0.07093927089875261 0 0.07093927089875261 0 0
          0.05597330039673104 0.05597330039673104 0 0.05597330039673104 0 0
          0.036641184377000945 0.036641184377000945 0 0.036641184377000945 0 0
          0.08391977234053127 0.08391977234053127 0 0.08391977234053127 0 0
          0.09928652908618694 0.09928652908618694 0 0.09928652908618694 0 0
          0.09214099326713374 0.09214099326713374 0 0.09214099326713374 0 0
          0.014568003327511573 0.014568003327511573 0 0.014568003327511573 0 0
          0.10348797072363147 0.10348797072363147 0 0.10348797072363147 0 0
          0.0903597530247719 0.0903597530247719 0 0.0903597530247719 0 0
          0.027751531674924786 0.027751531674924786 0 0.027751531674924786 0 0
          0.049306109937394926 0.049306109937394926 0 0.049306109937394926 0 0
          0.06604626291201872 0.06604626291201872 0 0.06604626291201872 0 0
          0.0678226580014818 0.0678226580014818 0 0.0678226580014818 0 0
          0.25829594818938506 0.25829594818938506 0 0.25829594818938506 0 0
          0.0308351005633489 0.0308351005633489 0 0.0308351005633489 0 0
          0.01658229082538503 0.01658229082538503 0 0.01658229082538503 0 0
          0.0559735263933514 0.0559735263933514 0 0.0559735263933514 0 0
          0.24982602934940873 0.24982602934940873 0 0.24982602934940873 0 0
          0.07218621351236203 0.07218621351236203 0 0.07218621351236203 0 0
          0.11597954227701593 0.11597954227701593 0 0.11597954227701593 0 0
          0.11255834158829636 0.11255834158829636 0 0.11255834158829636 0 0
          0.054251548406180364 0.054251548406180364 0 0.054251548406180364 0 0
          0.017532122177617834 0.017532122177617834 0 0.017532122177617834 0 0
          0.014753409618322763 0.014753409618322763 0 0.014753409618322763 0 0
          0.03723517740756724 0.03723517740756724 0 0.03723517740756724 0 0
          0.011461011295068033 0.011461011295068033 0 0.011461011295068033 0 0
          0.07943114349562341 0.07943114349562341 0 0.07943114349562341 0 0
          0.014895355547133369 0.014895355547133369 0 0.014895355547133369 0 0
          0.041591200309191195 0.041591200309191195 0 0.041591200309191195 0 0
          0.025722740690642308 0.025722740690642308 0 0.025722740690642308 0 0
          0.02551840991121726 0.02551840991121726 0 0.02551840991121726 0 0
          0.03660252017970335 0.03660252017970335 0 0.03660252017970335 0 0
          0.039127709386037386 0.039127709386037386 0 0.039127709386037386 0 0