<?xml version="1.0"?>
<VTKFile type="UnstructuredGrid" version="0.1" byte_order="LittleEndian" header_type="UInt32" compressor="vtkZLibDataCompressor">
  <UnstructuredGrid>
    <Piece NumberOfPoints="94" NumberOfCells="150">
      <PointData>
        <DataArray type="Float64" Name="Velocity" NumberOfComponents="3" format="ascii" RangeMin="0" RangeMax="2.703841046739365">
          2.511266325765065 0 0 2.527530621995356 0.1526814839777104 0
          2.6940911006439237 0.22941130631212836 0 2.235853962507576 0 0
          2.0635557731206804 0.31156573776801916 0 2.3679105071717506 0.26813575578733384 0
          2.5967449098034274 0.4797373955133161 0 2.10446878695669 0.3402674035476652 0
          1.107856395182232 0.3384726430432419 0 1.8201271160027828 0 0
          2.2494678007234477 0.5049084599872237 0 2.1573947747365207 0.3853149120641939 0
          2.468468017678153 0.7251963266083419 0 0.29936668378291553 0.28205654406612757 0
          1.2857314648392184 0.4257552800905463 0 2.474884259360842 0.8003234821925872 0
          0.05586327026034678 0.2202290405241986 0 2.2449062127036306 0.7204680384193662 0
          0.44474149406283287 0.3023703067328461 0 1.7151580890804792 0.7744738782474849 0
          -0.012459718487524866 0.011044088846788104 0 2.4022934088961834 1.1065616353321486 0
          1.7243714274943158 0.2859438464696611 0 -0.014857758462255231 0.012453821431956245 0
          0.949803469086689 0.5267554871410374 0 2.1008465347063954 0.8796791395855629 0
          2.0975058631153463 1.3446513012129966 0 -0.011840950316598849 0.01292220448963501 0
          -0.014616048280299975 0.01315841728451137 0 2.0468216279187796 1.0922237910143244 0
          1.7337720475496412 1.5304163773119313 0 1.4151332501533018 0 0
          -0.014104704414319944 0.011256681703487387 0 -0.009392360383028667 0.007864192846524986 0
          1.8614739121960768 1.3672123569056704 0 1.1132343144586019 1.6639231205505518 0
          1.6789218639974943 0.6294483220204342 0 -0.0031705615929064797 0.004179609610991526 0
          1.7332968681038108 1.0074683523505072 0 1.5601240505360612 1.5246379509600876 0
          0.0004065576503089674 0.001842253289881612 0 1.1022396782782438 1.5881306548794119 0
          0.31785313936540394 0.8031213456457569 0 0 0 0
          1.5305103226893804 1.121049267031617 0 1.2313093683416265 1.4360306046940405 0
          0.9395950638885626 1.3947426773317768 0 1.4488725928349948 0.7363403285253525 0
          1.272039906792948 0.19891217482807283 0 0.4381737946796372 0.7435851821595909 0
          1.3245833611847173 1.048190162609156 0 1.078480386301055 1.1711577545155658 0
          1.3607763064066303 0.8233285614524201 0 0.7898648373577749 1.0308366332615766 0
          0.19357017956067352 0 0 1.1476559078596738 0.9613919698921333 0
          1.296890215052323 0.643634894477813 0 0.34464967459052187 0.2704092654019373 0
          0.9478570918400063 0.9298144444554309 0 0.6494511807584287 0.5470083840822338 0
          1.234943813401362 0.38741055463737784 0 1.214374571839394 0.6047675176566074 0
          1.1185694160130573 0 0 1.0437398011666519 0.6838833181839058 0
          0.4920022512813861 0 0 0.8872064860621676 0.6275385949470059 0
          0.827055065472224 0.4904173637353059 0 1.041037245996785 0.1295403498047779 0
          0.7675278737991048 0.2861249022046418 0 0.7327049025371511 0 0
          1.0513331201823357 0.2318444937896356 0 1.0488726017192973 0.356643327388527 0
          0.9795973726045248 0.32797526396876675 0 0.9518692605470757 0.25832029320242067 0
          0.908165396344916 0.15481090643887438 0 0.9181025147557947 0 0
          1.0000000000728926 0 0 1.0000000000728926 0 0
          1.0000000000728926 0 0 1.0022739159420078 0 0
          1.0000000000728926 0 0 1.0000000000728926 0 0
          1.0000000000728926 0 0 1.0000000000728926 0 0
          2.689361845205455 0.10072680256919844 0 2.597023034574262 0 0
          0.13902840923615034 0.3177457666501661 0 0.29256546485869517 0.2938224799253356 0
          1.1132348351517176 0.21590946435185682 0 1.1796313092774875 0.16911405557637457 0
          2.0972588622565396 0.14168734337795147 0 2.113889596533956 0.05733302204772813 0
          0.09011895334320945 0.2929275098037539 0 -0.01371555740586284 0.01307613950252598 0
          <InformationKey name="L2_NORM_RANGE" location="vtkDataArray" length="2">
            <Value index="0">
              0
            </Value>
            <Value index="1">
              2.7038410467
            </Value>
          </InformationKey>
        </DataArray>
        <DataArray type="Float64" Name="Pressure" format="ascii" RangeMin="-3.3076303508070497" RangeMax="6.23278580814137">
          -2.2431904579412807 -2.0301786155017107 -2.606893731214102 -0.9625875675988639 -3.0879745666343923 -1.0272559371106047
          -1.8903054211441606 -2.8858378741690034 -3.151443444161717 0.7958087270073677 -2.6207964383044717 -0.023374070405288397
          -1.7650955449916972 -3.182286093351371 -3.052987041176688 -2.094841244108149 -3.085930595025129 -0.24216599603689784
          -3.1112339828176183 -2.778513403760781 -2.8384341488395277 -0.9975861155519796 1.3267739425884153 -3.046449603613987
          -2.5989301352879686 0.3830628504585084 -1.3650780595251018 -0.4388067014755318 2.6957432575615363 0.4805887033531199
          -1.0322137213939768 2.1335342394243977 4.222492670791758 5.355350907615581 0.5396218142558744 0.9605278274930922
          1.6596515243035197 5.975384727084297 1.5327881801977863 1.3736541931824053 6.1616322808221655 2.8691537421929203
          4.8249350261779425 6.230226550151787 2.054684267245178 2.651181756134746 4.013425669076074 2.3073726873002567
          2.5332991488945202 5.5736333631152455 2.743581308327279 3.637294731273359 2.735662068776681 4.987439184606436
          6.23278580814137 3.472091711346289 2.7966954600083516 6.142014947137507 4.421258731742354 5.8815301000418145
          2.8963807709616654 3.281645931250322 2.974235996100566 4.021866665977815 6.122623446746283 4.81160288503444
          5.459192199256471 3.1197016295603386 5.791113746985499 5.837284427448034 3.48135958151315 3.940610059240546
          4.623047860185745 5.138253672082237 5.491691797217847 5.651705634515843 3.1302646323940118 3.3318824091696104
          3.8486409499255436 5.539390648573731 4.518708508485582 5.052640057738113 5.3745422367485975 5.481940992791712
          -3.0126145908072326 -2.771844311367542 -3.1838957630672393 -3.244157820968706 -3.2273953804939057 -3.3076303508070497
          -3.073414597258262 -3.1331082052569528 -3.1066178281417094 -2.9954281159170106
        </DataArray>
        <DataArray type="Float64" Name="BTraction" NumberOfComponents="3" format="ascii" RangeMin="0" RangeMax="6.180675419612687">
          -0.007266307920813077 2.0982856660717975 0 0 0 0
          0 0 0 -0.010787564255637719 0.8428477093869456 0
          0 0 0 0 0 0
          0 0 0 0 0 0
          0 0 0 -0.008679842047386779 -0.778795239211369 0
          0 0 0 0 0 0
          0 0 0 0 0 0
          0 0 0 0 0 0
          0 0 0 0 0 0
          0 0 0 0 0 0
          -2.0238637356944937 -0.3724497781851509 0 0 0 0
          0 0 0 -2.874991270091534 0.8803244351310945 0
          0 0 0 0 0 0
          0 0 0 -0.7784565205426691 -0.6268861561927639 0
          -2.5832883881473556 0.5389826962317091 0 0 0 0
          0 0 0 -0.0006418885337087236 -2.0983851865054666 0
          -4.126380703773478 1.091436018939668 0 -5.136558211216238 1.3643967659018483 0
          0 0 0 0 0 0
          0 0 0 -5.78172272547746 1.3698524046174156 0
          0 0 0 0 0 0
          -6.107174889317306 0.9446253306673077 0 0 0 0
          0 0 0 -3.107381837992409 3.421523848027664 0
          0 0 0 0 0 0
          0 0 0 0 0 0
          0 0 0 0 0 0
          0 0 0 0 0 0
          0 0 0 0 0 0
          -0.00404330108573396 6.180674097080414 0 0 0 0
          0 0 0 0 0 0
          0 0 0 0 0 0
          0 0 0 0 0 0
          0.003670938697486804 -2.8890146642589998 0 0 0 0
          -0.006727499152613999 6.03223115359386 0 0 0 0
          0 0 0 0 0 0
          0 0 0 -0.007380082444040963 5.805985780148277 0
          0 0 0 0 0 0
          0 0 0 0 0 0
          0 0 0 -0.0029939760201409676 5.625381453171338 0
          1.5967279451895466 -1.5520986610239191 0 3.3712454800656295 -0.009987198062665353 0
          3.8572357013530567 -0.016189727762012582 0 0.0004850064018939718 5.535465257114585 0
          4.476548268598731 -0.019007789386059213 0 5.011918051944131 -0.017462391365564777 0
          5.338305143237041 -0.008177481828730055 0 3.141156200542915 2.3279372329535857 0
          0 0 0 -0.004706265874142097 2.7041619590114627 0
          0 0 0 0 0 0
          0 0 0 0 0 0
          0 0 0 0 0 0
          0 0 0 -2.864848957283329 0.8524063007097765 0
          <InformationKey name="L2_NORM_RANGE" location="vtkDataArray" length="2">
            <Value index="0">
              0
            </Value>
            <Value index="1">
              6.1806754196
            </Value>
          </InformationKey>
        </DataArray>
        <DataArray type="Float64" Name="ALEdispl" NumberOfComponents="3" format="ascii" RangeMin="0" RangeMax="2.6688228471151625">
          0 0 0 0.8364624841956345 -0.09950179079580823 0
          1.648406402980758 -0.35524798192600837 0 0 0 0
          2.112730739978143 -0.5722092134200053 0 1.0478487684470956 -0.1624788316233684 0
          1.949843154897531 -0.4329470782744559 0 2.277647711782748 -0.5990799020446029 0
          2.4352234353935214 -0.6593499632933484 0 0 0 0
          2.389451428287974 -0.5419878272580743 0 1.3517238282377215 -0.20024591584028972 0
          2.271091639288048 -0.41459552035958885 0 2.476761683199087 -0.6824454271439035 0
          2.5626316607498945 -0.5705205019844996 0 2.4907109060818327 -0.4346995981712622 0
          2.382128244198095 -0.6536699344981489 0 2.1269973635430515 -0.2851296474425885 0
          2.576409362415823 -0.552933271997658 0 2.6392082239728496 -0.39647867508601037 0
          2.4574864465760022 -0.4899012745326664 0 2.532831240960947 -0.27493629663840335 0
          1.1454653092451286 -0.09844723312201892 0 1.996019447002003 -0.4167053801475722 0
          2.6273794088804046 -0.3226897382173517 0 2.2838089393057537 -0.19717685330025528 0
          2.6261347278503893 -0.21565210526554843 0 2.505819098316942 -0.18260939196676604 0
          2.046762761324107 -0.11153391754533425 0 2.452575992812719 -0.13035449442949723 0
          2.5815356857799365 -0.10402614926126717 0 0 0 0
          1.556982377026356 -0.04062252304879218 0 1.022897762527897 0.02656095902174363 0
          2.5235196235604236 -0.045927430009080804 0 2.388034995094441 0.011064022858213615 0
          2.0036181136147397 -0.08578183398225801 0 0.5094837442707174 0.07463301192672263 0
          2.3346935253756524 -0.018379437023257394 0 2.4418528431380064 0.062375974559386614 0
          0.1518749363164822 0.06999201267019245 0 2.0467183091052004 0.14183193363557076 0
          1.331895901927238 0.1596464064298588 0 0 0 0
          2.3328061828784725 0.07428914772635922 0 2.236115448653925 0.18951521857759146 0
          1.626679058117951 0.23646858268244533 0 2.101035760955761 0.01827554132423813 0
          0.9689758341312802 -0.13364666226783528 0 0.9130512908029879 0.26393762713606445 0
          2.2153042376989407 0.17696367522813955 0 1.9039010658664735 0.3088427427401871 0
          2.101106566109246 0.1217104915621614 0 1.2753369748058678 0.3462095669205273 0
          0 0 0 1.998217143070142 0.29729187232778975 0
          1.8889123523971623 0.09160978089131333 0 0.24532060309542392 0.1874126186428194 0
          1.542328384640738 0.39156518597331447 0 0.5845877074335599 0.303760808104943 0
          1.507829757383352 -0.04729495662197059 0 1.8445638972255618 0.18352574130252383 0
          0 0 0 1.6780035564439906 0.3798069343515541 0
          0 0 0 1.2167824684452466 0.4564753980392829 0
          0.7906239129507985 0.44664330179568995 0 0.777834389809635 -0.16838026669386405 0
          0.37545197135621955 0.2914089572565065 0 0 0 0
          0.9579277063799714 0.024181923421213343 0 1.1113065043053545 0.23513690206326757 0
          0.8914741154370037 0.36486742172825787 0 0.6570101158203411 0.3993972627892677 0
          0.36873428572895345 0.3136426956402439 0 0 0 0
          0 0 0 0 0 0
          0 0 0 0 0 0
          0 0 0 0 0 0
          0 0 0 0 0 0
          1.3598421943779753 -0.1445842027091291 0 0 0 0
          2.3023017379599264 -0.774786829129666 0 2.3560226082542246 -0.7561056900217852 0
          2.292953027639964 -0.6922735797764195 0 2.1306925912019232 -0.6663765704174514 0
          1.903375524574656 -0.4929650972715089 0 1.7117155065912 -0.3913104461750036 0
          2.0830944171520205 -0.7113051137415543 0 1.49702598114063 -0.335482980783288 0
          <InformationKey name="L2_NORM_RANGE" location="vtkDataArray" length="2">
            <Value index="0">
              0
            </Value>
            <Value index="1">
              2.6688228471
            </Value>
          </InformationKey>
        </DataArray>
        <DataArray type="Float64" Name="ALEveloc" NumberOfComponents="3" format="ascii" RangeMin="0" RangeMax="0.01966654043569945">
          0 0 0 -0.0025222076999593668 0.0029141373974926332 0
          -0.005361126570003538 0.005795227698115246 0 0 0 0
          -0.007637280732004648 0.007704699453004116 0 -0.002953077435582596 0.0031246983830876263 0
          -0.006024460304590473 0.0066762441850861665 0 -0.008143120939918091 0.008305617789290287 0
          -0.009541803147286032 0.00909779299904201 0 0 0 0
          -0.008157913452979226 0.008579891558694652 0 -0.0037173767975398064 0.0036433384072336317 0
          -0.007055460880999842 0.007743702472116087 0 -0.01085598361048401 0.00959973886581822 0
          -0.00963560943256292 0.009670009817684067 0 -0.007968553866150252 0.00915231140018602 0
          -0.012229522278979665 0.009918351163781702 0 -0.0057280719923289425 0.006717707912677173 0
          -0.010857415785865854 0.010279408568371062 0 -0.009252761705089263 0.010743177354653577 0
          -0.012459718486616644 0.011044088845983069 0 -0.00795888303562986 0.010273164870925722 0
          -0.0024970905518739706 0.0027792048722052043 0 -0.01485775846117221 0.01245382143104845 0
          -0.010493883093499079 0.011969417927914783 0 -0.00684495619633374 0.00935107515263539 0
          -0.009161633019799442 0.012082441192366178 0 -0.011840950315735732 0.012922204488693079 0
          -0.014616048279234573 0.013158417283552215 0 -0.008036104320096271 0.011516384974438576 0
          -0.010416254676355763 0.013286761600172392 0 0 0 0
          -0.014104704413291813 0.01125668170266686 0 -0.009392360382344034 0.007864192845951745 0
          -0.00941417835230629 0.012911901406275558 0 -0.011450253068360006 0.013776810917720986 0
          -0.006153060412354527 0.009642616435718732 0 -0.0031705615926753694 0.004179609610686863 0
          -0.008487094848579346 0.011990460758587312 0 -0.010314286319572208 0.01334139517564703 0
          0.0004065576502793322 0.0018422532897473254 0 -0.011618663762194448 0.012672287932132598 0
          -0.010850815579801498 0.008822907059291285 0 0 0 0
          -0.009445642917404129 0.012531163411130253 0 -0.010442241096557225 0.012845765927818054 0
          -0.010328505973929314 0.010232658493843139 0 -0.008333232473482166 0.011443487567054662 0
          -0.002721107600260675 0.0055708053300669025 0 -0.007132873525336425 0.005158712101231422 0
          -0.00971185201426561 0.012122185146061226 0 -0.009878265670342223 0.01120051966471286 0
          -0.008961317252850431 0.01143298402707904 0 -0.008527690121271858 0.007583812145944946 0
          0 0 0 -0.00917587918355034 0.011024501069689052 0
          -0.008130402828335104 0.010535535311775729 0 -0.0016646613606374205 0.00047460272619626043 0
          -0.00834843851062983 0.008920797471871023 0 -0.004545514836000186 0.002773628296467656 0
          -0.006908005064550249 0.009347204947729532 0 -0.008309252142320478 0.009875488439343716 0
          0 0 0 -0.007840124031139428 0.008878262547290738 0
          0 0 0 -0.006434700292089923 0.006707575917526576 0
          -0.004903381544563379 0.004002772848924807 0 -0.0042578278116209844 0.0059797834590105126 0
          -0.002937206650297064 0.001180307199716235 0 0 0 0
          -0.004878760251693315 0.005640008885982865 0 -0.005142067151787 0.00552939235816885 0
          -0.0039872988714237945 0.004108193971676832 0 -0.0032826087525397174 0.0026846754731778555 0
          -0.0022796824000141935 0.0009355139132829482 0 0 0 0
          0 0 0 0 0 0
          0 0 0 0 0 0
          0 0 0 0 0 0
          0 0 0 0 0 0
          -0.004503831599814934 0.0040446957733676625 0 0 0 0
          -0.011477754364475512 0.009794847728436418 0 -0.010370899744218676 0.009351589852323539 0
          -0.009068784267452834 0.008701959384949998 0 -0.008330143916881916 0.008151582481508046 0
          -0.006779613801096485 0.006846138870833962 0 -0.00609941918735446 0.005891253367915517 0
          -0.012482319064498704 0.010589146881120559 0 -0.013715557404863077 0.013076139501572825 0
          <InformationKey name="L2_NORM_RANGE" location="vtkDataArray" length="2">
            <Value index="0">
              0
            </Value>
            <Value index="1">
              0.019666540436
            </Value>
          </InformationKey>
        </DataArray>
      </PointData>
      <CellData>
        <DataArray type="UInt8" Name="vtkGhostType" format="ascii" RangeMin="0" RangeMax="1">
          0 0 0 0 0 0
          0 0 1 0 0 1
          0 1 0 0 1 1
          1 0 0 0 0 0
          1 1 0 1 1 0
          1 1 0 1 0 0
          0 0 0 0 0 0
          0 0 0 0 0 0
          0 0 0 0 0 0
          0 0 0 0 0 0
          0 0 0 0 0 0
          0 0 0 0 0 0
          0 0 0 0 0 0
          0 0 0 0 0 0
          0 1 0 0 0 0
          0 0 0 1 0 0
          0 0 0 0 0 1
          0 0 0 0 0 0
          0 0 0 0 0 0
          0 0 0 0 0 0
          0 0 0 0 0 0
          0 0 0 0 0 0
          0 1 0 0 0 0
          0 0 0 0 0 0
          0 0 0 0 0 0
        </DataArray>
        <DataArray type="Float64" Name="PStrain" NumberOfComponents="6" format="ascii" RangeMin="0.006733021186466853" RangeMax="2.3198836177392916">
          0.010177250754673267 0.010177250754673267 0 0.010177250754673267 0 0
          0.012360655284468445 0.012360655284468445 0 0.012360655284468445 0 0
          0.015070877599438034 0.015070877599438034 0 0.015070877599438034 0 0
          0.012139518827638137 0.012139518827638137 0 0.012139518827638137 0 0
          0.008830565218358132 0.008830565218358132 0 0.008830565218358132 0 0
          0.008416011250933919 0.008416011250933919 0 0.008416011250933919 0 0
          0.007653326188301571 0.007653326188301571 0 0.007653326188301571 0 0
          0.01077251982102402 0.01077251982102402 0 0.01077251982102402 0 0
          0.009272600693289498 0.009272600693289498 0 0.009272600693289498 0 0
          0.007642347754020342 0.007642347754020342 0 0.007642347754020342 0 0
          0.009496692127000324 0.009496692127000324 0 0.009496692127000324 0 0
          0.005905781169596483 0.005905781169596483 0 0.005905781169596483 0 0
          0.007278498657481402 0.007278498657481402 0 0.007278498657481402 0 0
          0.0048341348393775 0.0048341348393775 0 0.0048341348393775 0 0
          0.07806453046034975 0.07806453046034975 0 0.07806453046034975 0 0
          0.0526690808220602 0.0526690808220602 0 0.0526690808220602 0 0
          0.09189977378066472 0.09189977378066472 0 0.09189977378066472 0 0
          0.09389256168123258 0.09389256168123258 0 0.09389256168123258 0 0
          0.046552572801727886 0.046552572801727886 0 0.046552572801727886 0 0
          0.05408581486937692 0.05408581486937692 0 0.05408581486937692 0 0
          0.04165906175379108 0.04165906175379108 0 0.04165906175379108 0 0
          0.024045079675605187 0.024045079675605187 0 0.024045079675605187 0 0
          0.020478696735485507 0.020478696735485507 0 0.020478696735485507 0 0
          0.024070580349469302 0.024070580349469302 0 0.024070580349469302 0 0
          0.04274721571320923 0.04274721571320923 0 0.04274721571320923 0 0
          0.02512216601898966 0.02512216601898966 0 0.02512216601898966 0 0
          0.021719384016538563 0.021719384016538563 0 0.021719384016538563 0 0
          0.02888510641995102 0.02888510641995102 0 0.02888510641995102 0 0
          0.017487173806445967 0.017487173806445967 0 0.017487173806445967 0 0
          0.02499985089595611 0.02499985089595611 0 0.02499985089595611 0 0
          0.015749229766039808 0.015749229766039808 0 0.015749229766039808 0 0
          0.013445900281214684 0.013445900281214684 0 0.013445900281214684 0 0
          0.015127516126590898 0.015127516126590898 0 0.015127516126590898 0 0
          0.007085163444962463 0.007085163444962463 0 0.007085163444962463 0 0
          0.09999999999999999 0.09999999999999999 0 0.09999999999999999 0 0
          0.0049850892497910766 0.0049850892497910766 0 0.0049850892497910766 0 0
          0.011903106298073037 0.011903106298073037 0 0.011903106298073037 0 0
          0.007652364488020754 0.007652364488020754 0 0.007652364488020754 0 0
          0.005656175886294423 0.005656175886294423 0 0.005656175886294423 0 0
          0.014443518525708465 0.014443518525708465 0 0.014443518525708465 0 0
          0.02849791224810174 0.02849791224810174 0 0.02849791224810174 0 0
          0.03403626109257388 0.03403626109257388 0 0.03403626109257388 0 0
          0.013724134712611972 0.013724134712611972 0 0.013724134712611972 0 0
          0.044423266240790404 0.044423266240790404 0 0.044423266240790404 0 0
          0.020342778260904935 0.020342778260904935 0 0.020342778260904935 0 0
          0.057737652912655105 0.057737652912655105 0 0.057737652912655105 0 0
          0.012787531707244641 0.012787531707244641 0 0.012787531707244641 0 0
          0.008309242704217444 0.008309242704217444 0 0.008309242704217444 0 0
          0.051346961519154195 0.051346961519154195 0 0.051346961519154195 0 0
          0.0327860658985569 0.0327860658985569 0 0.0327860658985569 0 0
          0.03823378151115055 0.03823378151115055 0 0.03823378151115055 0 0
          0.02529902514104854 0.02529902514104854 0 0.02529902514104854 0 0
          0.010413179907278306 0.010413179907278306 0 0.010413179907278306 0 0
          0.01603721685309535 0.01603721685309535 0 0.01603721685309535 0 0
          0.030653450056055624 0.030653450056055624 0 0.030653450056055624 0 0
          0.030723036945437647 0.030723036945437647 0 0.030723036945437647 0 0
          0.028329596662988753 0.028329596662988753 0 0.028329596662988753 0 0
          0.013599629042224528 0.013599629042224528 0 0.013599629042224528 0 0
          0.017510256821711003 0.017510256821711003 0 0.017510256821711003 0 0
          0.012508634506497841 0.012508634506497841 0 0.012508634506497841 0 0
          0.004378217914666364 0.004378217914666364 0 0.004378217914666364 0 0
          0.007716095902071679 0.007716095902071679 0 0.007716095902071679 0 0
          0.014083079862223503 0.014083079862223503 0 0.014083079862223503 0 0
          0.011441120372532636 0.011441120372532636 0 0.011441120372532636 0 0
          0.009500084959154914 0.009500084959154914 0 0.009500084959154914 0 0
          0.006435680810693793 0.006435680810693793 0 0.006435680810693793 0 0
          0.003887311594466091 0.003887311594466091 0 0.003887311594466091 0 0
          1.3393854311903828 1.3393854311903828 0 1.3393854311903828 0 0
          0.8596922762901675 0.8596922762901675 0 0.8596922762901675 0 0
          0.8783595036523657 0.8783595036523657 0 0.8783595036523657 0 0
          0.9139037477390533 0.9139037477390533 0 0.9139037477390533 0 0
          0.21540334197977323 0.21540334197977323 0 0.21540334197977323 0 0
          0.24164243692609838 0.24164243692609838 0 0.24164243692609838 0 0
          1.164683440693696 1.164683440693696 0 1.164683440693696 0 0
          0.5838463271155699 0.5838463271155699 0 0.5838463271155699 0 0
          0.1537757702504662 0.1537757702504662 0 0.1537757702504662 0 0
          0.23690264967489782 0.23690264967489782 0 0.23690264967489782 0 0
          0.06194645277185597 0.06194645277185597 0 0.06194645277185597 0 0
          0.3077679614446651 0.3077679614446651 0 0.3077679614446651 0 0
          0.21247415435351902 0.21247415435351902 0 0.21247415435351902 0 0
          0.20152790578483823 0.20152790578483823 0 0.20152790578483823 0 0
          0.5728400963093478 0.5728400963093478 0 0.5728400963093478 0 0
          0.16077613055338155 0.16077613055338155 0 0.16077613055338155 0 0
          0.2507526496461342 0.2507526496461342 0 0.2507526496461342 0 0
          0.12525460520095524 0.12525460520095524 0 0.12525460520095524 0 0
          0.27691961806327103 0.27691961806327103 0 0.27691961806327103 0 0
          0.084717704050834 0.084717704050834 0 0.084717704050834 0 0
          0.05631124278496691 0.05631124278496691 0 0.05631124278496691 0 0
          0.37146940486345714 0.37146940486345714 0 0.37146940486345714 0 0
          0.07247423903118042 0.07247423903118042 0 0.07247423903118042 0 0
          0.02234133041397563 0.02234133041397563 0 0.02234133041397563 0 0
          0.08266149898219602 0.08266149898219602 0 0.08266149898219602 0 0
          0.02822503419862342 0.02822503419862342 0 0.02822503419862342 0 0
          0.25539434410317097 0.25539434410317097 0 0.25539434410317097 0 0
          0.1482467129554444 0.1482467129554444 0 0.1482467129554444 0 0
          0.08285176573514877 0.08285176573514877 0 0.08285176573514877 0 0
          0.3165477807236183 0.3165477807236183 0 0.3165477807236183 0 0
          0.09459424762912211 0.09459424762912211 0 0.09459424762912211 0 0
          0.05340708488273295 0.05340708488273295 0 0.05340708488273295 0 0
          0.14897775915096426 0.14897775915096426 0 0.14897775915096426 0 0
          0.07598453217220216 0.07598453217220216 0 0.07598453217220216 0 0
          0.14894157405403502 0.14894157405403502 0 0.14894157405403502 0 0
          0.03423027898535362 0.03423027898535362 0 0.03423027898535362 0 0
          0.18266969294524324 0.18266969294524324 0 0.18266969294524324 0 0
          0.1706350991082156 0.1706350991082156 0 0.1706350991082156 0 0
          0.19263197533155776 0.19263197533155776 0 0.19263197533155776 0 0
          0.03306009755038902 0.03306009755038902 0 0.03306009755038902 0 0
          0.029936097997205785 0.029936097997205785 0 0.029936097997205785 0 0
          0.15095980002209894 0.15095980002209894 0 0.15095980002209894 0 0
          0.090836155833726 0.090836155833726 0 0.090836155833726 0 0
          0.08567985717908098 0.08567985717908098 0 0.08567985717908098 0 0
          0.02811700363246212 0.02811700363246212 0 0.02811700363246212 0 0
          0.17936788827665007 0.17936788827665007 0 0.17936788827665007 0 0
          0.04554139834297274 0.04554139834297274 0 0.04554139834297274 0 0
          0.0722497052137589 0.0722497052137589 0 0.0722497052137589 0 0
          0.05013005505150929 0.05013005505150929 0 0.05013005505150929 0 0
          0.07347266556345282 0.07347266556345282 0 0.07347266556345282 0 0
          0.057974329500707286 0.057974329500707286 0 0.057974329500707286 0 0
          0.03794225521858046 0.03794225521858046 0 0.03794225521858046 0 0
          0.08692871902028573 0.08692871902028573 0 0.08692871902028573 0 0
          0.10298637930365584 0.10298637930365584 0 0.10298637930365584 0 0
          0.09542235597262826 0.09542235597262826 0 0.09542235597262826 0 0
          0.01537412251460116 0.01537412251460116 0 0.01537412251460116 0 0
          0.10718729630646341 0.10718729630646341 0 0.10718729630646341 0 0
          0.09352782379030954 0.09352782379030954 0 0.09352782379030954 0 0
          0.028744769066049038 0.028744769066049038 0 0.028744769066049038 0 0
          0.051086718855794286 0.051086718855794286 0 0.051086718855794286 0 0
          0.06837278160348668 0.06837278160348668 0 0.06837278160348668 0 0
          0.0703018081033255 0.0703018081033255 0 0.0703018081033255 0 0
          0.2682059645647771 0.2682059645647771 0 0.2682059645647771 0 0
          0.03194455792406804 0.03194455792406804 0 0.03194455792406804 0 0
          0.017284248722383818 0.017284248722383818 0 0.017284248722383818 0 0
          0.05807268580487411 0.05807268580487411 0 0.05807268580487411 0 0
          0.2580019959550563 0.2580019959550563 0 0.2580019959550563 0 0
          0.07469819248640863 0.07469819248640863 0 0.07469819248640863 0 0
          0.1199738672435722 0.1199738672435722 0 0.1199738672435722 0 0
          0.1165788758254929 0.1165788758254929 0 0.1165788758254929 0 0
          0.05629343086553307 0.05629343086553307 0 0.05629343086553307 0 0
          0.018424453763314717 0.018424453763314717 0 0.018424453763314717 0 0
          0.015385034709677118 0.015385034709677118 0 0.015385034709677118 0 0
          0.038590913008517296 0.038590913008517296 0 0.038590913008517296 0 0
          0.011903106298073037 0.011903106298073037 0 0.011903106298073037 0 0
          0.08218408612708869 0.08218408612708869 0 0.08218408612708869 0 0
          0.015459892707031398 0.015459892707031398 0 0.015459892707031398 0 0
          0.04306162056548487 0.04306162056548487 0 0.04306162056548487 0 0
          0.0266625802763858 0.0266625802763858 0 0.0266625802763858 0 0
          0.0265910626386599 0.0265910626386599 0 0.0265910626386599 0 0
          0.03790168663021701 0.03790168663021701 0 0.03790168663021701 0 0
          0.04061697944798429 0.04061697944798429 0 0.04061697944798429 0 0
          0.026958449573007713 0.026958449573007713 0 0.026958449573007713 0 0
          <InformationKey name="L2_NORM_RANGE" location="vtkDataArray" length="2">
            <Value index="0">