<?xml version="1.0"?>
<VTKFile type="UnstructuredGrid" version="0.1" byte_order="LittleEndian" header_type="UInt32" compressor="vtkZLibDataCompressor">
  <UnstructuredGrid>
    <Piece NumberOfPoints="97" NumberOfCells="154">
      <PointData>
        <DataArray type="Float64" Name="Velocity" NumberOfComponents="3" format="ascii" RangeMin="0" RangeMax="2.7454388062296533">
          1.0205548895704102 0.0037179345298828646 0 1.0275053276586137 0 0
          0.9940338834694689 -0.0007621175859796327 0 1.0048501134741814 -0.017540725320521405 0
          0.9888453179294622 -0.010924687514281495 0 1.067915715104561 0 0
          0.9902106892996864 0.0014692885144059684 0 0.9762096179819304 0 0
          0.9770679533964625 -0.013845884869544384 0 1.0009803784282252 -0.005054669137201126 0
          1.1167893533963302 0 0 0.9559344115328521 0 0
          0.915947567205859 0 0 1.3383154812461422 0 0
          0.9600315931452034 -0.23954871676711006 0 1.4347069805648256 -0.4456143379463887 0
          0.6950821428353303 0 0 1.874120928105625 0 0
          0.6016116598327622 -0.36956859501921335 0 0.9970060766310421 -0.7797667144506544 0
          2.0594859242611476 -0.4758609555248774 0 0.2582756083051738 0 0
          2.4792129935949156 0 0 0.13660135967521694 -0.707003736360703 0
          0.9851598756510709 -0.9562304295571279 0 2.568793899223227 -0.2536365774818223 0
          -0.4758383981089319 0 0 2.7454388062296533 0 0
          -0.4352953170932191 -0.2940603425648414 0 1.7402420722894691 -0.32191140113124667 0
          0.1457427388307856 -0.4059457914741563 0 2.738652521148333 0.0515964550381564 0
          -0.7374473473363632 0 0 2.650528303474604 0 0
          2.087344077744311 0.03825414772918823 0 0.4481642565438593 0.10644047686888461 0
          -0.7428730388837992 -0.03052162088250612 0 -0.7293908049705023 0 0
          2.5851764802231343 0.22180644005450315 0 1.0598160447342753 0.3526801357279469 0
          -0.23327091414989165 0.305487098039612 0 2.058252621434478 0.1792462714141014 0
          -0.6538939834467231 0.1677061202783535 0 0.5131557556465256 0.4133286541941743 0
          0.9556583660877257 0.32866405361495526 0 0.11247386597062199 0.4247366591255944 0
          -0.5158763009609258 0 0 1.4099331971600297 0.15697375256602264 0
          -0.37638251288429964 0.29883900737068964 0 2.025641844837427 0.1637338290547159 0
          0.5252354309421255 0.430318119015726 0 -0.5066235913658858 0.11673329941109237 0
          -0.11986348475758837 0.39468480034241893 0 0.7642355057910373 0.2817898520562348 0
          -0.45083610475170666 0.24622532490819748 0 0.1844581317546424 0.45047706477964344 0
          1.2271441758360857 0.133078319599531 0 -0.24671397815800775 0.3548379034910632 0
          0.4563160360113763 0.3973843670726565 0 -0.3380888705140308 0 0
          -0.0151437514330201 0.4335374104385519 0 -0.35462645157535577 0.13981061430230554 0
          0.5710723278908215 0.19140697927316042 0 -0.2829380802057278 0.26221600036063336 0
          0.21759879391520734 0.4603377755683844 0 1.1679304091062115 0.09546776922985649 0
          -0.11565144805447643 0.3596207210277516 0 0.3286057291528993 0.35989506970428153 0
          0.07735831855196816 0.4223172488183803 0 0.39357476402438113 0.19030758602864317 0
          -0.20657213980804193 0.1458898122345768 0 0.2024238348644924 0.3967469745968461 0
          -0.19650170950693055 0 0 -0.13825141872748084 0.2436155360847368 0
          0.19786598339505745 0.27341295429536494 0 0.0001657782032189411 0.335583189467817 0
          0.10125684195758966 0.33515995422638056 0 0.132085159971332 0.2847019351040937 0
          -0.07688310055134225 0 0 -0.01763781930195914 0.20467361614712198 0
          0.05130529935407057 0.1972230953400391 0 -0.02648026237075828 0.07178292767483484 0
          0.007847515675924085 0.001273038156817984 0 -0.01730715634482277 0 0
          0.0048810544352249656 0.0007214884196701763 0 0.0018312016875676267 0.0005816510038742304 0
          0.00016133305750931648 0.0005175010011030887 0 0 0 0
          2.4258225178198196 0.17566566509468767 0 2.5798050141836213 0.23701215877372622 0
          2.480148950498462 0 0 0.36355329854679014 0.20593559833082853 0
          1.1768102069562116 0.22918925321266748 0 2.10790824970243 0.24131084695158425 0
          2.0168713533447 0.24630129290023528 0 0.07840015099285871 0.19953298142383774 0
          0.008374220200138496 0.00267626790280251 0
          <InformationKey name="L2_NORM_RANGE" location="vtkDataArray" length="2">
            <Value index="0">
              0
            </Value>
            <Value index="1">
              2.7454388062
            </Value>
          </InformationKey>
        </DataArray>
        <DataArray type="Float64" Name="Pressure" format="ascii" RangeMin="-4.431419002022808" RangeMax="0.10558904350418184">
          -0.016249041114073704 0.014612885047309005 -0.0006329331219925155 0.027673635819751918 0.010846506569725533 0.056404001046946275
          0.003219848856998988 0.005820223905512442 0.007609076428414543 0.02916898049635809 0.07167051442821885 0.002397472533701637
          0.018599912384407172 0.10558904350418184 -0.0005817973885294354 -0.3135888342463511 -0.0976850097588176 -0.4501336396662289
          -0.2973216783483485 -0.8579647723897044 -1.169143881032624 -0.39602717346060323 -1.7822085592934391 -1.0996456739729081
          -2.741139979986724 -2.4810100861152162 -1.6980592306862283 -2.6747906027193045 -2.6895044784254782 -4.19640327601648
          -4.043630365387608 -3.073470243727765 -2.9197687183120924 -2.561611455160671 -3.8080317002613464 -4.431419002022808
          -3.7691254142708766 -3.2841056947862497 -2.850670065684387 -3.8180712187250516 -3.7883686760796103 -2.7975633871282315
          -3.3082654611905835 -3.5550129011529927 -3.2426206892532075 -3.4404717860421767 -3.130291703741812 -2.8713029008064224
          -3.301556807077007 -2.6149091808510603 -3.226680885830333 -3.0688475645798947 -3.2499003453994835 -2.9574679175950105
          -3.0687249630399798 -3.1566129192252554 -2.806806929167824 -3.067217460392975 -2.995834434301176 -2.8902017323390283
          -3.0371526997675495 -2.8839491568022755 -2.8789782687579333 -2.875802150032949 -2.981996132687279 -2.8501800446227588
          -2.886928650143285 -2.927001338663377 -2.8940143174817634 -2.968192924155521 -2.7317011896954613 -2.9048283230242693
          -2.7303370811959344 -2.737249284871455 -2.948439041361432 -2.771787472150111 -2.804294780622293 -2.882645621869112
          -2.6298408575798975 -2.659378852902216 -2.7083240944282085 -2.5802948900907587 -2.7119949040876423 -2.5641075328389933
          -2.59866033131957 -2.5481339773029963 -2.530792693720671 -2.5297715376897063 -1.8306619568492415 -2.26986243449008
          -2.0158818823333418 -3.058270860946435 -2.973122636688009 -2.5901448271717884 -2.657735099126473 -2.933339411888682
          -2.8289572942600927
        </DataArray>
        <DataArray type="Float64" Name="BTraction" NumberOfComponents="3" format="ascii" RangeMin="0" RangeMax="3.2057643209374533">
          0.006007687343008278 0.003193983547289736 0 0.0009333730125438477 -0.01585529850384269 0
          0.0025087774744422336 0.00046092025114625795 0 0 0 0
          0 0 0 0.0017301466073627188 -0.05137551700403913 0
          -0.0011958219663058265 0.002417721339732488 0 -0.0005142833810247594 0.005565589256564336 0
          0 0 0 0 0 0
          0.004742257777533089 -0.06986584117530785 0 -0.000630898431304404 0.006507208324353218 0
          -0.002876099492808704 0.0017671368330792762 0 0.00869123531586863 0.005508939451872633 0
          0 0 0 0 0 0
          -0.006228950638528626 -0.10146094766602816 0 0.008070908934523882 0.5815444952679925 0
          0 0 0 0 0 0
          0 0 0 -0.008590013066644085 -0.4773668577612363 0
          0.002887563576868949 1.715864818382227 0 0 0 0
          0 0 0 0 0 0
          -0.008546044595148057 -1.5932032786065597 0 -0.0003915091411594274 2.5112632906904886 0
          0 0 0 0 0 0
          0 0 0 0 0 0
          -0.003624357872356481 -2.739315209367097 0 -0.0010153839312682775 2.482172293620107 0
          0 0 0 0 0 0
          0 0 0 0.003446325697293286 -3.2057624684674875 0
          0 0 0 0 0 0
          0 0 0 0 0 0
          0 0 0 0 0 0
          0 0 0 0 0 0
          0.006425742207937885 -3.1494524110237463 0 0 0 0
          0 0 0 0 0 0
          0 0 0 0 0 0
          0 0 0 0 0 0
          0 0 0 0 0 0
          0 0 0 0 0 0
          0 0 0 0.0050353615795737374 -2.936786455464678 0
          0 0 0 0 0 0
          0 0 0 0 0 0
          0 0 0 0 0 0
          0 0 0 0 0 0
          0 0 0 0 0 0
          0 0 0 0 0 0
          0.0027739690500174488 -2.7706473258507454 0 0 0 0
          0 0 0 0 0 0
          0 0 0 0 0 0
          0.0007734567928152924 -2.658767727596771 0 0 0 0
          0 0 0 0 0 0
          -2.5940289147527444 0.787287478080106 0 -0.00024295621104942485 -2.577624544795357 0
          -2.500219105957851 0.7130569580482261 0 -2.465832287655507 0.6115926225769645 0
          -2.4890563890588613 0.4031658311960167 0 -1.2117296549402763 -1.1945425952573119 0
          0 0 0 0 0 0
          -0.002863058795113765 1.8829870973202034 0 0 0 0
          0 0 0 0 0 0
          0 0 0 0 0 0
          -2.6778154413012842 0.8372948200256702 0
          <InformationKey name="L2_NORM_RANGE" location="vtkDataArray" length="2">
            <Value index="0">
              0
            </Value>
            <Value index="1">
              3.2057643209
            </Value>
          </InformationKey>
        </DataArray>
        <DataArray type="Float64" Name="ALEdispl" NumberOfComponents="3" format="ascii" RangeMin="0" RangeMax="2.628050869408078">
          0 0 0 0 0 0
          0 0 0 0.2076743752488869 0.03460817481644832 0
          0.13585246507998694 -0.05353895781703998 0 0 0 0
          0 0 0 0 0 0
          0.1940171172883496 -0.018880793138244843 0 0.3314209613299956 0.004325798268100658 0
          0 0 0 0 0 0
          0 0 0 0 0 0
          0.5854412500427643 0.008692965482303033 0 0.4239945309986522 0.07041303002178798 0
          0 0 0 0 0 0
          0.4339547988272303 -0.13864042036019686 0 0.853633712547857 -0.06216042776913797 0
          0.45463319177820466 0.0952304414192266 0 0 0 0
          0 0 0 0.48314680992786424 -0.2058455276349753 0
          1.0923712167945627 -0.15679357499299915 0 0.5599493558781418 0.08852810183809935 0
          0 0 0 0 0 0
          0.6185761951654812 -0.2783698771810921 0 1.2187497774353804 -0.19771715606770152 0
          1.1766656309571324 -0.381392200562358 0 0.73360505073203 0.049204434794519566 0
          0 0 0 0 0 0
          1.3439353878861333 -0.2564006746188105 0 1.4513490311639885 -0.5435446925498308 0
          0.836083458356523 -0.4702515374209654 0 0 0 0
          1.3885847407949248 -0.15184436200862403 0 1.8030050269685036 -0.6114802793619453 0
          1.4341621184016584 -0.7949797119868517 0 1.7482505549254348 -0.40529360635736406 0
          0.7227000330842029 -0.5206976157342775 0 1.7859639268808396 -0.7923198299916668 0
          1.9723063951405015 -0.7002485864459446 0 1.7031946227813728 -0.871237333953811 0
          0 0 0 1.9779911819572573 -0.6138713265857394 0
          1.1701922941121228 -0.77190568447422 0 1.9441260798881674 -0.5099743318421854 0
          1.9511306824235592 -0.8526092675914159 0 0.4937734301043123 -0.39309928072627975 0
          1.5107426574791454 -0.887735461809663 0 2.1220683463000714 -0.7794019881099576 0
          0.8899174621877219 -0.6605026218462352 0 1.83960655655532 -0.9224017614933312 0
          2.1767597492853294 -0.6881284506945079 0 1.2734534624970988 -0.8404136879621568 0
          2.1000307606837665 -0.8869254310720563 0 0 0 0
          1.635408752065186 -0.9162462584627207 0 0.5613735462909598 -0.4639447453651813 0
          2.2717741032671213 -0.8059244121292681 0 0.9491216582618489 -0.7059841639676302 0
          1.965870074350104 -0.9206839321187238 0 2.3427634613540187 -0.7153167088354228 0
          1.3399601180469085 -0.8309770020557949 0 2.234068893320972 -0.8686984963807783 0
          1.7225233203237431 -0.8723821079414955 0 2.4077151204364964 -0.7811121894276644 0
          0.5698802711481152 -0.4755680042987191 0 2.069597525302701 -0.8631800639513978 0
          0 0 0 0.9491486895032563 -0.6521224534936667 0
          2.35344217966917 -0.8005734989010058 0 1.357051197246448 -0.7313373692464328 0
          1.7178880710861726 -0.722059845173325 0 2.1301616238259973 -0.7359797235053188 0
          0 0 0 0.9256218294261644 -0.5169214295768978 0
          1.3453631118806562 -0.528848713172789 0 0.381533319212119 -0.2782197413089822 0
          1.5319366149522589 -0.35109912144852706 0 0 0 0
          0.9735575419020454 -0.2567148179733322 0 0.4815557259914255 -0.1655445051986632 0
          0.14130335606704092 -0.0835089125435906 0 0 0 0
          0.8541311594049799 -0.10467339002450357 0 1.6834893940752127 -0.3685175457300447 0
          0 0 0 2.5312992482620333 -0.7065235225699273 0
          2.4883607021161107 -0.6823152534018171 0 2.326961035490076 -0.6198844563617868 0
          2.1582531780390073 -0.5918311944908838 0 2.4352301069482976 -0.6775003311929327 0
          2.042066481548394 -0.43532306257089637 0
          <InformationKey name="L2_NORM_RANGE" location="vtkDataArray" length="2">
            <Value index="0">
              0
            </Value>
            <Value index="1">
              2.6280508694
            </Value>
          </InformationKey>
        </DataArray>
        <DataArray type="Float64" Name="ALEveloc" NumberOfComponents="3" format="ascii" RangeMin="0" RangeMax="0.008791471654432554">
          0 0 0 0 0 0
          0 0 0 0.0005824976434597451 0.00009868481277747199 0
          0.0003798350335361689 -0.00014860570491806446 0 0 0 0
          0 0 0 0 0 0
          0.0005425902225351664 -0.00004884402248359759 0 0.0009295892949952034 0.0000211026310528448 0
          0 0 0 0 0 0
          0 0 0 0 0 0
          0.0016357731843550383 0.00012001872603815619 0 0.0012230513747834015 0.00036526039371422014 0
          0 0 0 0 0 0
          0.0011907656719529758 -0.00024257799172491823 0 0.002404028234828326 0.00019749269974810024 0
          0.0013312294660260404 0.00052729102202273 0 0 0 0
          0 0 0 0.0013052505556021554 -0.0003390026626116094 0
          0.0030436543737972777 0.0003918199727265259 0 0.0016491299939922488 0.0007350644614502466 0
          0 0 0 0 0 0
          0.0016940666920434166 -0.0003263974125157221 0 0.0034222030232686773 0.000929602576324795 0
          0.003226285741839252 0.00021516627112760922 0 0.0020598514810834523 0.0010183885097998502 0
          0 0 0 0 0 0
          0.003683103759645423 0.0014385176699113766 0 0.004026882043038693 0.0007299075250590814 0
          0.002363465904411388 -0.0003151892333939088 0 0 0 0
          0.0034899222271271846 0.002160276599907751 0 0.004846917379322413 0.0019010383125090957 0
          0.0041577853431311596 0.000568711412217926 0 0.0043142023351125935 0.0026662565213251277 0
          0.0022368126901448626 -0.00020315710515794727 0 0.004965828319347665 0.0017233335556190443 0
          0.005181203905106013 0.0024534798411302017 0 0.004859906159809135 0.0014875161705756312 0
          0 0 0 0.0049675313433072965 0.002860468373822811 0
          0.0036134580019109297 0.00043565588980376546 0 0.004563240615707009 0.003021035035937092 0
          0.005368321205054372 0.002324607866395212 0 0.0016433416741629125 -0.0001641821905091767 0
          0.004575896219824571 0.0011739726180706178 0 0.005489592148670397 0.0030355371552586163 0
          0.003002865213879602 0.0001649471523970103 0 0.0053424050680970225 0.002103478272422965 0
          0.005235626638183888 0.0034310554304832763 0 0.004142208515934387 0.0008566282020801008 0
          0.0057623084121321 0.0030050278186930512 0 0 0 0
          0.005075514980129814 0.0017810331489711562 0 0.002136118586132385 -0.00007711837411794598 0
          0.005754306813562593 0.0036488953597031415 0 0.003502424857426245 0.0004061737969114354 0
          0.005836782281114505 0.002807807035652976 0 0.005362460219812348 0.0039061559471595952 0
          0.004667252783475906 0.0012536853202260723 0 0.006102825139109314 0.003711609935556748 0
          0.00560214189535424 0.00238591002221189 0 0.005900632770805991 0.004198686581994293 0
          0.0024604605888706166 -0.00002678639149122919 0 0.006386718048204898 0.00348871743724799 0
          0 0 0 0.0039357026589694755 0.0004263876153697277 0
          0.0063625346984039766 0.004337340507494014 0 0.005291828206513749 0.001491026247408822 0
          0.006230362397401379 0.0026832073400877565 0 0.007025392786066842 0.0038590052019742416 0
          0 0 0 0.004209662367663736 0.0004326131875799222 0
          0.006303894041606473 0.001157213634211618 0 0.0017658763553555223 0.00002736973306677326 0
          0.00784751567606179 0.0012730381568403226 0 0 0 0
          0.004881054435310617 0.0007214884196828364 0 0.0018312016875997594 0.0005816510038844369 0
          0.00016133305751214744 0.0005175010011121695 0 0 0 0
          0.0018701589939642549 0.0015337586010234217 0 0.003696675413558559 0.002722440941422155 0
          0 0 0 0.005851716194478662 0.004554828323025895 0
          0.005259067414120189 0.0042201114690825214 0 0.004661038696107234 0.0037424106928944934 0
          0.004722773568936134 0.003526224702822711 0 0.006619886037720235 0.004647239405061621 0
          0.008374220200285443 0.002676267902849472 0
          <InformationKey name="L2_NORM_RANGE" location="vtkDataArray" length="2">
            <Value index="0">
              0
            </Value>
            <Value index="1">
              0.0087914716544
            </Value>
          </InformationKey>
        </DataArray>
      </PointData>
      <CellData>
        <DataArray type="UInt8" Name="vtkGhostType" format="ascii" RangeMin="0" RangeMax="0">
          0 0 0 0 0 0
          0 0 0 0 0 0
          0 0 0 0 0 0
          0 0 0 0 0 0
          0 0 0 0 0 0
          0 0 0 0 0 0
          0 0 0 0 0 0
          0 0 0 0 0 0
          0 0 0 0 0 0
          0 0 0 0 0 0
          0 0 0 0 0 0
          0 0 0 0 0 0
          0 0 0 0 0 0
          0 0 0 0 0 0
          0 0 0 0 0 0
          0 0 0 0 0 0
          0 0 0 0 0 0
          0 0 0 0 0 0
          0 0 0 0 0 0
          0 0 0 0 0 0
          0 0 0 0 0 0
          0 0 0 0 0 0
          0 0 0 0 0 0
          0 0 0 0 0 0
          0 0 0 0 0 0
          0 0 0 0
        </DataArray>
        <DataArray type="Float64" Name="PStrain" NumberOfComponents="6" format="ascii" RangeMin="7.367885119100288e-8" RangeMax="0.5012267226986769">
          0.09999999999999999 0.09999999999999999 0 0.09999999999999999 0 0
          0.0000019379809410843485 0.0000019379809410843485 0 0.0000019379809410843485 0 0
          0.000009052487640240488 0.000009052487640240488 0 0.000009052487640240488 0 0
          0.0000017395293456151556 0.0000017395293456151556 0 0.0000017395293456151556 0 0
          0.0000017815844023680964 0.0000017815844023680964 0 0.0000017815844023680964 0 0
          2.570070657250674e-7 2.570070657250674e-7 0 2.570070657250674e-7 0 0
          0.00000117998018145955 0.00000117998018145955 0 0.00000117998018145955 0 0
          1.668245536011342e-7 1.668245536011342e-7 0 1.668245536011342e-7 0 0
          5.569661508716397e-7 5.569661508716397e-7 0 5.569661508716397e-7 0 0
          4.836778615627701e-7 4.836778615627701e-7 0 4.836778615627701e-7 0 0
          1.2215904452463935e-7 1.2215904452463935e-7 0 1.2215904452463935e-7 0 0
          2.177335849279462e-7 2.177335849279462e-7 0 2.177335849279462e-7 0 0
          0.000014460453380270115 0.000014460453380270115 0 0.000014460453380270115 0 0
          9.210654804255893e-8 9.210654804255893e-8 0 9.210654804255893e-8 0 0
          9.210654804255893e-8 9.210654804255893e-8 0 9.210654804255893e-8 0 0
          0.000014460453380270115 0.000014460453380270115 0 0.000014460453380270115 0 0
          4.2538504568707895e-8 4.2538504568707895e-8 0 4.2538504568707895e-8 0 0
          0.000010639621782227191 0.000010639621782227191 0 0.000010639621782227191 0 0
          0.00964789800890574 0.00964789800890574 0 0.00964789800890574 0 0
          0.006139329813305306 0.006139329813305306 0 0.006139329813305306 0 0
          0.008920207142709986 0.008920207142709986 0 0.008920207142709986 0 0
          0.005038990820080575 0.005038990820080575 0 0.005038990820080575 0 0
          0.005869348709957848 0.005869348709957848 0 0.005869348709957848 0 0
          0.005738005375251652 0.005738005375251652 0 0.005738005375251652 0 0
          0.005559019494747988 0.005559019494747988 0 0.005559019494747988 0 0
          0.0030430887878855465 0.0030430887878855465 0 0.0030430887878855465 0 0
          0.002320538192503872 0.002320538192503872 0 0.002320538192503872 0 0
          0.004320230818125622 0.004320230818125622 0 0.004320230818125622 0 0
          0.005590985814230277 0.005590985814230277 0 0.005590985814230277 0 0
          0.002216867638683782 0.002216867638683782 0 0.002216867638683782 0 0
          0.0010783659765818275 0.0010783659765818275 0 0.0010783659765818275 0 0
          0.0026244214296483877 0.0026244214296483877 0 0.0026244214296483877 0 0
          0.0039055009563689633 0.0039055009563689633 0 0.0039055009563689633 0 0
          0.001843165331676895 0.001843165331676895 0 0.001843165331676895 0 0
          0.004684984497518007 0.004684984497518007 0 0.004684984497518007 0 0
          0.0023296874244771136 0.0023296874244771136 0 0.0023296874244771136 0 0
          0.002596225212807146 0.002596225212807146 0 0.002596225212807146 0 0
          0.0018693551125816268 0.0018693551125816268 0 0.0018693551125816268 0 0
          0.0006619648756658156 0.0006619648756658156 0 0.0006619648756658156 0 0
          0.0008658384965654837 0.0008658384965654837 0 0.0008658384965654837 0 0
          0.0009196223223813481 0.0009196223223813481 0 0.0009196223223813481 0 0
          0.0007550697478850884 0.0007550697478850884 0 0.0007550697478850884 0 0
          0.0010214317124210375 0.0010214317124210375 0 0.0010214317124210375 0 0
          0.0012323839176326813 0.0012323839176326813 0 0.0012323839176326813 0 0
          0.0023854605534721044 0.0023854605534721044 0 0.0023854605534721044 0 0
          0.001156514843952927 0.001156514843952927 0 0.001156514843952927 0 0
          0.0008460365046941258 0.0008460365046941258 0 0.0008460365046941258 0 0
          0.00033097680280345796 0.00033097680280345796 0 0.00033097680280345796 0 0
          0.0002846278537364087 0.0002846278537364087 0 0.0002846278537364087 0 0
          0.00031685409919698807 0.00031685409919698807 0 0.00031685409919698807 0 0
          0.00034702938074957586 0.00034702938074957586 0 0.00034702938074957586 0 0
          0.0002026316906734033 0.0002026316906734033 0 0.0002026316906734033 0 0
          0.000257212620936709 0.000257212620936709 0 0.000257212620936709 0 0
          0.00012442368144690192 0.00012442368144690192 0 0.00012442368144690192 0 0
          0.00008152586953704687 0.00008152586953704687 0 0.00008152586953704687 0 0
          0.0000787560615152117 0.0000787560615152117 0 0.0000787560615152117 0 0
          0.000111482526610484 0.000111482526610484 0 0.000111482526610484 0 0
          0.00033302269065424157 0.00033302269065424157 0 0.00033302269065424157 0 0
          0.00013914056825918802 0.00013914056825918802 0 0.00013914056825918802 0 0
          0.0004271133618357006 0.0004271133618357006 0 0.0004271133618357006 0 0
          0.000056678297689337036 0.000056678297689337036 0 0.000056678297689337036 0 0
          0.00005893046408018919 0.00005893046408018919 0 0.00005893046408018919 0 0
          0.00009165418113373907 0.00009165418113373907 0 0.00009165418113373907 0 0
          0.0958667979167798 0.0958667979167798 0 0.0958667979167798 0 0
          0.0978840417996825 0.0978840417996825 0 0.0978840417996825 0 0
          0.04849467251936017 0.04849467251936017 0 0.04849467251936017 0 0
          0.12002384408740513 0.12002384408740513 0 0.12002384408740513 0 0
          0.14251869913188916 0.14251869913188916 0 0.14251869913188916 0 0
          0.10526949974240682 0.10526949974240682 0 0.10526949974240682 0 0
          0.0783326545525433 0.0783326545525433 0 0.0783326545525433 0 0
          0.1620347628412373 0.1620347628412373 0 0.1620347628412373 0 0
          0.05360225133201794 0.05360225133201794 0 0.05360225133201794 0 0
          0.058159018028247286 0.058159018028247286 0 0.058159018028247286 0 0
          0.030107717756562437 0.030107717756562437 0 0.030107717756562437 0 0
          0.044501564816319825 0.044501564816319825 0 0.044501564816319825 0 0
          0.026150883966985235 0.026150883966985235 0 0.026150883966985235 0 0
          0.05845324854075683 0.05845324854075683 0 0.05845324854075683 0 0
          0.07182091456308905 0.07182091456308905 0 0.07182091456308905 0 0
          0.0810563870976944 0.0810563870976944 0 0.0810563870976944 0 0
          0.046345983673011314 0.046345983673011314 0 0.046345983673011314 0 0
          0.05348714265743343 0.05348714265743343 0 0.05348714265743343 0 0
          0.0417606050569944 0.0417606050569944 0 0.0417606050569944 0 0
          0.08323161729094285 0.08323161729094285 0 0.08323161729094285 0 0
          0.030704390527286095 0.030704390527286095 0 0.030704390527286095 0 0
          0.030097335906819622 0.030097335906819622 0 0.030097335906819622 0 0
          0.018206748066674695 0.018206748066674695 0 0.018206748066674695 0 0
          0.03385548051296412 0.03385548051296412 0 0.03385548051296412 0 0
          0.018793195892768722 0.018793195892768722 0 0.018793195892768722 0 0
          0.031225954587487913 0.031225954587487913 0 0.031225954587487913 0 0
          0.048037998459039784 0.048037998459039784 0 0.048037998459039784 0 0
          0.05103549208214091 0.05103549208214091 0 0.05103549208214091 0 0
          0.030830112186169316 0.030830112186169316 0 0.030830112186169316 0 0
          0.04229184626568512 0.04229184626568512 0 0.04229184626568512 0 0
          0.027597216410016445 0.027597216410016445 0 0.027597216410016445 0 0
          0.029116346678269373 0.029116346678269373 0 0.029116346678269373 0 0
          0.02276368107872593 0.02276368107872593 0 0.02276368107872593 0 0
          0.018682590517805256 0.018682590517805256 0 0.018682590517805256 0 0
          0.010435162755209358 0.010435162755209358 0 0.010435162755209358 0 0
          0.01638624406137274 0.01638624406137274 0 0.01638624406137274 0 0
          0.014015234790038047 0.014015234790038047 0 0.014015234790038047 0 0
          0.057267823154010356 0.057267823154010356 0 0.057267823154010356 0 0
          0.017423622516419164 0.017423622516419164 0 0.017423622516419164 0 0
          0.019587226845098435 0.019587226845098435 0 0.019587226845098435 0 0
          0.013457260322205667 0.013457260322205667 0 0.013457260322205667 0 0
          0.04878112296838984 0.04878112296838984 0 0.04878112296838984 0 0
          0.06332860381956446 0.06332860381956446 0 0.06332860381956446 0 0
          0.01821715373863021 0.01821715373863021 0 0.01821715373863021 0 0
          0.03522292561375899 0.03522292561375899 0 0.03522292561375899 0 0
          0.029943099605799897 0.029943099605799897 0 0.029943099605799897 0 0
          0.018551002157521625 0.018551002157521625 0 0.018551002157521625 0 0
          0.022206956128342614 0.022206956128342614 0 0.022206956128342614 0 0
          0.011514094712092447 0.011514094712092447 0 0.011514094712092447 0 0
          0.03537676865734335 0.03537676865734335 0 0.03537676865734335 0 0
          0.02140350942022414 0.02140350942022414 0 0.02140350942022414 0 0
          0.01758849690695299 0.01758849690695299 0 0.01758849690695299 0 0
          0.013744968816113274 0.013744968816113274 0 0.013744968816113274 0 0
          0.008426451596575435 0.008426451596575435 0 0.008426451596575435 0 0
          0.04153109014053513 0.04153109014053513 0 0.04153109014053513 0 0
          0.020332224668021575 0.020332224668021575 0 0.020332224668021575 0 0
          0.011579179273210071 0.011579179273210071 0 0.011579179273210071 0 0
          0.01622352395745348 0.01622352395745348 0 0.01622352395745348 0 0
          0.04147072714907024 0.04147072714907024 0 0.04147072714907024 0 0
          0.025634661247966335 0.025634661247966335 0 0.025634661247966335 0 0
          0.025691176877985576 0.025691176877985576 0 0.025691176877985576 0 0
          0.011873408243265913 0.011873408243265913 0 0.011873408243265913 0 0
          0.02487349013380103 0.02487349013380103 0 0.02487349013380103 0 0
          0.015895671964249625 0.015895671964249625 0 0.015895671964249625 0 0
          0.027063033215837924 0.027063033215837924 0 0.027063033215837924 0 0
          0.019130169184567995 0.019130169184567995 0 0.019130169184567995 0 0
          0.015256946195019872 0.015256946195019872 0 0.015256946195019872 0 0
          0.012210970766025453 0.012210970766025453 0 0.012210970766025453 0 0
          0.019307803806125977 0.019307803806125977 0 0.019307803806125977 0 0
          0.011320202315395725 0.011320202315395725 0 0.011320202315395725 0 0
          0.007380922848807396 0.007380922848807396 0 0.007380922848807396 0 0
          0.007758733242284701 0.007758733242284701 0 0.007758733242284701 0 0
          0.012241446968088295 0.012241446968088295 0 0.012241446968088295 0 0
          0.013025007381089691 0.013025007381089691 0 0.013025007381089691 0 0
          0.030379151653218535 0.030379151653218535 0 0.030379151653218535 0 0
          0.289383383275115 0.289383383275115 0 0.289383383275115 0 0
          0.2673055289220324 0.2673055289220324 0 0.2673055289220324 0 0
          0.15656217639236095 0.15656217639236095 0 0.15656217639236095 0 0