<?xml version="1.0"?>
<VTKFile type="UnstructuredGrid" version="0.1" byte_order="LittleEndian" header_type="UInt32" compressor="vtkZLibDataCompressor">
  <UnstructuredGrid>
    <Piece NumberOfPoints="94" NumberOfCells="150">
      <PointData>
        <DataArray type="Float64" Name="Velocity" NumberOfComponents="3" format="ascii" RangeMin="0" RangeMax="2.650528303474604">
          2.480148950498462 0 0 2.4258225178198196 0.17566566509468767 0
          2.5798050141836213 0.23701215877372622 0 2.1585923763249397 0 0
          2.0168713533447 0.24630129290023528 0 2.274047953462307 0.26646514198824595 0
          2.5376011350447922 0.4310990206486336 0 2.10790824970243 0.24131084695158425 0
          1.1768102069562116 0.22918925321266748 0 1.742663663508731 0 0
          2.27265276716721 0.4320177191847446 0 2.097981576728574 0.3609955699417694 0
          2.4642321404881895 0.6691309541198378 0 0.36355329854679014 0.20593559833082853 0
          1.3609929495702782 0.3618673608460535 0 2.5017964826691528 0.745607194345434 0
          0.07840015099285871 0.19953298142383774 0 2.2131589664156524 0.676838933688525 0
          0.4960070414138591 0.27259332323244967 0 1.7753919430081635 0.7318459389414647 0
          0.00667600656480048 0.003948512155241271 0 2.428789989872653 1.0604649724839321 0
          1.6835529609786262 0.25757135619671956 0 0.008374220200138496 0.00267626790280251 0
          0.9892680025814936 0.5061492535184046 0 2.097361454783517 0.8312383227432979 0
          2.139912063399569 1.3095074357644128 0 0.006201588537116257 0.0025576151954208883 0
          0.008190875440746639 0.0019625758700151995 0 2.0575976043069137 1.046962142659341 0
          1.7687021948174642 1.5050710240337908 0 1.3814388866896907 0 0
          0.008094381791529397 0.001958013769673518 0 0.0056233972600866705 0.002053948801256193 0
          1.888906477012652 1.3312640690312731 0 1.1411268552330665 1.6440127984948012 0
          1.6636356193818667 0.5849080275498728 0 0.0023015635194698885 0.001905028212867744 0
          1.7394000953252922 0.9663101920767712 0 1.5857760948379767 1.4975536274099752 0
          0.00036290579722776856 0.0010486437665683812 0 1.1286918015800582 1.5756091487774906 0
          0.3373062465692569 0.8015350480052783 0 0 0 0
          1.5428609336063843 1.084721338122905 0 1.2521397568706003 1.4166273652297199 0
          0.9628413887586839 1.388731509712687 0 1.4460906026965128 0.6959571589039808 0
          1.262007525103049 0.18141787112468674 0 0.4544207994316515 0.7469150746859803 0
          1.3343725715370893 1.0170431254234917 0 1.0950992902381889 1.1540804402576539 0
          1.3647028796931848 0.789009251982347 0 0.8040373271121032 1.0261098055861362 0
          0.19699971786765907 0 0 1.1565905814323407 0.9368688213464338 0
          1.29400878603429 0.6130402185712736 0 0.35032326473892594 0.2738496232092441 0
          0.9584794144058172 0.9163187554152428 0 0.6606812622773525 0.5501680437706472 0
          1.231815383682998 0.3665642485425398 0 1.2140057843826566 0.5784559609003349 0
          1.1143611335863812 0 0 1.0485421873751766 0.6626137951006963 0
          0.4990223443235219 0 0 0.8910321259826424 0.6135979927167858 0
          0.8304517431073332 0.4819988730124931 0 1.0413403518443818 0.12602532458075724 0
          0.7727632331023797 0.28244129339706736 0 0.7363372826237674 0 0
          1.0506910869656065 0.22851593746222154 0 1.047937030640198 0.3506348299240215 0
          0.9811529914728127 0.3243393730145126 0 0.9519326615652266 0.25529499858582555 0
          0.9096671232332953 0.15266307867200224 0 0.9191816001294275 0 0
          0.9999999999824526 0 0 0.9999999999824526 0 0
          0.9999999999824525 0 0 1.0021237992328558 0 0
          0.9999999999824526 0 0 0.9999999999824527 0 0
          0.9999999999824526 0 0 0.9999999999824526 0 0
          2.5851764802231343 0.22180644005450315 0 2.650528303474604 0 0
          0.19786598339505745 0.27341295429536494 0 0.39357476402438113 0.19030758602864317 0
          1.1679304091062115 0.09546776922985649 0 1.2271441758360857 0.133078319599531 0
          2.025641844837427 0.1637338290547159 0 2.058252621434478 0.1792462714141014 0
          0.132085159971332 0.2847019351040937 0 0.007847515675924085 0.001273038156817984 0
          <InformationKey name="L2_NORM_RANGE" location="vtkDataArray" length="2">
            <Value index="0">
              0
            </Value>
            <Value index="1">
              2.6505283035
            </Value>
          </InformationKey>
        </DataArray>
        <DataArray type="Float64" Name="Pressure" format="ascii" RangeMin="-3.081486253707685" RangeMax="5.9516586876402995">
          -2.0158818823333418 -1.8306619568492415 -2.26986243449008 -0.8278119499432335 -2.657735099126473 -0.9100092926603609
          -1.6951868433853405 -2.5901448271717884 -2.973122636688009 0.7491658893634334 -2.448803232013307 -0.0056000739650332275
          -1.6439599247054588 -3.058270860946435 -3.0086523153315095 -2.0270136038392246 -2.933339411888682 -0.22821206109195788
          -3.081486253707685 -2.7980858204599732 -2.777787763729566 -0.9908809567958194 1.226462351669748 -2.8289572942600927
          -2.6402051552955332 0.352004228501808 -1.4057294434900653 -0.49938400933860255 2.4914432310414796 0.4302079307869165
          -1.1227616478872413 1.97832527315161 3.952738327950247 5.03932389500498 0.45633472697091676 0.8066594980584407
          1.5492900625592008 5.673164329008372 1.4298780802307471 1.2458293769929043 5.863170668610039 2.661541303700907
          4.5615189000605785 5.936498565199115 1.9269750080746195 2.4784115878426274 3.7738649239144917 2.1709597279545974
          2.362162929892814 5.3085108763077535 2.5869310526135805 3.431234165034482 2.581616124340266 4.740586943259253
          5.9516586876402995 3.2829143008210813 2.63279354697779 5.871193529803436 4.195834477674884 5.621975599251248
          2.7208631409917015 3.0999337862438185 2.787463552078243 3.8146201240734325 5.859289362380848 4.57973151109403
          5.213988878003818 2.9309583173872227 5.539232199088212 5.584287442905898 3.2880056701657656 3.7356484670212415
          4.400033959919405 4.903293635773006 5.248723443123558 5.4053630156772465 2.9339356711122306 3.1364541452194783
          3.64567068771634 5.298733133969771 4.3003973699808125 4.822572004912328 5.138505552496835 5.243688773676453
          -2.850670065684387 -2.561611455160671 -2.948439041361432 -2.968192924155521 -2.8501800446227588 -2.806806929167824
          -2.6149091808510603 -2.7975633871282315 -2.882645621869112 -2.7119949040876423
        </DataArray>
        <DataArray type="Float64" Name="BTraction" NumberOfComponents="3" format="ascii" RangeMin="0" RangeMax="5.900216097006771">
          -0.002863058795113765 1.8829870973202034 0 0 0 0
          0 0 0 -0.007972698977489711 0.7221026782637315 0
          0 0 0 0 0 0
          0 0 0 0 0 0
          0 0 0 -0.008656125359876535 -0.7407913986437819 0
          0 0 0 0 0 0
          0 0 0 0 0 0
          0 0 0 0 0 0
          0 0 0 0 0 0
          0 0 0 0 0 0
          -1.961693473078879 -0.37113761199177997 0 0 0 0
          0 0 0 -2.6778154413012842 0.8372948200256702 0
          0 0 0 0 0 0
          0 0 0 -0.724404020310598 -0.6495699951366031 0
          -2.395082435502328 0.4960224570677188 0 0 0 0
          0 0 0 -0.0018030092495973688 -1.9517232614518982 0
          -3.8607678887226884 1.0402902760947612 0 -4.831582653264075 1.3148541085186027 0
          0 0 0 0 0 0
          0 0 0 -5.478702011180805 1.330095943893774 0
          0 0 0 0 0 0
          -5.810350903267651 0.9166979249156543 0 0 0 0
          0 0 0 -2.961568068800989 3.2657058575128857 0
          0 0 0 0 0 0
          0 0 0 0 0 0
          0 0 0 0 0 0
          0 0 0 0 0 0
          0 0 0 0 0 0
          -0.004193698744917093 5.90021460662819 0 0 0 0
          0 0 0 0 0 0
          0 0 0 0 0 0
          0 0 0 0 0 0
          0.0030638445233282592 -2.704054528860301 0 0 0 0
          -0.006925038638120135 5.767949208212504 0 0 0 0
          0 0 0 0 0 0
          0 0 0 -0.0075472431233737725 5.553011881522168 0
          0 0 0 0 0 0
          0 0 0 0 0 0
          0 0 0 -0.0031131332611388377 5.3794707059761055 0
          1.4987043537315268 -1.4550818064834328 0 3.174533138758274 -0.009738622796288406 0
          3.6533078619931487 -0.01582807569635645 0 0.0004495098504161347 5.2944983050938585 0
          4.259217998331776 -0.018619956133177996 0 4.782890226788815 -0.01717491528092096 0
          5.102955715347502 -0.008046350947210547 0 3.0041728158100076 2.226774993858919 0
          0 0 0 -0.0010153839312682775 2.482172293620107 0
          0 0 0 0 0 0
          0 0 0 0 0 0
          0 0 0 0 0 0
          0 0 0 -2.5940289147527444 0.787287478080106 0
          <InformationKey name="L2_NORM_RANGE" location="vtkDataArray" length="2">
            <Value index="0">
              0
            </Value>
            <Value index="1">
              5.900216097
            </Value>
          </InformationKey>
        </DataArray>
        <DataArray type="Float64" Name="ALEdispl" NumberOfComponents="3" format="ascii" RangeMin="0" RangeMax="2.7288699599825628">
          0 0 0 0.8541311594049799 -0.10467339002450357 0
          1.6834893940752127 -0.3685175457300447 0 0 0 0
          2.1582531780390073 -0.5918311944908838 0 1.0702592038950616 -0.16896850614965675 0
          1.99184196309738 -0.4485652478032124 0 2.326961035490076 -0.6198844563617868 0
          2.4883607021161107 -0.6823152534018171 0 0 0 0
          2.4413619925266845 -0.561836880001439 0 1.3810574450489594 -0.207672771555894 0
          2.320439038289483 -0.43065823996924246 0 2.5312992482620333 -0.7065235225699273 0
          2.6187733116512635 -0.5921947250042486 0 2.5450192311089657 -0.4525171109038339 0
          2.4352301069482976 -0.6775003311929327 0 2.173114889862072 -0.2970646218206431 0
          2.6332542905958616 -0.5749354515218873 0 2.6971318504785735 -0.41498317993535605 0
          2.5121197829930084 -0.5109417114690823 0 2.5883232075138713 -0.2899602989149153 0
          1.1701668245172472 -0.10263240474494384 0 2.042066481548394 -0.43532306257089637 0
          2.685393816061075 -0.34044600323790014 0 2.333965544413777 -0.20933331175728637 0
          2.683973841473286 -0.23085183086215458 0 2.5622624288326215 -0.1980978760754237 0
          2.0948662701452676 -0.12407020606293966 0 2.5068757487531252 -0.1428611136114946 0
          2.6390049839430176 -0.11768813826202076 0 0 0 0
          1.594396153136637 -0.04925830705686308 0 1.0468431705584744 0.022259404290713353 0
          2.5798018177300728 -0.05766420235749376 0 2.441792025783256 -0.0001295631182139983 0
          2.048198835166167 -0.0954582158487294 0 0.5200013407737563 0.07401699588903093 0
          2.3871135939972015 -0.028517314587686676 0 2.496696211426493 0.05286600621665929 0
          0.15406957715756775 0.07054963852562313 0 2.0933528446573715 0.13473445841729312 0
          1.3631370785849222 0.15653155738612742 0 0 0 0
          2.385524902920036 0.06588505417553042 0 2.28645091942226 0.18335289829771798 0
          1.6638510546423644 0.23343695854562355 0 2.1489055091793565 0.00969086585852769 0
          0.9905620387274425 -0.1407613722948461 0 0.9339600969204636 0.2654681618506548 0
          2.265527800885384 0.17125429751703317 0 1.9468963997824889 0.3065541406104054 0
          2.149078812137253 0.11540973313909572 0 1.3044369820157364 0.34741080949306163 0
          0 0 0 2.0432990170389136 0.29500916241636754 0
          1.9323455027249055 0.08546336664786451 0 0.25074004470209393 0.1906033281747735 0
          1.5770594938263274 0.39271082992882234 0 0.5980603134570206 0.3076398808106039 0
          1.543328413740028 -0.05535190507089706 0 1.8870047979564601 0.17992851496107268 0
          0 0 0 1.7158374785846868 0.38093562402956793 0
          0 0 0 1.24397928422199 0.4605704330640669 0
          0.8084232828937721 0.45236318997069225 0 0.7968293861794378 -0.1762794324530315 0
          0.3842007482644442 0.2960660803531779 0 0 0 0
          0.9806915467088095 0.02066160169636233 0 1.1367961153204522 0.2359663900302931 0
          0.9113657499188635 0.3692127052036947 0 0.671529820563251 0.40526631086153286 0
          0.37701701514829766 0.31894105889985747 0 0 0 0
          0 0 0 0 0 0
          0 0 0 0 0 0
          0 0 0 0 0 0
          0 0 0 0 0 0
          1.3885847407949248 -0.15184436200862403 0 0 0 0
          2.35344217966917 -0.8005734989010058 0 2.4077151204364964 -0.7811121894276644 0
          2.3427634613540187 -0.7153167088354228 0 2.1767597492853294 -0.6881284506945079 0
          1.9441260798881674 -0.5099743318421854 0 1.7482505549254348 -0.40529360635736406 0
          2.1301616238259973 -0.7359797235053188 0 1.5319366149522589 -0.35109912144852706 0
          <InformationKey name="L2_NORM_RANGE" location="vtkDataArray" length="2">
            <Value index="0">
              0
            </Value>
            <Value index="1">
              2.72886996
            </Value>
          </InformationKey>
        </DataArray>
        <DataArray type="Float64" Name="ALEveloc" NumberOfComponents="3" format="ascii" RangeMin="0" RangeMax="0.008791471654432554">
          0 0 0 0.0018701589939642549 0.0015337586010234217 0
          0.003696675413558559 0.002722440941422155 0 0 0 0
          0.004722773568936134 0.003526224702822711 0 0.0017485350089989637 0.0013381782674012355 0
          0.0033519607862197986 0.0028285159271472793 0 0.004661038696107234 0.0037424106928944934 0
          0.005259067414120189 0.0042201114690825214 0 0 0 0
          0.00431270158216579 0.0036803657756897534 0 0.0017003145335787728 0.0010964146156037247 0
          0.0034978462451764614 0.0028714225509335334 0 0.005851716194478662 0.004554828323025895 0
          0.004897199889984272 0.004177136676151383 0 0.003860771449184508 0.00323130935249738 0
          0.006619886037720235 0.004647239405061621 0 0.002738049251456598 0.0018638859058150437 0
          0.0055544560007945165 0.004340346700517639 0 0.004466014629350923 0.003497094801892864 0
          0.006676006564917625 0.003948512155310557 0 0.0036695492408771457 0.002691379772813751 0
          0.0012220773953903752 0.00039523274107469697 0 0.008374220200285443 0.002676267902849472 0
          0.00532007679323776 0.0031878932785621705 0 0.002987042075226043 0.001980500387618156 0
          0.0043703818325742105 0.0026189547603411856 0 0.006201588537225078 0.0025576151954657678 0
          0.008190875440890366 0.0019625758700496376 0 0.0034365701911194257 0.002082983494025137 0
          0.005261619864119105 0.002120776501631755 0 0 0 0
          0.008094381791671434 0.0019580137697078753 0 0.005623397260185348 0.002053948801292234 0
          0.004317852556314783 0.0018459743011406404 0 0.0060610291304517006 0.001725471160441257 0
          0.0022933476850015566 0.0014967948242495532 0 0.0023015635195102746 0.001905028212901172 0
          0.0034111094595341562 0.0016069074410323125 0 0.00503246827099213 0.0015594945041816077 0
          0.0003629057972341365 0.001048643766586782 0 0.0065473449661057614 0.001807321765935871 0
          0.006418395352063122 0.0024916552611748133 0 0 0 0
          0.00405034095971768 0.0014023727686316295 0 0.005477930242528295 0.0014648377534420276 0
          0.006155905183976795 0.0022525179805820694 0 0.0029936653157300874 0.0012455695416729463 0
          0.0009376356569239519 0.0005985465941032164 0 0.004426175159801371 0.002904015472350696 0
          0.0044335116916993655 0.0012782767510430282 0 0.005613888579573789 0.0017129360251280645 0
          0.003552186478259056 0.0011747772015194835 0 0.005305864483121869 0.002612348418578714 0
          0 0 0 0.004734013616109145 0.001379663201797554 0
          0.0028964804920712517 0.0010231524130573655 0 0.0011504261548350714 0.001613573673291513 0
          0.005093695345163685 0.0020529718489333826 0 0.0028920230406013214 0.002523577022117973 0
          0.0016125471579813144 0.0007691187773110758 0 0.003206296555390953 0.0009576584102045094 0
          0 0 0 0.0042378721836748845 0.001393719739899324 0
          0 0 0 0.0043068292278267695 0.0020493423305580905 0
          0.0034578694022397993 0.00239642200112411 0 0.0005819830892483946 0.0002743185600758147 0
          0.0018852717363558869 0.0017720079472675065 0 0 0 0
          0.0012851616330384896 0.0002659129294564841 0 0.002256692394715376 0.0006480818982482206 0
          0.00249094355498114 0.0010669277412755918 0 0.0024754898352328247 0.0014443426716758134 0
          0.0016981790927519391 0.0013500789993434181 0 0 0 0
          0 0 0 0 0 0
          0 0 0 0 0 0
          0 0 0 0 0 0
          0 0 0 0 0 0
          0.0034899222271271846 0.002160276599907751 0 0 0 0
          0.0063625346984039766 0.004337340507494014 0 0.005900632770805991 0.004198686581994293 0
          0.005362460219812348 0.0039061559471595952 0 0.005235626638183888 0.0034310554304832763 0
          0.004563240615707009 0.003021035035937092 0 0.0043142023351125935 0.0026662565213251277 0
          0.007025392786066842 0.0038590052019742416 0 0.00784751567606179 0.0012730381568403226 0
          <InformationKey name="L2_NORM_RANGE" location="vtkDataArray" length="2">
            <Value index="0">
              0
            </Value>
            <Value index="1">
              0.0087914716544
            </Value>
          </InformationKey>
        </DataArray>
      </PointData>
      <CellData>
        <DataArray type="UInt8" Name="vtkGhostType" format="ascii" RangeMin="0" RangeMax="1">
          0 0 0 0 0 0
          0 0 1 0 0 1
          0 1 0 0 1 1
          1 0 0 0 0 0
          1 1 0 1 1 0
          1 1 0 1 0 0
          0 0 0 0 0 0
          0 0 0 0 0 0
          0 0 0 0 0 0
          0 0 0 0 0 0
          0 0 0 0 0 0
          0 0 0 0 0 0
          0 0 0 0 0 0
          0 0 0 0 0 0
          0 1 0 0 0 0
          0 0 0 1 0 0
          0 0 0 0 0 1
          0 0 0 0 0 0
          0 0 0 0 0 0
          0 0 0 0 0 0
          0 0 0 0 0 0
          0 0 0 0 0 0
          0 1 0 0 0 0
          0 0 0 0 0 0
          0 0 0 0 0 0
        </DataArray>
        <DataArray type="Float64" Name="PStrain" NumberOfComponents="6" format="ascii" RangeMin="0.00709360478625369" RangeMax="2.4209032965178197">
          0.010595504993940304 0.010595504993940304 0 0.010595504993940304 0 0
          0.01285677562974142 0.01285677562974142 0 0.01285677562974142 0 0
          0.01577312366400258 0.01577312366400258 0 0.01577312366400258 0 0
          0.012612135882461035 0.012612135882461035 0 0.012612135882461035 0 0
          0.009186481404933822 0.009186481404933822 0 0.009186481404933822 0 0
          0.008765143706027916 0.008765143706027916 0 0.008765143706027916 0 0
          0.007977932283910926 0.007977932283910926 0 0.007977932283910926 0 0
          0.011306176312775893 0.011306176312775893 0 0.011306176312775893 0 0
          0.00964789800890574 0.00964789800890574 0 0.00964789800890574 0 0
          0.007929189085149505 0.007929189085149505 0 0.007929189085149505 0 0
          0.009884261753029084 0.009884261753029084 0 0.009884261753029084 0 0
          0.006139329813305306 0.006139329813305306 0 0.006139329813305306 0 0
          0.007575025459680083 0.007575025459680083 0 0.007575025459680083 0 0
          0.005038990820080575 0.005038990820080575 0 0.005038990820080575 0 0
          0.08126985087153142 0.08126985087153142 0 0.08126985087153142 0 0
          0.05482852195535494 0.05482852195535494 0 0.05482852195535494 0 0
          0.0958667979167798 0.0958667979167798 0 0.0958667979167798 0 0
          0.0978840417996825 0.0978840417996825 0 0.0978840417996825 0 0
          0.04849467251936017 0.04849467251936017 0 0.04849467251936017 0 0
          0.056262157724188036 0.056262157724188036 0 0.056262157724188036 0 0
          0.04335295463270074 0.04335295463270074 0 0.04335295463270074 0 0
          0.025036305991619157 0.025036305991619157 0 0.025036305991619157 0 0
          0.02128770221177785 0.02128770221177785 0 0.02128770221177785 0 0
          0.02503243154024084 0.02503243154024084 0 0.02503243154024084 0 0
          0.044501564816319825 0.044501564816319825 0 0.044501564816319825 0 0
          0.026150883966985235 0.026150883966985235 0 0.026150883966985235 0 0
          0.022563007486612396 0.022563007486612396 0 0.022563007486612396 0 0
          0.030097335906819622 0.030097335906819622 0 0.030097335906819622 0 0
          0.018206748066674695 0.018206748066674695 0 0.018206748066674695 0 0
          0.026016158383954092 0.026016158383954092 0 0.026016158383954092 0 0
          0.01638624406137274 0.01638624406137274 0 0.01638624406137274 0 0
          0.014015234790038047 0.014015234790038047 0 0.014015234790038047 0 0
          0.015729765697418338 0.015729765697418338 0 0.015729765697418338 0 0
          0.007380922848807396 0.007380922848807396 0 0.007380922848807396 0 0
          0.09999999999999999 0.09999999999999999 0 0.09999999999999999 0 0
          0.005182580825442405 0.005182580825442405 0 0.005182580825442405 0 0
          0.012364027053974162 0.012364027053974162 0 0.012364027053974162 0 0
          0.007938784743617928 0.007938784743617928 0 0.007938784743617928 0 0
          0.005881478089347876 0.005881478089347876 0 0.005881478089347876 0 0
          0.015057537007985174 0.015057537007985174 0 0.015057537007985174 0 0
          0.029794128749594133 0.029794128749594133 0 0.029794128749594133 0 0
          0.03558041651782661 0.03558041651782661 0 0.03558041651782661 0 0
          0.01430008604858771 0.01430008604858771 0 0.01430008604858771 0 0
          0.04647469467750908 0.04647469467750908 0 0.04647469467750908 0 0
          0.021240841775834355 0.021240841775834355 0 0.021240841775834355 0 0
          0.060434182163006195 0.060434182163006195 0 0.060434182163006195 0 0
          0.01333311650173743 0.01333311650173743 0 0.01333311650173743 0 0
          0.008660942134932627 0.008660942134932627 0 0.008660942134932627 0 0
          0.05378854997276244 0.05378854997276244 0 0.05378854997276244 0 0
          0.03429471713625897 0.03429471713625897 0 0.03429471713625897 0 0
          0.04009638644193599 0.04009638644193599 0 0.04009638644193599 0 0
          0.026440486158298943 0.026440486158298943 0 0.026440486158298943 0 0
          0.0109473740729987 0.0109473740729987 0 0.0109473740729987 0 0
          0.016886139740474496 0.016886139740474496 0 0.016886139740474496 0 0
          0.032160463375764725 0.032160463375764725 0 0.032160463375764725 0 0
          0.032200706013791665 0.032200706013791665 0 0.032200706013791665 0 0
          0.02967767536415048 0.02967767536415048 0 0.02967767536415048 0 0
          0.014294953915197067 0.014294953915197067 0 0.014294953915197067 0 0
          0.01838639472557418 0.01838639472557418 0 0.01838639472557418 0 0
          0.013142297094817824 0.013142297094817824 0 0.013142297094817824 0 0
          0.004608723594073239 0.004608723594073239 0 0.004608723594073239 0 0
          0.008134635943852265 0.008134635943852265 0 0.008134635943852265 0 0
          0.01482823342960685 0.01482823342960685 0 0.01482823342960685 0 0
          0.0120384724791641 0.0120384724791641 0 0.0120384724791641 0 0
          0.010013875565630449 0.010013875565630449 0 0.010013875565630449 0 0
          0.006795987676223914 0.006795987676223914 0 0.006795987676223914 0 0
          0.004095494632868385 0.004095494632868385 0 0.004095494632868385 0 0
          1.3977091699266155 1.3977091699266155 0 1.3977091699266155 0 0
          0.8994225315349762 0.8994225315349762 0 0.8994225315349762 0 0
          0.9172901697702909 0.9172901697702909 0 0.9172901697702909 0 0
          0.9544911843268247 0.9544911843268247 0 0.9544911843268247 0 0
          0.22496021752805462 0.22496021752805462 0 0.22496021752805462 0 0
          0.2529469804970763 0.2529469804970763 0 0.2529469804970763 0 0
          1.218379153988767 1.218379153988767 0 1.218379153988767 0 0
          0.6118322758715173 0.6118322758715173 0 0.6118322758715173 0 0
          0.16040036132394045 0.16040036132394045 0 0.16040036132394045 0 0
          0.24792855783821427 0.24792855783821427 0 0.24792855783821427 0 0
          0.06490270498878914 0.06490270498878914 0 0.06490270498878914 0 0
          0.32242950652793956 0.32242950652793956 0 0.32242950652793956 0 0
          0.2216085918189335 0.2216085918189335 0 0.2216085918189335 0 0
          0.2114944145121977 0.2114944145121977 0 0.2114944145121977 0 0
          0.5963170269175884 0.5963170269175884 0 0.5963170269175884 0 0
          0.1674987564780045 0.1674987564780045 0 0.1674987564780045 0 0
          0.2631619263223686 0.2631619263223686 0 0.2631619263223686 0 0
          0.1314925153198395 0.1314925153198395 0 0.1314925153198395 0 0
          0.289383383275115 0.289383383275115 0 0.289383383275115 0 0
          0.08895209512982576 0.08895209512982576 0 0.08895209512982576 0 0
          0.05865730629516523 0.05865730629516523 0 0.05865730629516523 0 0
          0.3887197091212636 0.3887197091212636 0 0.3887197091212636 0 0
          0.0756888774153799 0.0756888774153799 0 0.0756888774153799 0 0
          0.023344014764261643 0.023344014764261643 0 0.023344014764261643 0 0
          0.08679355744851937 0.08679355744851937 0 0.08679355744851937 0 0
          0.029640951776255725 0.029640951776255725 0 0.029640951776255725 0 0
          0.2673055289220324 0.2673055289220324 0 0.2673055289220324 0 0
          0.15542144698869376 0.15542144698869376 0 0.15542144698869376 0 0
          0.08706229038811544 0.08706229038811544 0 0.08706229038811544 0 0
          0.3306229642460429 0.3306229642460429 0 0.3306229642460429 0 0
          0.09939646497274943 0.09939646497274943 0 0.09939646497274943 0 0
          0.05612648208111394 0.05612648208111394 0 0.05612648208111394 0 0
          0.15627767404492637 0.15627767404492637 0 0.15627767404492637 0 0
          0.07978542229150971 0.07978542229150971 0 0.07978542229150971 0 0
          0.15656217639236095 0.15656217639236095 0 0.15656217639236095 0 0
          0.036007670967033514 0.036007670967033514 0 0.036007670967033514 0 0
          0.19113766196811183 0.19113766196811183 0 0.19113766196811183 0 0
          0.17867848392301303 0.17867848392301303 0 0.17867848392301303 0 0
          0.20163001380499013 0.20163001380499013 0 0.20163001380499013 0 0
          0.034657885740354014 0.034657885740354014 0 0.034657885740354014 0 0
          0.031484366416103936 0.031484366416103936 0 0.031484366416103936 0 0
          0.15802465135882665 0.15802465135882665 0 0.15802465135882665 0 0
          0.09510149927736608 0.09510149927736608 0 0.09510149927736608 0 0
          0.08981667334861207 0.08981667334861207 0 0.08981667334861207 0 0
          0.02931418247685244 0.02931418247685244 0 0.02931418247685244 0 0
          0.18752145188262853 0.18752145188262853 0 0.18752145188262853 0 0
          0.04788188535455986 0.04788188535455986 0 0.04788188535455986 0 0
          0.07586473521370944 0.07586473521370944 0 0.07586473521370944 0 0
          0.05262705963098763 0.05262705963098763 0 0.05262705963098763 0 0
          0.07706401710197829 0.07706401710197829 0 0.07706401710197829 0 0
          0.06084322178626267 0.06084322178626267 0 0.06084322178626267 0 0
          0.039880445675447 0.039880445675447 0 0.039880445675447 0 0
          0.090981492779757 0.090981492779757 0 0.090981492779757 0 0
          0.10789673851144402 0.10789673851144402 0 0.10789673851144402 0 0
          0.09996380735033998 0.09996380735033998 0 0.09996380735033998 0 0
          0.015777167529866926 0.015777167529866926 0 0.015777167529866926 0 0
          0.11217332166851049 0.11217332166851049 0 0.11217332166851049 0 0
          0.0979788630818938 0.0979788630818938 0 0.0979788630818938 0 0
          0.030214409017321982 0.030214409017321982 0 0.030214409017321982 0 0
          0.05341526925164734 0.05341526925164734 0 0.05341526925164734 0 0
          0.07151261792708254 0.07151261792708254 0 0.07151261792708254 0 0
          0.07361964084416758 0.07361964084416758 0 0.07361964084416758 0 0
          0.2805322871649761 0.2805322871649761 0 0.2805322871649761 0 0
          0.033558341490185176 0.033558341490185176 0 0.033558341490185176 0 0
          0.017902660615586923 0.017902660615586923 0 0.017902660615586923 0 0
          0.06074796306587302 0.06074796306587302 0 0.06074796306587302 0 0
          0.27173799300616014 0.27173799300616014 0 0.27173799300616014 0 0
          0.07831871447110507 0.07831871447110507 0 0.07831871447110507 0 0
          0.12616182229058426 0.12616182229058426 0 0.12616182229058426 0 0
          0.12257923913004348 0.12257923913004348 0 0.12257923913004348 0 0
          0.05902684265601464 0.05902684265601464 0 0.05902684265601464 0 0
          0.019034136452576032 0.019034136452576032 0 0.019034136452576032 0 0
          0.01592662976294553 0.01592662976294553 0 0.01592662976294553 0 0
          0.04034616251784063 0.04034616251784063 0 0.04034616251784063 0 0
          0.012364027053974165 0.012364027053974165 0 0.012364027053974165 0 0
          0.08647926563430901 0.08647926563430901 0 0.08647926563430901 0 0
          0.016091102335792577 0.016091102335792577 0 0.016091102335792577 0 0
          0.04500490528985405 0.04500490528985405 0 0.04500490528985405 0 0
          0.027791563279280833 0.027791563279280833 0 0.027791563279280833 0 0
          0.027684373443781406 0.027684373443781406 0 0.027684373443781406 0 0
          0.03960218019798576 0.03960218019798576 0 0.03960218019798576 0 0
          0.042500543553122064 0.042500543553122064 0 0.042500543553122064 0 0
          0.028364506644374295 0.028364506644374295 0 0.028364506644374295 0 0
          <InformationKey name="L2_NORM_RANGE" location="vtkDataArray" length="2">
            <Value index="0">