<?xml version="1.0"?>
<VTKFile type="UnstructuredGrid" version="0.1" byte_order="LittleEndian" header_type="UInt32" compressor="vtkZLibDataCompressor">
  <UnstructuredGrid>
    <Piece NumberOfPoints="264" NumberOfCells="140">
      <PointData>
        <DataArray type="Float64" Name="nsi_BC" NumberOfComponents="3" format="ascii" RangeMin="0" RangeMax="44">
          0 0 0 0 0 0
          0 0 0 0 0 0
          0 0 0 0 0 0
          0 0 0 0 0 0
          0 0 0 0 0 0
          0 0 0 0 0 0
          0 0 0 0 0 0
          0 0 0 0 0 0
          0 0 0 0 0 0
          0 0 0 0 0 0
          0 0 0 0 0 0
          0 0 0 0 0 0
          0 0 0 0 0 0
          0 0 0 0 0 0
          0 0 0 0 0 0
          0 0 0 0 0 0
          0 0 0 0 0 0
          0 0 0 0 0 0
          0 0 0 0 0 0
          0 0 0 0 0 0
          0 0 0 0 0 0
          0 0 0 0 0 0
          0 0 0 0 0 0
          0 0 0 0 0 0
          0 0 0 0 0 0
          0 0 0 0 0 0
          0 0 0 0 0 0
          0 0 0 0 0 0
          0 0 0 0 0 0
          0 0 0 0 0 0
          0 0 0 0 0 0
          0 0 0 0 0 0
          0 0 0 0 0 0
          0 0 0 0 0 0
          0 0 0 0 0 0
          0 0 0 0 0 0
          0 0 0 0 0 0
          0 0 0 0 0 0
          0 0 0 0 0 0
          0 0 0 0 0 0
          0 0 0 0 0 0
          0 0 0 0 0 0
          0 0 0 0 0 0
          0 0 0 0 0 0
          0 0 0 0 0 0
          0 0 0 0 0 0
          0 0 0 0 0 0
          0 0 0 0 0 0
          0 0 0 0 0 0
          0 0 0 0 0 0
          0 0 0 0 0 0
          0 0 0 0 0 0
          0 0 0 0 0 0
          0 0 0 0 0 0
          0 0 0 0 0 0
          0 0 0 0 0 0
          0 0 0 0 0 0
          0 0 0 0 0 0
          0 0 0 0 0 0
          0 0 0 0 0 0
          0 0 0 0 0 0
          0 0 0 0 0 0
          0 0 0 0 0 0
          0 0 0 0 0 0
          0 0 0 0 0 0
          0 0 0 0 0 0
          0 0 0 0 0 0
          0 0 0 0 0 0
          0 0 0 0 0 0
          0 0 0 0 0 0
          0 0 0 0 0 0
          0 0 0 0 0 0
          0 0 0 0 0 0
          0 0 0 0 0 0
          0 0 0 0 0 0
          0 0 0 0 0 0
          0 0 0 0 0 0
          0 0 0 0 0 0
          0 0 0 0 0 0
          0 0 0 0 0 0
          0 0 0 0 0 0
          0 0 0 0 0 0
          0 0 0 0 0 0
          0 0 0 0 0 0
          0 0 0 0 0 0
          0 0 0 0 0 0
          0 0 0 0 0 0
          0 0 0 0 0 0
          0 0 0 0 0 0
          0 0 0 0 0 0
          0 0 0 0 0 0
          0 0 0 0 0 0
          0 0 0 0 0 0
          0 0 0 0 0 0
          0 0 0 0 0 0
          0 0 0 0 0 0
          0 0 0 0 0 0
          0 0 0 0 0 0
          0 0 0 0 0 0
          0 0 0 0 0 0
          0 0 0 0 0 0
          0 0 0 0 0 0
          0 0 0 0 0 0
          0 0 0 0 0 0
          0 0 0 0 0 0
          0 0 0 0 0 0
          0 0 0 0 0 0
          0 0 0 0 0 0
          0 0 0 0 0 0
          0 0 0 0 0 0
          0 0 0 0 0 0
          0 0 0 0 0 0
          0 0 0 0 0 0
          0 0 0 0 0 0
          0 0 0 0 0 0
          0 0 0 0 0 0
          0 0 0 0 0 0
          0 0 0 0 0 0
          0 0 0 0 0 0
          0 0 0 0 0 0
          44 0 0 44 0 0
          44 0 0 44 0 0
          44 0 0 44 0 0
          44 0 0 44 0 0
          44 0 0 44 0 0
          44 0 0 0 0 0
          0 0 0 44 0 0
          0 0 0 44 0 0
          44 0 0 44 0 0
          44 0 0 44 0 0
          44 0 0 44 0 0
          44 0 0 44 0 0
          <InformationKey name="L2_NORM_RANGE" location="vtkDataArray" length="2">
            <Value index="0">
              0
            </Value>
            <Value index="1">
              44
            </Value>
          </InformationKey>
        </DataArray>
        <DataArray type="Float64" Name="nsi_FIXNO" NumberOfComponents="3" format="ascii" RangeMin="1" RangeMax="1.7320508075688772">
          0 1 0 0 1 0
          0 1 0 0 1 0
          0 1 0 0 1 0
          0 1 0 0 1 0
          0 1 0 0 1 0
          0 1 0 0 1 0
          0 1 0 0 1 0
          0 1 0 -1 -1 -1
          -1 -1 -1 -1 -1 -1
          -1 -1 -1 -1 -1 -1
          -1 -1 -1 -1 -1 -1
          -1 -1 -1 -1 -1 -1
          -1 -1 -1 -1 -1 -1
          -1 -1 -1 -1 -1 -1
          -1 -1 -1 -1 -1 -1
          0 1 0 0 1 0
          0 1 0 -1 -1 -1
          0 1 0 -1 -1 -1
          0 1 0 -1 -1 -1
          0 1 0 -1 -1 -1
          -1 -1 -1 -1 -1 -1
          -1 -1 -1 -1 -1 -1
          -1 -1 -1 -1 -1 -1
          -1 -1 -1 -1 -1 -1
          -1 -1 -1 -1 -1 -1
          -1 -1 -1 0 1 0
          0 1 0 0 1 0
          -1 -1 -1 -1 -1 -1
          -1 -1 -1 -1 -1 -1
          -1 -1 -1 -1 -1 -1
          -1 -1 -1 -1 -1 -1
          0 1 0 0 1 0
          0 1 0 -1 -1 -1
          0 1 0 -1 -1 -1
          -1 -1 -1 0 1 0
          0 1 0 0 1 0
          -1 -1 -1 0 1 0
          -1 -1 -1 -1 -1 -1
          -1 -1 -1 -1 -1 -1
          -1 -1 -1 -1 -1 -1
          0 1 0 -1 -1 -1
          -1 -1 -1 -1 -1 -1
          0 1 0 -1 -1 -1
          0 1 0 -1 -1 -1
          -1 -1 -1 0 1 0
          -1 -1 -1 -1 -1 -1
          1 0 0 -1 -1 -1
          1 0 0 0 1 0
          1 0 0 0 1 0
          1 0 0 0 1 0
          1 0 0 0 1 0
          -1 -1 -1 -1 -1 -1
          0 1 0 1 0 0
          0 1 0 -1 -1 -1
          -1 -1 -1 1 0 0
          -1 -1 -1 -1 -1 -1
          1 0 0 -1 -1 -1
          -1 -1 -1 1 0 0
          1 0 0 -1 -1 -1
          1 0 0 1 0 0
          -1 -1 -1 0 1 0
          -1 -1 -1 -1 -1 -1
          0 1 0 -1 -1 -1
          -1 -1 -1 -1 -1 -1
          -1 -1 -1 0 1 0
          -1 -1 -1 -1 -1 -1
          -1 -1 -1 -1 -1 -1
          -1 -1 -1 -1 -1 -1
          -1 -1 -1 -1 -1 -1
          -1 -1 -1 -1 -1 -1
          -1 -1 -1 -1 -1 -1
          -1 -1 -1 -1 -1 -1
          -1 -1 -1 -1 -1 -1
          -1 -1 -1 0 1 0
          0 1 0 0 1 0
          -1 -1 -1 -1 -1 -1
          1 0 0 0 1 0
          -1 -1 -1 1 0 0
          0 1 0 -1 -1 -1
          -1 -1 -1 -1 -1 -1
          1 0 0 0 1 0
          -1 -1 -1 1 0 0
          1 0 0 -1 -1 -1
          -1 -1 -1 1 0 0
          1 0 0 1 0 0
          -1 -1 -1 -1 -1 -1
          -1 -1 -1 1 0 0
          -1 -1 -1 1 0 0
          -1 -1 -1 1 0 0
          -1 -1 -1 0 1 0
          0 1 0 1 0 0
          -1 -1 -1 -1 -1 -1
          0 1 0 -1 -1 -1
          -1 -1 -1 -1 -1 -1
          -1 -1 -1 -1 -1 -1
          -1 -1 -1 -1 -1 -1
          -1 -1 -1 -1 -1 -1
          -1 -1 -1 -1 -1 -1
          -1 -1 -1 -1 -1 -1
          -1 -1 -1 -1 -1 -1
          -1 -1 -1 -1 -1 -1
          -1 -1 -1 -1 -1 -1
          -1 -1 -1 -1 -1 -1
          -1 -1 -1 0 1 0
          0 1 0 -1 -1 -1
          -1 -1 -1 0 1 0
          -1 -1 -1 -1 -1 -1
          -1 -1 -1 0 1 0
          0 1 0 -1 -1 -1
          -1 -1 -1 0 1 0
          -1 -1 -1 -1 -1 -1
          -1 -1 -1 -1 -1 -1
          -1 -1 -1 -1 -1 -1
          -1 -1 -1 -1 -1 -1
          -1 -1 -1 -1 -1 -1
          -1 -1 -1 -1 -1 -1
          -1 -1 -1 -1 -1 -1
          0 1 0 0 1 0
          0 1 0 -1 -1 -1
          -1 -1 -1 -1 -1 -1
          1 1 1 1 1 1
          1 1 1 1 1 1
          1 1 1 1 1 1
          1 1 1 1 1 1
          1 1 1 1 1 1
          1 1 1 0 1 0
          0 1 0 1 1 1
          0 1 0 1 1 1
          1 1 1 1 1 1
          1 1 1 1 1 1
          1 1 1 1 1 1
          1 1 1 1 1 1
          <InformationKey name="L2_NORM_RANGE" location="vtkDataArray" length="2">
            <Value index="0">
              1
            </Value>
            <Value index="1">
              1.7320508076
            </Value>
          </InformationKey>
        </DataArray>
        <DataArray type="Float64" Name="Velocity" NumberOfComponents="3" format="ascii" RangeMin="0.12533852282012037" RangeMax="75.39873476916281">
          51.645807896902866 0 -2.4343498051020635e-13 51.64580789683396 0 2.1824523328080608e-13
          52.154576203865005 0 6.03633731462959e-13 52.154576203898664 0 -6.331452326773285e-13
          51.645807896902866 0 -2.4343498051020635e-13 52.154576203865005 0 6.03633731462959e-13
          54.25368154910198 0 -2.8686098982988847e-12 54.25368154895157 0 2.893545517481808e-12
          54.25368154910198 0 -2.8686098982988847e-12 58.81180124559347 0 1.5725684995627246e-11
          58.81180124550587 0 -1.5567850244390997e-11 58.81180124559347 0 1.5725684995627246e-11
          59.68386004394723 0 -8.000975166769402e-11 59.68386004220756 0 7.998763935069219e-11
          59.68386004394723 0 -8.000975166769402e-11 55.6738518621761 0.03804270995584021 -6.384337408246187e-14
          55.67385186227142 0.03804270994056081 2.760882249597752e-14 55.54785046689231 0.09535035426405594 1.4305040085538325e-13
          54.129469593374665 -1.503698372430596 -2.832149537341801e-12 55.547850466814644 0.09535035422456836 -1.3203590844425184e-13
          54.12946959353834 -1.5036983719899335 2.655084315905306e-12 55.6738518621761 0.03804270995584021 -6.384337408246187e-14
          55.54785046689231 0.09535035426405594 1.4305040085538325e-13 55.49349987884082 0.19948594086746504 -9.016677382148312e-13
          54.129469593374665 -1.503698372430596 -2.832149537341801e-12 55.493499878935935 0.1994859407602512 8.170260567044921e-13
          55.82108561797155 -1.9983230249873194 1.4010797841956835e-11 55.821085617956626 -1.9983230246369206 -1.3896579363958424e-11
          55.49349987884082 0.19948594086746504 -9.016677382148312e-13 55.82108561797155 -1.9983230249873194 1.4010797841956835e-11
          55.95230617646354 0 2.9932323226616006e-10 55.95230617321949 0 -2.9915244912285634e-10
          55.95230617646354 0 2.9932323226616006e-10 55.41301474548784 -2.6085146318451997 -3.879563414553225e-11
          54.52502107705334 0 -1.0778147690761565e-9 55.41301474660755 -2.608514630832494 3.884292584291458e-11
          54.525021081155344 0 1.077675132143982e-9 55.41301474548784 -2.6085146318451997 -3.879563414553225e-11
          54.52502107705334 0 -1.0778147690761565e-9 53.7292269375332 1.1099252848439496 4.35135449138641e-12
          53.72922693763316 1.1099252847318186 -4.50908007634272e-12 52.212147044256504 -0.9505892955551728 7.203751071728665e-12
          52.21214704358708 -0.9505892960416636 -6.908892925443127e-12 53.7292269375332 1.1099252848439496 4.35135449138641e-12
          52.212147044256504 -0.9505892955551728 7.203751071728665e-12 57.567468468965565 -1.7558945683207627 1.5168557098928207e-10
          57.56746846677866 -1.7558945672923858 -1.5148039006039717e-10 51.87483719289036 1.766764944395902 -1.54595782401386e-11
          51.87483719258355 1.7667649446219373 1.5672152065841626e-11 57.567468468965565 -1.7558945683207627 1.5168557098928207e-10
          51.87483719289036 1.766764944395902 -1.54595782401386e-11 56.42932220215109 0 3.5669646366030507e-9
          56.42932220097943 0 -3.5674891607387625e-9 56.42932220215109 0 3.5669646366030507e-9
          54.04075379469854 1.7337059944847129 -3.442867828164405e-11 49.76251267869182 -9.139523120351987 -4.829966443735838e-11
          54.04075379422411 1.7337059949744795 3.41148105194898e-11 49.76251268032918 -9.139523120152127 4.8240562654940575e-11
          54.04075379469854 1.7337059944847129 -3.442867828164405e-11 49.76251267869182 -9.139523120351987 -4.829966443735838e-11
          56.40206675438651 2.96096747709423 -5.827515612946073e-11 56.4020667535499 2.9609674783313387 5.83157064119839e-11
          51.887776507470576 0 -2.371578460478766e-13 51.88777650735213 0 2.0438010800390873e-13
          52.556151739251845 0 6.556067823918625e-13 57.431981973890345 -0.20921285232142786 -5.873528351374107e-10
          52.55615173902589 0 -6.238513418821291e-13 57.43198197515578 -0.20921285199135412 5.874612768909727e-10
          56.40206675438651 2.96096747709423 -5.827515612946073e-11 51.887776507470576 0 -2.371578460478766e-13
          52.556151739251845 0 6.556067823918625e-13 55.06257938167364 0 -3.027469843807415e-12
          57.431981973890345 -0.20921285232142786 -5.873528351374107e-10 55.06257938116537 0 3.1744351530241662e-12
          49.447864403581605 -6.924132043461044 3.065743953663267e-11 46.18851251082904 9.115595655257932 7.502765986806342e-11
          65.40248512370809 -1.6062965479777342 1.9640708985510485e-10 49.4478644012567 -6.924132043530936 -3.074000988191685e-11
          46.188512510860214 9.115595654706446 -7.542345244807191e-11 65.40248512378643 -1.6062965473709296 -1.9639886840644536e-10
          55.06257938167364 0 -3.027469843807415e-12 49.447864403581605 -6.924132043461044 3.065743953663267e-11
          46.18851251082904 9.115595655257932 7.502765986806342e-11 65.40248512370809 -1.6062965479777342 1.9640708985510485e-10
          58.57021413645436 0 1.323921830391442e-11 64.36217511647739 -3.155211778439663 -1.3600673007239473e-10
          58.57021413771939 0 -1.3123650403222576e-11 64.36217511712813 -3.1552117783178404 1.3604096868882312e-10
          56.275855499996915 1.0566365644085736 2.1476744317217928e-10 58.57021413645436 0 1.323921830391442e-11
          64.36217511647739 -3.155211778439663 -1.3600673007239473e-10 56.275855501021745 1.0566365646774847 -2.1503764956433482e-10
          -4.166985084114809e-8 -0.12533852510999743 -6.898025710842061e-11 56.275855499996915 1.0566365644085736 2.1476744317217928e-10
          -4.1669850084017496e-8 -0.12533852282011346 6.924111344009833e-11 56.95901907275922 0 -9.915220196192252e-9
          30.1920576490161 -0.000005246911706076315 4.811798570792848e-10 57.38105618651464 0 -6.39446040012866e-11
          -4.166985084114809e-8 -0.12533852510999743 -6.898025710842061e-11 56.959019072064024 0 9.914934367679293e-9
          30.192057649968135 -0.000005246911696428195 -4.811921789863564e-10 57.38105618717863 0 6.417948579581764e-11
          63.29536384884405 2.7508445248038362 1.8706270580862677e-10 63.29536384899185 2.75084452588419 -1.8656392135606288e-10
          56.95901907275922 0 -9.915220196192252e-9 30.1920576490161 -0.000005246911706076315 4.811798570792848e-10
          57.38105618651464 0 -6.39446040012866e-11 63.29536384884405 2.7508445248038362 1.8706270580862677e-10
          57.45017871556864 0.5098539863525765 2.2120841519488902e-9 10.941317069890774 -0.0000019014313384013838 2.2711807981147552e-10
          67.56483616391422 0.16698082579949144 -7.63776317194571e-10 57.45017871540068 0.509853987667558 -2.2116936529433247e-9
          10.941317069661842 -0.0000019014313350927876 -2.2721793417251097e-10 67.56483616210468 0.16698082383061166 7.637098380551738e-10
          57.45017871556864 0.5098539863525765 2.2120841519488902e-9 0.0000031951709328565696 9.610737837338121 -9.417659979240196e-10
          10.941317069890774 -0.0000019014313384013838 2.2711807981147552e-10 67.56483616391422 0.16698082579949144 -7.63776317194571e-10
          0.0000031951709301394124 9.610737836582222 9.415973313827323e-10 0.0000031951709328565696 9.610737837338121 -9.417659979240196e-10
          23.92128277498544 8.089384376898943 1.0179420908644628e-9 55.28461072304036 0 2.741871859673443e-10
          75.38186937287493 -1.594670699982112 -3.8828461565170687e-10 23.921282774823787 8.089384375624995 -1.0178888303372277e-9
          55.28461072120996 0 -2.738901048516404e-10 75.38186937251145 -1.5946706986737547 3.8821799011354467e-10
          56.14142657199058 0.8577275083128973 -9.038211167607632e-10 56.14142657335451 0.8577275088914788 9.033552129743049e-10
          23.92128277498544 8.089384376898943 1.0179420908644628e-9 55.28461072304036 0 2.741871859673443e-10
          75.38186937287493 -1.594670699982112 -3.8828461565170687e-10 56.14142657199058 0.8577275083128973 -9.038211167607632e-10
          57.599336064840465 -0.011470146962694536 -8.496224857265944e-10 57.59933606732291 -0.011470145300330647 8.497684587073155e-10
          60.73164858082989 -0.06812000654811552 3.2236277123467047e-9 57.599336064840465 -0.011470146962694536 -8.496224857265944e-10
          60.73164858050317 -0.0681200062332956 -3.2237759264954972e-9 14.755996159160594 -2.4107910936417567 -3.2625084297455985e-9
          14.755996158288104 -2.410791093022867 3.2624102052335653e-9 59.287715053084575 1.311098831298446 -8.4316398256878e-9
          62.94727103966926 -3.908000326379745 1.8433091778620605e-9 59.28771505223737 1.311098830499799 8.431796713467847e-9
          62.94727104158056 -3.908000324518225 -1.8432752346631853e-9 60.73164858082989 -0.06812000654811552 3.2236277123467047e-9
          14.755996159160594 -2.4107910936417567 -3.2625084297455985e-9 59.287715053084575 1.311098831298446 -8.4316398256878e-9
          62.94727103966926 -3.908000326379745 1.8433091778620605e-9 57.23700229751277 0 -1.1446654629689357e-9
          57.23700229897126 0 1.1452066659010387e-9 57.23700229751277 0 -1.1446654629689357e-9
          57.012570215332715 0.6592492542250721 3.3056017730898013e-9 57.012570215627605 0.6592492556623097 -3.305968382683209e-9
          -0.0000027507061760017175 -8.480142475783271 9.133560853341815e-9 52.536384003163704 0 1.6875807774515392e-8
          57.012570215332715 0.6592492542250721 3.3056017730898013e-9 -0.0000027507061766946697 -8.480142472423248 -9.133592880598782e-9
          52.536384004976846 0 -1.6876072052664738e-8 67.55011737551786 2.2823357012732535 -1.5785196096751473e-8
          58.12655528066775 -1.1065089742562924 3.354417435059257e-9 67.55011737639775 2.2823357046594164 1.5785162139374266e-8
          -0.0000027507061760017175 -8.480142475783271 9.133560853341815e-9 52.536384003163704 0 1.6875807774515392e-8
          58.126555282914275 -1.1065089743821936 -3.354445807170754e-9 30.5561059934376 -0.000005310177657563168 4.9951563291728e-9
          30.556105998864894 -0.000005310177658147108 -4.995248118799808e-9 67.55011737551786 2.2823357012732535 -1.5785196096751473e-8
          58.12655528066775 -1.1065089742562924 3.354417435059257e-9 30.5561059934376 -0.000005310177657563168 4.9951563291728e-9
          28.485337373096602 -0.000004950310160084443 -5.514607379043457e-8 28.485337365914376 -0.00000495031016640094 5.5145933103675415e-8
          69.1775893125795 -3.20613047271452 -6.859326701567699e-9 69.17758931369002 -3.2061304760081337 6.859453217902897e-9
          54.20105417518235 2.505087137358635 2.409992158018263e-8 28.485337373096602 -0.000004950310160084443 -5.514607379043457e-8
          54.20105417693362 2.5050871384081006 -2.4099950762805935e-8 0.000007457249623470466 22.98992887594905 -4.973440474663565e-8
          69.1775893125795 -3.20613047271452 -6.859326701567699e-9 0.000007457249629787742 22.989928877729973 4.973423140218319e-8
          54.20105417518235 2.505087137358635 2.409992158018263e-8 56.58870608536893 0 4.02869834392835e-9
          56.588706086260046 0 -4.028151934214317e-9 0.000007457249623470466 22.98992887594905 -4.973440474663565e-8
          64.92324093053388 3.6072018805920028 3.609028756304773e-8 64.92324093077 3.60720188289372 -3.609047526538523e-8
          56.58870608536893 0 4.02869834392835e-9 64.92324093053388 3.6072018805920028 3.609028756304773e-8
          57.28270841671611 -0.8904280934240403 -1.0068934731342244e-8 57.28270841374649 -0.8904280937304345 1.0068993823305237e-8
          53.20936955095792 -1.956365093105193 -1.2183981201224283e-8 53.20936954545659 -1.9563650908130663 1.2183811049974164e-8
          57.28270841671611 -0.8904280934240403 -1.0068934731342244e-8 53.20936955095792 -1.956365093105193 -1.2183981201224283e-8
          42.60629266240716 -3.1891579109687305 8.782439061915523e-8 42.60629265706899 -3.1891579137387667 -8.782417308801027e-8
          54.9025013466864 -6.991990537730546 3.614371525646749e-8 42.60629266240716 -3.1891579109687305 8.782439061915523e-8
          54.90250134481186 -6.991990539557376 -3.614364943429988e-8 59.25746300078206 -8.438352575125645 2.14341603072603e-8
          59.25746300189496 -8.438352576116394 -2.1433965017139104e-8 54.9025013466864 -6.991990537730546 3.614371525646749e-8
          59.25746300078206 -8.438352575125645 2.14341603072603e-8 56.7737966182453 -0.734456388278931 -2.6629103722678855e-8
          56.77379661737737 -0.734456388568993 2.662908820125884e-8 48.36254414045016 -4.672105001603042 6.824468030234132e-8
          48.36254414201323 -4.672104994354169 -6.824505157542536e-8 56.7737966182453 -0.734456388278931 -2.6629103722678855e-8
          48.36254414045016 -4.672105001603042 6.824468030234132e-8 56.462414995788954 0 -1.1040913652064668e-8
          56.46241499505418 0 1.1040626126744145e-8 58.80772804822302 2.7084407277574094 -2.4987702265624488e-9
          58.807728048183876 2.708440728535488 2.4986591900588643e-9 56.462414995788954 0 -1.1040913652064668e-8
          52.23617129814557 -1.5445391865014946 2.5733231834683783e-8 58.80772804822302 2.7084407277574094 -2.4987702265624488e-9
          52.23617129955678 -1.5445391885622912 -2.573356347430752e-8 53.58198972749923 0 1.5321232572250718e-8
          53.58198972714114 0 -1.5321805566655516e-8 52.23617129814557 -1.5445391865014946 2.5733231834683783e-8
          54.46336018938727 1.3823408273567726 5.099304986272592e-9 53.58198972749923 0 1.5321232572250718e-8
          54.46336018974777 1.382340827246922 -5.0992221151734045e-9 55.82731701018377 -0.45888497959428604 1.7524438231056492e-8
          55.82731701150057 -0.4588849810958279 -1.75246339850313e-8 54.46336018938727 1.3823408273567726 5.099304986272592e-9
          55.82731701018377 -0.45888497959428604 1.7524438231056492e-8 55.19208996396466 -0.3250997991064284 1.1091681957041088e-8
          55.1920899639016 -0.32509979967997255 -1.1092035833309709e-8 55.19208996396466 -0.3250997991064284 1.1091681957041088e-8
          54.83822967698065 -2.1493186689066355 2.442775249819856e-8 54.83822967616847 -2.1493186694453663 -2.4427761339948797e-8
          54.83822967698065 -2.1493186689066355 2.442775249819856e-8 57.332730794069526 1.1687306983286283 -1.0827299065439583e-8
          57.332730791782275 1.1687306989612234 1.0826743342978813e-8 57.332730794069526 1.1687306983286283 -1.0827299065439583e-8
          51.48702894532051 0 1.4975958352468555e-8 51.487028944842756 0 -1.4975437981949788e-8
          51.48702894532051 0 1.4975958352468555e-8 55.06631414584319 -0.6356455883373675 3.152361743753301e-8
          55.06631414566252 -0.6356455876308867 -3.152370579599158e-8 55.06631414584319 -0.6356455883373675 3.152361743753301e-8
          44.0000000000213 0 0 44.00000000002131 0 0
          44.0000000000213 0 0 44.0000000000213 0 0
          44.000000000021295 0 0 44.0000000000213 0 0
          44.000000000021295 0 0 44.0000000000213 0 0
          44.000000000021295 0 0 44.000000000021295 0 0
          44.000000000021295 0 0 53.358491038219185 0 3.89824659718758e-8
          53.35849103766592 0 -3.8981801133313395e-8 44.000000000021295 0 0
          53.358491038219185 0 3.89824659718758e-8 44.0000000000213 0 0
          44.00000000002131 0 0 44.0000000000213 0 0
          44.0000000000213 0 0 44.000000000021295 0 0
          44.0000000000213 0 0 44.0000000000213 0 0
          44.0000000000213 0 0 44.0000000000213 0 0
          <InformationKey name="L2_NORM_RANGE" location="vtkDataArray" length="2">
            <Value index="0">
              0.12533852282
            </Value>
            <Value index="1">
              75.398734769
            </Value>
          </InformationKey>
        </DataArray>
        <DataArray type="Float64" Name="Pressure" format="ascii" RangeMin="0" RangeMax="13330.722025721467">
          0 0 307.0764495411474 307.07644954266897 0 307.0764495411474
          765.4104585483353 765.4104585441011 765.4104585483353 1658.9991513154255 1658.9991513194425 1658.9991513154255
          2796.0082004850333 2796.0082004366245 2796.0082004850333 0 0 541.9154330928267
          2280.6628013057725 541.9154330903214 2280.662801312579 0 541.9154330928267 1102.2084836381825
          2280.6628013057725 1102.2084836415502 2913.594255761508 2913.594255768777 1102.2084836381825 2913.594255761508
          3587.750751825888 3587.7507519001642 3587.750751825888 3745.379909904665 4396.10064106499 3745.3799099319453
          4396.100640843185 3745.379909904665 4396.10064106499 2336.5567511427985 2336.5567511402583 3519.5580579026177
          3519.558057854553 2336.5567511427985 3519.5580579026177 4472.9163188335515 4472.916318877259 3528.0190931022335
          3528.019093108634 4472.9163188335515 3528.0190931022335 5442.429382226858 5442.429382230501 5442.429382226858
          2902.4602879754425 4247.569660640917 2902.4602879852278 4247.569660618107 2902.4602879754425 4247.569660640917
          3654.1661668151537 3654.1661668368292 0 0 325.33407985120004 5480.30010910651
          325.33407984377396 5480.300109120201 3654.1661668151537 0 325.33407985120004 848.3812846079687
          5480.30010910651 848.3812846263902 4579.783217552836 3918.9317098804395 5281.505111291741 4579.78321745755
          3918.9317099513696 5281.505111297184 848.3812846079687 4579.783217552836 3918.9317098804395 5281.505111291741
          1819.929548421426 5273.534619192183 1819.9295483818398 5273.534619210075 3558.8486407975993 1819.929548421426
          5273.534619192183 3558.8486407816354 5401.574543394303 3558.8486407975993 5401.574543400252 6606.568244803815
          5431.83139003412 2750.2806417758475 5401.574543394303 6606.568244799376 5431.8313901151805 2750.28064174182
          4603.07751990002 4603.07751985365 6606.568244803815 5431.83139003412 2750.2806417758475 4603.07751990002
          6497.8925134096835 5428.58199119072 6229.528733848387 6497.892513418512 5428.581991221971 6229.528733699055
          6497.8925134096835 6494.9452478844 5428.58199119072 6229.528733848387 6494.945247889983 6494.9452478844
          6464.410577415081 3361.917921958934 5535.576269104062 6464.4105774285335 3361.917922014942 5535.576269095824
          4573.025875903336 4573.025875923727 6464.410577415081 3361.917921958934 5535.576269104062 4573.025875903336
          5610.7785765272865 5610.778576627189 6796.340353171333 5610.7785765272865 6796.340352600891 6314.410412573638
          6314.410412337533 7423.477414979044 6829.294184363908 7423.4774149646355 6829.2941844155175 6796.340353171333
          6314.410412573638 7423.477414979044 6829.294184363908 4284.514097855254 4284.514097854597 4284.514097855254
          5573.212643175471 5573.212643101681 8059.426490691896 8423.891901806115 5573.212643175471 8059.426490564166
          8423.891901927294 8045.981544243426 6575.795969915995 8045.9815442293975 8059.426490691896 8423.891901806115
          6575.795969629477 7232.980956352677 7232.980955922712 8045.981544243426 6575.795969915995 7232.980956352677
          8104.01854584214 8104.018545915967 7486.980842294772 7486.98084263275 8753.33023431653 8104.01854584214
          8753.33023435269 8490.817559972927 7486.980842294772 8490.817560108426 8753.33023431653 5403.21778633858
          5403.217786343417 8490.817559972927 8870.649918582536 8870.649918512578 5403.21778633858 8870.649918582536
          6573.8836771941 6573.88367716069 7397.195644445676 7397.19564468857 6573.8836771941 7397.195644445676
          9359.778433626985 9359.778433540916 9287.681915291783 9359.778433626985 9287.681915103909 8627.119601620703
          8627.119601563401 9287.681915291783 8627.119601620703 9846.748328037731 9846.748328028234 9295.443654955763
          9295.443654958253 9846.748328037731 9295.443654955763 6578.289785940195 6578.289785819077 10008.201945688852
          10008.201945690027 6578.289785940195 8689.344136614152 10008.201945688852 8689.344136700802 10304.127054081408
          10304.127054070135 8689.344136614152 10140.87091715315 10304.127054081408 10140.870917144706 7989.29976425382
          7989.299764204095 10140.87091715315 7989.29976425382 10131.30220314063 10131.302203141486 10131.30220314063
          9967.909864219147 9967.909864234873 9967.909864219147 9819.954349227794 9819.954349214775 9819.954349227794
          8223.040775500891 8223.04077553751 8223.040775500891 9733.685262814088 9733.685262813256 9733.685262814088
          12725.063250875623 12725.063250879186 12845.284123987763 12725.063250875623 12845.284123988236 12845.284123987763
          12866.703444494568 12866.703444496285 12866.703444494568 13061.185286973954 13061.185286972746 10130.15440699578
          10130.154406990829 13061.185286973954 10130.15440699578 13295.622755863875 13295.622755858813 13295.622755863875
          13143.154547619793 13143.154547620137 13143.154547619793 13330.72202571913 13330.722025721467 13330.72202571913
        </DataArray>
        <DataArray type="Float64" Name="BTraction" NumberOfComponents="3" format="ascii" RangeMin="0" RangeMax="13232.501661658767">
          -0.000058630587252325604 -9.386192928510937 6.149066475874946e-16 -0.00011474983710143675 -18.370344899897503 2.8435457642324433e-17
          -0.000019520266273342347 -52.46622077353001 1.6359253205660753e-14 -0.00012362834789658722 -332.2860509081355 4.840151972127218e-19
          -0.000058630587252325604 -9.386192928510937 6.149066475874946e-16 -0.000019520266273342347 -52.46622077353001 1.6359253205660753e-14
          0.0000040643430846441755 -120.03694503591016 0 0.0000281447447104266 -831.2312998618467 -7.380701325656893e-17
          0.0000040643430846441755 -120.03694503591016 0 0.00007454621509113882 -341.2524764306828 0
          0.0003779625202540276 -1730.2105270465408 1.273809037628526e-15 0.00007454621509113882 -341.2524764306828 0
          0.0000702266674354837 -842.0379572463999 0 0.00023034392747428397 -2761.890002603953 -2.565692932133133e-15
          0.0000702266674354837 -842.0379572463999 0 -0.00001864199869600553 -0.000005372705812310008 -9.8633088032578e-16
          -0.00004038827888043194 -0.000011640079174187787 1.814524459350831e-17 2.0524765261344857e-14 6.5428675058267146e-15 -4.856618655403133e-15
          2.337324604641693e-14 -3.7549217803079294e-14 0 0 0 0
          0 0 0 -0.00001864199869600553 -0.000005372705812310008 -9.8633088032578e-16
          2.0524765261344857e-14 6.5428675058267146e-15 -4.856618655403133e-15 7.960377345738217e-16 4.2955682907138205e-15 4.600588485958251e-14
          2.337324604641693e-14 -3.7549217803079294e-14 0 0 0 0