<?xml version="1.0"?>
<VTKFile type="UnstructuredGrid" version="0.1" byte_order="LittleEndian" header_type="UInt32" compressor="vtkZLibDataCompressor">
  <UnstructuredGrid>
    <Piece NumberOfPoints="264" NumberOfCells="140">
      <PointData>
        <DataArray type="Float64" Name="nsi_BC" NumberOfComponents="3" format="ascii" RangeMin="0" RangeMax="44">
          0 0 0 0 0 0
          0 0 0 0 0 0
          0 0 0 0 0 0
          0 0 0 0 0 0
          0 0 0 0 0 0
          0 0 0 0 0 0
          0 0 0 0 0 0
          0 0 0 0 0 0
          0 0 0 0 0 0
          0 0 0 0 0 0
          0 0 0 0 0 0
          0 0 0 0 0 0
          0 0 0 0 0 0
          0 0 0 0 0 0
          0 0 0 0 0 0
          0 0 0 0 0 0
          0 0 0 0 0 0
          0 0 0 0 0 0
          0 0 0 0 0 0
          0 0 0 0 0 0
          0 0 0 0 0 0
          0 0 0 0 0 0
          0 0 0 0 0 0
          0 0 0 0 0 0
          0 0 0 0 0 0
          0 0 0 0 0 0
          0 0 0 0 0 0
          0 0 0 0 0 0
          0 0 0 0 0 0
          0 0 0 0 0 0
          0 0 0 0 0 0
          0 0 0 0 0 0
          0 0 0 0 0 0
          0 0 0 0 0 0
          0 0 0 0 0 0
          0 0 0 0 0 0
          0 0 0 0 0 0
          0 0 0 0 0 0
          0 0 0 0 0 0
          0 0 0 0 0 0
          0 0 0 0 0 0
          0 0 0 0 0 0
          0 0 0 0 0 0
          0 0 0 0 0 0
          0 0 0 0 0 0
          0 0 0 0 0 0
          0 0 0 0 0 0
          0 0 0 0 0 0
          0 0 0 0 0 0
          0 0 0 0 0 0
          0 0 0 0 0 0
          0 0 0 0 0 0
          0 0 0 0 0 0
          0 0 0 0 0 0
          0 0 0 0 0 0
          0 0 0 0 0 0
          0 0 0 0 0 0
          0 0 0 0 0 0
          0 0 0 0 0 0
          0 0 0 0 0 0
          0 0 0 0 0 0
          0 0 0 0 0 0
          0 0 0 0 0 0
          0 0 0 0 0 0
          0 0 0 0 0 0
          0 0 0 0 0 0
          0 0 0 0 0 0
          0 0 0 0 0 0
          0 0 0 0 0 0
          0 0 0 0 0 0
          0 0 0 0 0 0
          0 0 0 0 0 0
          0 0 0 0 0 0
          0 0 0 0 0 0
          0 0 0 0 0 0
          0 0 0 0 0 0
          0 0 0 0 0 0
          0 0 0 0 0 0
          0 0 0 0 0 0
          0 0 0 0 0 0
          0 0 0 0 0 0
          0 0 0 0 0 0
          0 0 0 0 0 0
          0 0 0 0 0 0
          0 0 0 0 0 0
          0 0 0 0 0 0
          0 0 0 0 0 0
          0 0 0 0 0 0
          0 0 0 0 0 0
          0 0 0 0 0 0
          0 0 0 0 0 0
          0 0 0 0 0 0
          0 0 0 0 0 0
          0 0 0 0 0 0
          0 0 0 0 0 0
          0 0 0 0 0 0
          0 0 0 0 0 0
          0 0 0 0 0 0
          0 0 0 0 0 0
          0 0 0 0 0 0
          0 0 0 0 0 0
          0 0 0 0 0 0
          0 0 0 0 0 0
          0 0 0 0 0 0
          0 0 0 0 0 0
          0 0 0 0 0 0
          0 0 0 0 0 0
          0 0 0 0 0 0
          0 0 0 0 0 0
          0 0 0 0 0 0
          0 0 0 0 0 0
          0 0 0 0 0 0
          0 0 0 0 0 0
          0 0 0 0 0 0
          0 0 0 0 0 0
          0 0 0 0 0 0
          0 0 0 0 0 0
          0 0 0 0 0 0
          0 0 0 0 0 0
          0 0 0 0 0 0
          44 0 0 44 0 0
          44 0 0 44 0 0
          44 0 0 44 0 0
          44 0 0 44 0 0
          44 0 0 44 0 0
          44 0 0 0 0 0
          0 0 0 44 0 0
          0 0 0 44 0 0
          44 0 0 44 0 0
          44 0 0 44 0 0
          44 0 0 44 0 0
          44 0 0 44 0 0
          <InformationKey name="L2_NORM_RANGE" location="vtkDataArray" length="2">
            <Value index="0">
              0
            </Value>
            <Value index="1">
              44
            </Value>
          </InformationKey>
        </DataArray>
        <DataArray type="Float64" Name="nsi_FIXNO" NumberOfComponents="3" format="ascii" RangeMin="1" RangeMax="1.7320508075688772">
          0 1 0 0 1 0
          0 1 0 0 1 0
          0 1 0 0 1 0
          0 1 0 0 1 0
          0 1 0 0 1 0
          0 1 0 0 1 0
          0 1 0 0 1 0
          0 1 0 -1 -1 -1
          -1 -1 -1 -1 -1 -1
          -1 -1 -1 -1 -1 -1
          -1 -1 -1 -1 -1 -1
          -1 -1 -1 -1 -1 -1
          -1 -1 -1 -1 -1 -1
          -1 -1 -1 -1 -1 -1
          -1 -1 -1 -1 -1 -1
          0 1 0 0 1 0
          0 1 0 -1 -1 -1
          0 1 0 -1 -1 -1
          0 1 0 -1 -1 -1
          0 1 0 -1 -1 -1
          -1 -1 -1 -1 -1 -1
          -1 -1 -1 -1 -1 -1
          -1 -1 -1 -1 -1 -1
          -1 -1 -1 -1 -1 -1
          -1 -1 -1 -1 -1 -1
          -1 -1 -1 0 1 0
          0 1 0 0 1 0
          -1 -1 -1 -1 -1 -1
          -1 -1 -1 -1 -1 -1
          -1 -1 -1 -1 -1 -1
          -1 -1 -1 -1 -1 -1
          0 1 0 0 1 0
          0 1 0 -1 -1 -1
          0 1 0 -1 -1 -1
          -1 -1 -1 0 1 0
          0 1 0 0 1 0
          -1 -1 -1 0 1 0
          -1 -1 -1 -1 -1 -1
          -1 -1 -1 -1 -1 -1
          -1 -1 -1 -1 -1 -1
          0 1 0 -1 -1 -1
          -1 -1 -1 -1 -1 -1
          0 1 0 -1 -1 -1
          0 1 0 -1 -1 -1
          -1 -1 -1 0 1 0
          -1 -1 -1 -1 -1 -1
          1 0 0 -1 -1 -1
          1 0 0 0 1 0
          1 0 0 0 1 0
          1 0 0 0 1 0
          1 0 0 0 1 0
          -1 -1 -1 -1 -1 -1
          0 1 0 1 0 0
          0 1 0 -1 -1 -1
          -1 -1 -1 1 0 0
          -1 -1 -1 -1 -1 -1
          1 0 0 -1 -1 -1
          -1 -1 -1 1 0 0
          1 0 0 -1 -1 -1
          1 0 0 1 0 0
          -1 -1 -1 0 1 0
          -1 -1 -1 -1 -1 -1
          0 1 0 -1 -1 -1
          -1 -1 -1 -1 -1 -1
          -1 -1 -1 0 1 0
          -1 -1 -1 -1 -1 -1
          -1 -1 -1 -1 -1 -1
          -1 -1 -1 -1 -1 -1
          -1 -1 -1 -1 -1 -1
          -1 -1 -1 -1 -1 -1
          -1 -1 -1 -1 -1 -1
          -1 -1 -1 -1 -1 -1
          -1 -1 -1 -1 -1 -1
          -1 -1 -1 0 1 0
          0 1 0 0 1 0
          -1 -1 -1 -1 -1 -1
          1 0 0 0 1 0
          -1 -1 -1 1 0 0
          0 1 0 -1 -1 -1
          -1 -1 -1 -1 -1 -1
          1 0 0 0 1 0
          -1 -1 -1 1 0 0
          1 0 0 -1 -1 -1
          -1 -1 -1 1 0 0
          1 0 0 1 0 0
          -1 -1 -1 -1 -1 -1
          -1 -1 -1 1 0 0
          -1 -1 -1 1 0 0
          -1 -1 -1 1 0 0
          -1 -1 -1 0 1 0
          0 1 0 1 0 0
          -1 -1 -1 -1 -1 -1
          0 1 0 -1 -1 -1
          -1 -1 -1 -1 -1 -1
          -1 -1 -1 -1 -1 -1
          -1 -1 -1 -1 -1 -1
          -1 -1 -1 -1 -1 -1
          -1 -1 -1 -1 -1 -1
          -1 -1 -1 -1 -1 -1
          -1 -1 -1 -1 -1 -1
          -1 -1 -1 -1 -1 -1
          -1 -1 -1 -1 -1 -1
          -1 -1 -1 -1 -1 -1
          -1 -1 -1 0 1 0
          0 1 0 -1 -1 -1
          -1 -1 -1 0 1 0
          -1 -1 -1 -1 -1 -1
          -1 -1 -1 0 1 0
          0 1 0 -1 -1 -1
          -1 -1 -1 0 1 0
          -1 -1 -1 -1 -1 -1
          -1 -1 -1 -1 -1 -1
          -1 -1 -1 -1 -1 -1
          -1 -1 -1 -1 -1 -1
          -1 -1 -1 -1 -1 -1
          -1 -1 -1 -1 -1 -1
          -1 -1 -1 -1 -1 -1
          0 1 0 0 1 0
          0 1 0 -1 -1 -1
          -1 -1 -1 -1 -1 -1
          1 1 1 1 1 1
          1 1 1 1 1 1
          1 1 1 1 1 1
          1 1 1 1 1 1
          1 1 1 1 1 1
          1 1 1 0 1 0
          0 1 0 1 1 1
          0 1 0 1 1 1
          1 1 1 1 1 1
          1 1 1 1 1 1
          1 1 1 1 1 1
          1 1 1 1 1 1
          <InformationKey name="L2_NORM_RANGE" location="vtkDataArray" length="2">
            <Value index="0">
              1
            </Value>
            <Value index="1">
              1.7320508076
            </Value>
          </InformationKey>
        </DataArray>
        <DataArray type="Float64" Name="Velocity" NumberOfComponents="3" format="ascii" RangeMin="0.039693534468323355" RangeMax="51.365079054331126">
          21.9921481912423 0 4.968275791670571e-12 21.992148191294785 0 -4.8988867778370285e-12
          21.992857359903027 0 -9.872024376146726e-12 21.992857359815652 0 9.84501692300985e-12
          21.9921481912423 0 4.968275791670571e-12 21.992857359903027 0 -9.872024376146726e-12
          21.99058883120855 0 3.4485254295186344e-11 21.990588831378815 0 -3.452957723274931e-11
          21.99058883120855 0 3.4485254295186344e-11 22.002833926850563 0 -1.733252527317982e-10
          22.002833926508313 0 1.7354925633562297e-10 22.002833926850563 0 -1.733252527317982e-10
          22.00458323178072 0 8.747790969494342e-10 22.00458323273017 0 -8.748767189716979e-10
          22.00458323178072 0 8.747790969494342e-10 21.998678882929145 0.00009408041348928923 9.715405009123382e-13
          21.99867888283829 0.00009408041363196757 -8.475592912288689e-13 21.996113014440542 0.0030880764503518924 -1.8923809479471867e-12
          21.973445957183742 -0.006089062121409516 3.753442944119503e-11 21.99611301458805 0.0030880764487261517 1.7803868548880593e-12
          21.97344595754043 -0.006089062162866469 -3.78634593649245e-11 21.998678882929145 0.00009408041348928923 9.715405009123382e-13
          21.996113014440542 0.0030880764503518924 -1.8923809479471867e-12 21.999473416458837 0.0076923032256578285 6.44588312924394e-12
          21.973445957183742 -0.006089062121409516 3.753442944119503e-11 21.999473416209693 0.0076923032370399885 -6.315469990586775e-12
          21.983511087968047 -0.005213659565952534 -1.9984901676089565e-10 21.983511086950053 -0.005213659499982474 2.0029885037902785e-10
          21.999473416458837 0.0076923032256578285 6.44588312924394e-12 21.983511087968047 -0.005213659565952534 -1.9984901676089565e-10
          22.002714795036116 0 -2.7319169127061486e-9 22.00271479443953 0 2.731814726599473e-9
          22.002714795036116 0 -2.7319169127061486e-9 21.958930033021392 -0.029018030037472664 5.084456847872207e-10
          22.033247454122538 0 9.423376505732546e-9 21.958930033132468 -0.029018030157619463 -5.086333408818308e-10
          22.03324745222255 0 -9.423138427406144e-9 21.958930033021392 -0.029018030037472664 5.084456847872207e-10
          22.033247454122538 0 9.423376505732546e-9 21.99088455331809 0.028128648842334618 -2.8717198608877096e-11
          21.99088455367622 0.02812864859585606 2.8533733023622657e-11 21.995729214755407 0.022048691181820342 -8.487424263559515e-11
          21.995729214686307 0.02204869182392163 8.51189106983545e-11 21.99088455331809 0.028128648842334618 -2.8717198608877096e-11
          21.995729214755407 0.022048691181820342 -8.487424263559515e-11 22.202152480299166 -0.19177763851498425 -1.9057009538066703e-9
          22.20215248177748 -0.19177763744821416 1.905908611361387e-9 21.505488619563597 -0.0823712967818375 1.6306562097746373e-10
          21.505488617295562 -0.08237129745598096 -1.6296645126802695e-10 22.202152480299166 -0.19177763851498425 -1.9057009538066703e-9
          21.505488619563597 -0.0823712967818375 1.6306562097746373e-10 21.813836254297378 0 -3.4513228891771235e-8
          21.813836257947738 0 3.451292560282323e-8 21.813836254297378 0 -3.4513228891771235e-8
          22.13518149405247 0.07482541955921085 2.9794506877704216e-10 21.117291719787602 -0.09590513579097515 5.605322437897773e-10
          22.135181494793365 0.07482541961021458 -2.9795918052662975e-10 21.117291720122214 -0.09590513794636021 -5.607139757436136e-10
          22.13518149405247 0.07482541955921085 2.9794506877704216e-10 21.117291719787602 -0.09590513579097515 5.605322437897773e-10
          22.217845069677033 0.13871866521471926 7.531341324836615e-10 22.21784506917437 0.13871866485711784 -7.530034068444642e-10
          22.011850345309007 0 5.587560725666436e-12 22.011850345295077 0 -5.477030988988006e-12
          22.01336887939082 0 -1.1110593960447934e-11 22.154746925270793 0.017407984335650148 7.455610118725546e-9
          22.013368879411853 0 1.1022045990844222e-11 22.1547469226926 0.017407985163527297 -7.455679825339971e-9
          22.217845069677033 0.13871866521471926 7.531341324836615e-10 22.011850345309007 0 5.587560725666436e-12
          22.01336887939082 0 -1.1110593960447934e-11 22.017473642457908 0 3.8806418717473057e-11
          22.154746925270793 0.017407984335650148 7.455610118725546e-9 22.01747364245099 0 -3.8756338583683006e-11
          30.331286934259403 -5.30163374408262 -3.077737263900257e-10 23.513040507959637 0.8524701291709889 -7.252672422077227e-10
          23.401303388522084 -0.38668851260950193 -2.5660079608843974e-9 30.331286937197635 -5.301633744769561 3.077454469643066e-10
          23.513040508616715 0.8524701295755774 7.251598158958774e-10 23.40130338434541 -0.3866885136764313 2.5660975700895917e-9
          22.017473642457908 0 3.8806418717473057e-11 30.331286934259403 -5.30163374408262 -3.077737263900257e-10
          23.513040507959637 0.8524701291709889 -7.252672422077227e-10 23.401303388522084 -0.38668851260950193 -2.5660079608843974e-9
          22.02605613842368 0 -1.4082203035109997e-10 15.013276297408517 -0.5841881355519449 1.705575321434091e-9
          22.026056138044687 0 1.4093751247167862e-10 15.01327629435655 -0.5841881347309222 -1.7054520437648258e-9
          22.00242203221553 0.03068701205036014 -1.9660085312071983e-9 22.02605613842368 0 -1.4082203035109997e-10
          15.013276297408517 -0.5841881355519449 1.705575321434091e-9 22.00242203239707 0.03068701227823044 1.9655275900390427e-9
          6.079597268216949e-7 1.8286788636848577 5.552609639625643e-10 22.00242203221553 0.03068701205036014 -1.9660085312071983e-9
          6.079597253112762e-7 1.8286788589590866 -5.550998087113784e-10 22.513084778943522 0 1.2703891348372588e-7
          45.04325828527471 -0.00000782782021431814 -4.777071918538396e-9 21.980753925512605 0 5.8301331812493e-10
          6.079597268216949e-7 1.8286788636848577 5.552609639625643e-10 22.51308477537497 0 -1.2703903348565017e-7
          45.04325828107434 -0.000007827820198947405 4.777142869197044e-9 21.980753925518023 0 -5.829206302607062e-10
          21.662791075036353 0.01989152921759296 -1.988745380976784e-9 21.66279107536534 0.019891531047321637 1.988899594891433e-9
          22.513084778943522 0 1.2703891348372588e-7 45.04325828527471 -0.00000782782021431814 -4.777071918538396e-9
          21.980753925512605 0 5.8301331812493e-10 21.662791075036353 0.01989152921759296 -1.988745380976784e-9
          22.1799357011627 0.20811467569914763 -2.7626381464636364e-8 51.36507905306643 -0.000008926454684302462 -2.400686315444994e-9
          20.85744284704879 0.7976943481101877 8.928376356145655e-9 22.179935702916993 0.20811467395666036 2.7626511669269136e-8
          51.36507905433035 -0.000008926454669176358 2.4008726324907402e-9 20.85744285753625 0.7976943529571312 -8.92834565139419e-9
          22.1799357011627 0.20811467569914763 -2.7626381464636364e-8 -3.5696342585195974e-7 -1.0737084104336627 8.494531338656791e-9
          51.36507905306643 -0.000008926454684302462 -2.400686315444994e-9 20.85744284704879 0.7976943481101877 8.928376356145655e-9
          -3.5696342792633e-7 -1.0737084175017775 -8.494549563512524e-9 -3.5696342585195974e-7 -1.0737084104336627 8.494531338656791e-9
          24.79311938782296 3.912156063101832 -9.858926987797477e-9 22.05108813959455 0 -2.2101380349221673e-9
          18.979185397942516 0.33385454412110566 4.468994771308211e-9 24.793119388349638 3.9121560654219705 9.858618523248184e-9
          22.051088139980834 0 2.2103950464578036e-9 18.97918539655382 0.33385454595977504 -4.4693283707379505e-9
          22.283893380873785 0.08636824035550193 7.211762173118387e-9 22.28389337956498 0.08636823992551852 -7.211592770618262e-9
          24.79311938782296 3.912156063101832 -9.858926987797477e-9 22.05108813959455 0 -2.2101380349221673e-9
          18.979185397942516 0.33385454412110566 4.468994771308211e-9 22.283893380873785 0.08636824035550193 7.211762173118387e-9
          23.142275428789027 0.09829403616432718 8.034479219430355e-9 23.14227542772537 0.09829403495687004 -8.034192396487372e-9
          19.620147529171984 -0.27897380715529624 -3.1834773279700084e-8 23.142275428789027 0.09829403616432718 8.034479219430355e-9
          19.620147532293643 -0.2789738057907172 3.1834846644933345e-8 24.31938765827495 -0.9560565093536918 2.338003215588693e-8
          24.319387669145186 -0.9560565267260249 -2.338003163292957e-8 23.821647371366687 0.7359862034150075 9.647192658080415e-8
          23.831753524147818 -1.1957817954168755 -1.677603559260077e-8 23.82164736921427 0.735986209932803 -9.647185791916977e-8
          23.83175351476381 -1.195781796676496 1.677615362220038e-8 19.620147529171984 -0.27897380715529624 -3.1834773279700084e-8
          24.31938765827495 -0.9560565093536918 2.338003215588693e-8 23.821647371366687 0.7359862034150075 9.647192658080415e-8
          23.831753524147818 -1.1957817954168755 -1.677603559260077e-8 22.101931485618085 0 8.830685665919584e-9
          22.10193148457139 0 -8.830705559725705e-9 22.101931485618085 0 8.830685665919584e-9
          21.78215527436068 -0.0057860069194601285 -2.6551562427172712e-8 21.782155278392285 -0.005786006825132031 2.6550972776363994e-8
          -9.572807587329662e-8 -0.29511975121898276 -4.9040119313352417e-8 19.215345404328563 0 -4.419598670026588e-7
          21.78215527436068 -0.0057860069194601285 -2.6551562427172712e-8 -9.572808232316218e-8 -0.2951197709119718 4.90402037820247e-8
          19.2153454043353 0 4.4195989340379416e-7 18.67350505862827 0.4505790574993353 1.821897553852079e-7
          21.758371397496752 0.32769515264830834 -2.9698335642505434e-8 18.67350506095633 0.45057905231497086 -1.8218993904629475e-7
          -9.572807587329662e-8 -0.29511975121898276 -4.9040119313352417e-8 19.215345404328563 0 -4.419598670026588e-7
          21.758371400419126 0.3276951612419239 2.9698179487151968e-8 37.92753529972992 -0.000006591217827242724 -6.882979481627784e-8
          37.92753526962049 -0.00000659121782156427 6.882974241761221e-8 18.67350505862827 0.4505790574993353 1.821897553852079e-7
          21.758371397496752 0.32769515264830834 -2.9698335642505434e-8 37.92753529972992 -0.000006591217827242724 -6.882979481627784e-8
          36.271722039317986 -0.0000063034631390597185 4.4923052153011387e-7 36.27172205694142 -0.000006303463151754833 -4.49230772614854e-7
          25.93677426653654 2.3414782206849756 6.352210089836514e-8 25.936774272750906 2.341478223613253 -6.352222703660268e-8
          17.50679675899079 0.7481450464761566 -3.7210880416585764e-7 36.271722039317986 -0.0000063034631390597185 4.4923052153011387e-7
          17.506796758833197 0.7481450473319794 3.721091545089113e-7 -1.2875404734415567e-8 -0.03969354038540503 2.8379328459857587e-7
          25.93677426653654 2.3414782206849756 6.352210089836514e-8 -1.2875402824670153e-8 -0.039693534467306765 -2.83792952938685e-7
          17.50679675899079 0.7481450464761566 -3.7210880416585764e-7 22.07614329353675 0 -3.3008172122454066e-8
          22.07614329486223 0 3.3008826200757633e-8 -1.2875404734415567e-8 -0.03969354038540503 2.8379328459857587e-7
          27.411323662920044 2.1996936019581796 -4.714570766650279e-7 27.411323662087877 2.1996935975426197 4.7145687552450187e-7
          22.07614329353675 0 -3.3008172122454066e-8 27.411323662920044 2.1996936019581796 -4.714570766650279e-7
          22.795201106995087 -0.005201592378154597 9.996417623731148e-8 22.795201106590977 -0.005201592080791876 -9.996394780263092e-8
          23.388286548143792 -1.0453817196102098 1.0846191733330168e-7 23.388286547609987 -1.045381714359729 -1.0846195711374759e-7
          22.795201106995087 -0.005201592378154597 9.996417623731148e-8 23.388286548143792 -1.0453817196102098 1.0846191733330168e-7
          29.434416024850865 2.420961472132185 -8.594928668290304e-7 29.434416050532942 2.4209615079083564 8.594922550215697e-7
          19.107776119005052 -0.27759514877139607 -5.270003654961406e-7 29.434416024850865 2.420961472132185 -8.594928668290304e-7
          19.107776109078323 -0.277595148289792 5.270004819309043e-7 21.823448585951596 -0.2576596391142954 -2.936276022452572e-7
          21.823448589867773 -0.25765964483904685 2.936278567372516e-7 19.107776119005052 -0.27759514877139607 -5.270003654961406e-7
          21.823448585951596 -0.2576596391142954 -2.936276022452572e-7 29.30973488038758 1.6261219936735127 0.0000016266071226166883
          29.309734881991872 1.6261219952094461 -0.0000016266072897183385 24.534919715464383 -1.38235593300498 -5.844527530149971e-7
          24.534919706635453 -1.3823559598604107 5.844527330914807e-7 29.30973488038758 1.6261219936735127 0.0000016266071226166883
          24.534919715464383 -1.38235593300498 -5.844527530149971e-7 22.53338917826876 0 1.195672149161155e-7
          22.533389178827164 0 -1.1956758798226717e-7 21.405665428650046 -0.8005025418434292 0.0000014352976252046965
          21.40566542690472 -0.8005025433346578 -0.0000014352976248401767 22.53338917826876 0 1.195672149161155e-7
          18.70086211988437 -0.7427439119878921 -3.625733860628318e-7 21.405665428650046 -0.8005025418434292 0.0000014352976252046965
          18.700862117921417 -0.7427439082574103 3.62573440620345e-7 25.05920685520399 0 0.0000015209588620678346
          25.05920685796618 0 -0.0000015209594038096976 18.70086211988437 -0.7427439119878921 -3.625733860628318e-7
          21.118580406453656 0.04123120355037003 0.0000014665142906340237 25.05920685520399 0 0.0000015209588620678346
          21.1185804030153 0.04123120365126013 -0.000001466514173672195 21.079564411247915 -1.082960228733977 -3.479597811966413e-7
          21.079564408097283 -1.0829602306492603 3.479597551923684e-7 21.118580406453656 0.04123120355037003 0.0000014665142906340237
          21.079564411247915 -1.082960228733977 -3.479597811966413e-7 19.808643331487048 -0.6111075267879804 0.0000013207490309954792
          19.80864333177613 -0.611107526471769 -0.0000013207493466511652 19.808643331487048 -0.6111075267879804 0.0000013207490309954792
          20.872050394937904 0.09256262076651625 0.0000012421392564743662 20.87205039534695 0.0925626222251351 -0.0000012421392266978157
          20.872050394937904 0.09256262076651625 0.0000012421392564743662 25.182268920473017 -4.247268779822831 0.0000013690611436104843
          25.182268920991763 -4.247268780717191 -0.0000013690617033062484 25.182268920473017 -4.247268779822831 0.0000013690611436104843
          20.46609969558594 0 -4.0715817896900215e-7 20.46609969428868 0 4.0715818715187427e-7
          20.46609969558594 0 -4.0715817896900215e-7 22.47113160433397 2.0509189061218325 0.0000011506800506425741
          22.47113160537216 2.0509189054986003 -0.000001150680163062188 22.47113160433397 2.0509189061218325 0.0000011506800506425741
          43.99999999913105 0 0 43.99999999913106 0 0
          43.999999999131056 0 0 43.99999999913105 0 0
          43.999999999131056 0 0 43.999999999131056 0 0
          43.99999999913107 0 0 43.99999999913106 0 0
          43.99999999913107 0 0 43.99999999913106 0 0
          43.99999999913106 0 0 21.949712549057182 0 0.0000013516742718585383
          21.94971254920576 0 -0.0000013516737664006407 43.99999999913106 0 0
          21.949712549057182 0 0.0000013516742718585383 43.99999999913105 0 0
          43.99999999913107 0 0 43.99999999913105 0 0
          43.99999999913106 0 0 43.999999999131056 0 0
          43.99999999913106 0 0 43.99999999913106 0 0
          43.99999999913107 0 0 43.99999999913106 0 0
          <InformationKey name="L2_NORM_RANGE" location="vtkDataArray" length="2">
            <Value index="0">
              0.039693534468
            </Value>
            <Value index="1">
              51.365079054
            </Value>
          </InformationKey>
        </DataArray>
        <DataArray type="Float64" Name="Pressure" format="ascii" RangeMin="0" RangeMax="37740.36327344625">
          0 0 2595.1013807222807 2595.101380722976 0 2595.1013807222807
          5190.197213748036 5190.197213743043 5190.197213748036 7635.374721578837 7635.374721594433 7635.374721578837
          10567.38987859922 10567.389878576336 10567.38987859922 0 0 2595.7431840776853
          10386.831099561392 2595.743184076339 10386.83109953249 0 2595.7431840776853 5191.315771282728
          10386.831099561392 5191.31577129257 12387.331189632068 12387.331189678149 5191.315771282728 12387.331189632068
          13962.210722831636 13962.210722944312 13962.210722831636 16329.170657628307 17733.373669469835 16329.170657459672
          17733.37366922722 16329.170657628307 17733.373669469835 10605.616563823123 10605.616563782007 16328.978085657222
          16328.978085759738 10605.616563823123 16328.978085657222 19728.01812444791 19728.018124569517 16332.707895714802
          16332.707895781916 19728.01812444791 16332.707895714802 21744.437909877055 21744.43790974933 21744.437909877055
          13211.87104610922 20194.60700019004 13211.871046136364 20194.607000164517 13211.87104610922 20194.60700019004
          16345.651923244472 16345.65192325662 0 0 2597.458069950781 22954.4245328126
          2597.4580699505127 22954.424532804933 16345.651923244472 0 2597.458069950781 5195.256779981145
          22954.4245328126 5195.25677998363 21829.02059490913 20428.88024671403 22695.421438774694 21829.020595111102
          20428.88024634942 22695.42143890633 5195.256779981145 21829.02059490913 20428.88024671403 22695.421438774694
          7643.032653541164 22626.46031336918 7643.032653529397 22626.460313330197 15651.184563249564 7643.032653541164
          22626.46031336918 15651.184563235298 22363.63580818476 15651.184563249564 22363.63580814927 25922.087505631334
          23488.24773394264 10577.844192855264 22363.63580818476 25922.08750590282 23488.247733971362 10577.844192834082
          19752.914540615486 19752.91454060671 25922.087505631334 23488.24773394264 10577.844192855264 19752.914540615486
          25753.07196356607 23486.422644431612 24969.556365203436 25753.071963335693 23486.42264434275 24969.556364975244
          25753.07196356607 24590.680441609613 23486.422644431612 24969.556365203436 24590.680441812343 24590.680441609613
          25367.836130176707 13977.085261325372 23164.30358399979 25367.83613020055 13977.085261381846 23164.30358413333
          18901.00350671578 18901.003506727648 25367.836130176707 13977.085261325372 23164.30358399979 18901.00350671578
          22983.76925119175 22983.769251210913 27274.53123001719 22983.76925119175 27274.531231626705 26761.722215546775
          26761.7222157075 28394.00519774573 25712.427681556306 28394.005197872113 25712.427680701767 27274.53123001719
          26761.722215546775 28394.00519774573 25712.427681556306 17757.778517687762 17757.77851771262 17757.778517687762
          22446.15485926895 22446.15485920309 28047.934415322754 30586.58765348576 22446.15485926895 28047.934415821863
          30586.58765270168 29615.854885084238 25805.08354338943 29615.854885333778 28047.934415322754 30586.58765348576
          25805.08354327237 29109.31973638619 29109.319736001617 29615.854885084238 25805.08354338943 29109.31973638619
          29091.255443255464 29091.255443929458 28477.63485206819 28477.63485092306 31335.91674250921 29091.255443255464
          31335.916742212343 30111.16736529857 28477.63485206819 30111.167364495763 31335.91674250921 21786.98389146938
          21786.983891381395 30111.16736529857 31294.706166340453 31294.706166591775 21786.98389146938 31294.706166340453
          25928.477559392264 25928.47756017147 28471.545773864276 28471.54577427823 25928.477559392264 28471.545773864276
          32162.952223511533 32162.952223780037 32152.43385551612 32162.952223511533 32152.43385709145 31235.79621200582
          31235.796211712728 32152.43385551612 31235.79621200582 33960.79785625485 33960.79785630769 32616.751619293904
          32616.751619342955 33960.79785625485 32616.751619293904 25995.551049803173 25995.551050151276 34268.96166893542
          34268.96166894156 25995.551049803173 31478.64255293446 34268.96166893542 31478.642552903137 35084.07788943359
          35084.07788949672 31478.64255293446 34421.907024585336 35084.07788943359 34421.90702463159 29920.432969897276
          29920.432969793488 34421.907024585336 29920.432969897276 34450.325531409486 34450.32553141443 34450.325531409486
          34368.23254966883 34368.232549676206 34368.23254966883 33997.76045747859 33997.76045748265 33997.76045747859
          30699.233719082054 30699.233719118452 30699.233719082054 34170.554356233995 34170.55435624264 34170.554356233995
          37740.36327344625 37740.36327342832 36916.45460370978 37740.36327344625 36916.45460370796 36916.45460370978
          36649.70632779075 36649.70632777458 36649.70632779075 36623.875304461086 36623.87530445917 35236.886013766416
          35236.88601376424 36623.875304461086 35236.886013766416 36723.6012559213 36723.601255920206 36723.6012559213
          37314.59212685571 37314.59212685634 37314.59212685571 36939.147842693776 36939.14784269282 36939.147842693776
        </DataArray>
        <DataArray type="Float64" Name="BTraction" NumberOfComponents="3" format="ascii" RangeMin="0" RangeMax="37155.4048306321">
          3.8095764116834044e-8 -79.32208730051201 -6.91497552252497e-17 7.455975896856367e-8 -155.2465534201501 -5.205438800710754e-16
          -2.9463201813278077e-8 -409.7527208901692 -2.0457188546778573e-18 -1.8660037282892716e-7 -2595.1004563702345 2.2682556795624746e-19
          3.8095764116834044e-8 -79.32208730051201 -6.91497552252497e-17 -2.9463201813278077e-8 -409.7527208901692 -2.0457188546778573e-18
          1.958078611068009e-8 -742.2820177174252 0 1.3559273957060758e-7 -5140.151194844149 8.304831765680823e-16
          1.958078611068009e-8 -742.2820177174252 0 3.7503011047977605e-7 -1537.9453778202128 0
          0.000001901468907323482 -7797.655596710967 -1.3994609593731513e-14 3.7503011047977605e-7 -1537.9453778202128 0
          7.202448833234876e-7 -3268.7037969233807 0 0.0000023624078349860614 -10721.369815371147 1.94985425039999e-14
          7.202448833234876e-7 -3268.7037969233807 0 2.22543972473277e-7 -3.448465326293665e-7 2.2012017728364455e-14
          4.821461205560939e-7 -7.471172030961737e-7 -4.061365404874989e-16 3.956875783271226e-14 -1.1716242523002146e-16 7.770589848645013e-14
          8.57114917877426e-14 -3.6190363780331154e-14 0 0 0 0