<?xml version="1.0"?>
<VTKFile type="UnstructuredGrid" version="0.1" byte_order="LittleEndian" header_type="UInt32" compressor="vtkZLibDataCompressor">
  <UnstructuredGrid>
    <Piece NumberOfPoints="99" NumberOfCells="80">
      <PointData>
        <DataArray type="Float64" Name="Velocity" NumberOfComponents="3" format="ascii" RangeMin="0" RangeMax="1.0720552004993744">
          0 0 0 0.43749999999999994 0 0
          0.75 0 0 0.9375000000000001 0 0
          0 0 0 1 0 0
          0.3553620147601558 -0.008611801451122532 0 0.6870982739518643 -0.015442616431368225 0
          0.9312346243891694 -0.010293904089218459 0 0.9374999999999999 0 0
          1.0398454629584513 1.9134326354557864e-15 0 0.75 0 0
          0.9312346243891702 0.010293904089218802 0 0.43749999999999994 0 0
          0.6870982739518643 0.015442616431368914 0 0 0 0
          0 0 0 0.3553620147601566 0.008611801451118783 0
          0.43268752034156216 -0.0022166739761733485 0 0.7408629392729004 0.011992991020783828 0
          0.9766229861032069 0.008124718917500289 0 0 0 0
          1.0720552004993744 -2.596748323113082e-15 0 0.9766229861032081 -0.00812471891750697 0
          0.7408629392729026 -0.01199299102079258 0 0.43268752034156494 0.00221667397617065 0
          0 0 0 0 0 0
          0.39034430475131227 0.0027668001033578477 0 0.7347345985397729 -0.0033115628149457815 0
          0.9599413649432007 -0.0024573627291072323 0 1.0391425019495837 -1.5799726740571612e-15 0
          0.9599413649431994 0.0024573627291056134 0 0.7347345985397729 0.003311562814941648 0
          0.39034430475130855 -0.0027668001033598084 0 0 0 0
          0 0 0 0.40036721165642564 0.0005743355165024977 0
          0.7267332331645391 0.001792780208401479 0 0.9547676802264277 0.0011725813211129154 0
          1.0432211642977733 9.555199032638714e-16 0 0.9547676802264266 -0.0011725813211137448 0
          0.7267332331645374 -0.00179278020839705 0 0.4003672116564249 -0.0005743355165000666 0
          0 0 0 0 0 0
          0.40150272483539534 -0.0008642906541236166 0 0.7333366179382907 -0.0007459064572309512 0
          0.9598573330372572 -0.00032733258816588715 0 1.0453206690442112 2.3349504930560824e-15 0
          0.9598573330372567 0.0003273325881685038 0 0.7333366179382914 0.0007459064572292143 0
          0.40150272483539634 0.0008642906541240837 0 0 0 0
          0 0 0 0.3995677070831144 0.00036332771861691975 0
          0.731449459011725 0.0000702005808666877 0 0.9578638053525781 -0.000027922659739915972 0
          1.044155291142595 1.1570142991838369e-16 0 0.9578638053525788 0.00002792265974085958 0
          0.7314494590117252 -0.0000702005808644315 0 0.3995677070831133 -0.0003633277186168919 0
          0 0 0 0 0 0
          0.40074304001241445 -0.00014346567744459612 0 0.7316564640283558 0.000053513943424441685 0
          0.958468952294427 0.00004514511499287388 0 1.0448166676418735 5.700172593051803e-16 0
          0.9584689522944264 -0.00004514511499248551 0 0.7316564640283553 -0.00005351394342401632 0
          0.4007430400124148 0.00014346567744581929 0 0 0 0
          0 0 0 0.39798596328541647 0.0000627168715301162 0
          0.7315272821229846 -0.000030862360793543394 0 0.9581116796422264 0.000059433360114851064 0
          1.0444089829436218 3.483911742052576e-16 0 0.9581116796422255 -0.00005943336011393641 0
          0.7315272821229848 0.00003086236079443147 0 0.3979859632854165 -0.00006271687153065282 0
          0 0 0 0 0 0
          0.408444581698001 -0.0002564845848496513 0 0.7327510812242367 -0.0005134450971297429 0
          0.9596740195406487 -0.00046251283816209056 0 1.0458087706004577 -6.560893592733736e-16 0
          0.9596740195406487 0.00046251283816187296 0 0.7327510812242358 0.0005134450971291493 0
          0.408444581698001 0.0002564845848502614 0 0 0 0
          0 0 0 0.36544415139112335 0 0
          0.7274140951808719 0 0 0.9592250278363698 0 0
          1.0467951731047027 0 0 0.9592250278363699 0 0
          0.7274140951808725 0 0 0.3654441513911224 0 0
          0 0 0
          <InformationKey name="L2_NORM_RANGE" location="vtkDataArray" length="2">
            <Value index="0">
              0
            </Value>
            <Value index="1">
              1.0720552005
            </Value>
          </InformationKey>
        </DataArray>
        <DataArray type="Float64" Name="Pressure" format="ascii" RangeMin="0" RangeMax="26.316582684025047">
          26.14401887674214 26.294370525474047 26.316582684025047 26.204762788533934 22.67957305771015 26.139379859568766
          22.56554968862987 22.403214810837802 22.29847653305599 26.204762788533912 22.266232373327167 26.316582684025033
          22.298476533056007 26.294370525474026 22.4032148108378 26.144018876742113 18.20263759409497 22.565549688629893
          18.159805774583305 18.16019458602387 18.187728494501897 22.67957305771016 18.2023726169303 18.18772849450188
          18.160194586023835 18.15980577458323 18.202637594094888 16.210403804416472 16.232410173085224 16.232582211925735
          16.225527749253512 16.222571054236 16.22552774925351 16.23258221192571 16.232410173085203 16.210403804416437
          13.983432057382265 13.979643537919593 13.982362786358905 13.984220467715717 13.984310987269536 13.984220467715707
          13.982362786358923 13.979643537919621 13.98343205738229 11.615749469984198 11.615500346912603 11.613655621542634
          11.6135223299152 11.61391154220576 11.613522329915218 11.613655621542643 11.615500346912611 11.61574946998422
          9.30280003360964 9.303013678020823 9.303336253921135 9.30291856546974 9.30258185716931 9.302918565469719
          9.30333625392113 9.303013678020827 9.30280003360964 6.979853419652991 6.979851326367571 6.979744695146974
          6.979899817546696 6.980035732410373 6.979899817546703 6.979744695146971 6.9798513263675686 6.979853419652992
          4.659927069953012 4.659588745676327 4.65997682013505 4.660323239009837 4.660358675606279 4.660323239009836
          4.65997682013505 4.659588745676326 4.659927069953013 2.348637415114713 2.3489392177644155 2.3459750309541505
          2.3430665287618537 2.3423176605600964 2.3430665287618493 2.345975030954144 2.348939217764407 2.3486374151147063
          0 0 0 0 0 0
          0 0 0
        </DataArray>
        <DataArray type="Float64" Name="stream" format="ascii" RangeMin="-0.6518892736278744" RangeMax="0.0023987976423600413">
          -0.001490336857354814 -0.027343749999999997 -0.10064284022369534 -0.20488725615203396 0.0012045400228197032 -0.3256904934167354
          -0.02577619962559716 -0.0974949717684305 -0.20162644975161365 -0.4467260398893633 -0.3259323998703256 -0.5512508649815301
          -0.45113393821955783 -0.624011504491873 -0.5566363553411803 -0.651355254491873 0.0018040015145026657 -0.6260820076456404
          -0.024000500945780337 -0.09486608143747441 -0.20008648093312978 -0.6498236940300116 -0.32554557776346776 -0.45083481323876734
          -0.5561942973323353 -0.626809413633919 -0.6518380388426391 -0.0016295765469440098 -0.02550186675897101 -0.09662513038415797
          -0.20236575030353568 -0.3265157320275039 -0.45031444462531245 -0.5560722373663898 -0.6273837306121948 -0.6518091442508953
          -0.00005407705631184194 -0.025427923094135583 -0.09589216104032557 -0.20132543336677255 -0.32633670899549294 -0.4511561058257059
          -0.5560840700241348 -0.6266261302658664 -0.6517291126226441 0.0011258650246525805 -0.02431597556669208 -0.095278354404213
          -0.20088485564307018 -0.32594230304636346 -0.4506854805955211 -0.555938438354153 -0.6267105258686864 -0.6517667793967714
          0.0011725441697386443 -0.0239026350498679 -0.09471041207865434 -0.20036634988357513 -0.32553358595014714 -0.4506157223552967
          -0.5561530384647911 -0.6268472868073622 -0.6517935239484142 0.0010553349798282513 -0.023944696382261293 -0.0946548283099203
          -0.20025760877083743 -0.32544240444251127 -0.45060511877021225 -0.5561822675109672 -0.6268537582625344 -0.6518092907110458
          0.0023987976423600413 -0.02301314748720864 -0.09402679702102773 -0.19974907809103676 -0.3249412921691641 -0.45012180415944414
          -0.5557630273979512 -0.6265989110001757 -0.6517939850756224 -0.0019347632612695207 -0.025682237165773773 -0.09557463793234205
          -0.20097324215104884 -0.32625020579995423 -0.4515460445049041 -0.5571920617799206 -0.6275939256109389 -0.6518892736278744
          -0.008019058387695382 -0.028238716934600977 -0.09730461745922496 -0.2027177586952381 -0.3281021859038695 -0.4534960506405233
          -0.5590328984046914 -0.6283535304615403 -0.6518892736278744
        </DataArray>
        <DataArray type="Float64" Name="Sigma" NumberOfComponents="6" format="ascii" RangeMin="0" RangeMax="16.1245154965971">
          16 0 0 -2 0 0
          9 0 0 -1.5 0 0
          4 0 0 -1 0 0
          1 0 0 -0.5 0 0
          0.3623453984983318 0 0 -0.36697060176939916 0 0
          0 0 0 0 0 0
          0.592729970360934 0.004949627986099616 0 -0.38494493648542655 0 0
          0.6888739901755003 -0.003947966332028921 0 -0.37621807021406656 0 0
          0.2987068836578605 0.005529720824366986 0 -0.23818849443075732 0 0
          1 0 0 0.5 0 0
          0.036940720692563815 0.021758921500254488 0 4.376130712973596e-16 0 0
          4 0 0 1 0 0
          0.2987068836578595 0.005529720824368434 0 0.23818849443075618 0 0
          9 0 0 1.5000000000000002 0 0
          0.6888739901755019 -0.003947966332031643 0 0.3762180702140617 0 0
          16 0 0 2 0 0
          0.8207669225819456 0 0 -0.46254324873066543 0 0
          0.5927299703609397 0.004949627986098845 0 0.3849449364854256 0 0
          0.20152199630619855 -0.007453334645592673 0 -0.3123792486540893 0 0
          -0.22284359538401816 -0.008047655663178666 0 -0.05277154656312679 0 0
          -0.0712668330798215 0.015439772827145742 0 -0.056833362682897494 0 0
          0.36234539849833586 0 0 0.36697060176939783 0 0
          0.009578366184689723 0.025399569927231826 0 -2.4445121119414297e-15 0 0
          -0.0712668330798227 0.015439772827148597 0 0.05683336268289784 0 0
          -0.22284359538401985 -0.008047655663182338 0 0.05277154656312474 0 0
          0.20152199630619677 -0.0074533346455969126 0 0.31237924865408145 0 0
          0.8207669225819573 0 0 0.462543248730664 0 0
          0.6969162453818024 0 0 -0.5423861050558509 0 0
          0.2548509784774653 0.003044493629638775 0 -0.3076810570628363 0 0
          0.0520463783332615 0.0002787308295513429 0 -0.1173550984883016 0 0
          0.029430938808044184 -0.003833407463877766 0 -0.0683638252675062 0 0
          -0.006374620530007786 -0.0071368724124700866 0 3.6764845032068734e-16 0 0
          0.029430938808044586 -0.0038334074638787185 0 0.06836382526750825 0 0
          0.052046378333262595 0.0002787308295528902 0 0.11735509848830593 0 0
          0.25485097847746613 0.0030444936296329956 0 0.30768105706283627 0 0
          0.6969162453817912 0 0 0.5423861050558376 0 0
          0.7126852581574225 0 0 -0.5821817954792977 0 0
          0.19600013400681454 -0.00021080150952162063 0 -0.2671669530426808 0 0
          -0.02078236617290998 0.0013075692530399169 0 -0.10979898232992351 0 0
          0.00018886541068609573 -0.0006589738058199866 0 -0.06785542484187304 0 0
          0.010444805446682076 -0.000806958179913087 0 1.510083939716715e-15 0 0
          0.00018886541068593814 -0.0006589738058225842 0 0.06785542484187249 0 0
          -0.020782366172907754 0.0013075692530386167 0 0.1097989823299246 0 0
          0.1960001340068128 -0.00021080150951825383 0 0.2671669530426835 0 0
          0.7126852581574188 0 0 0.5821817954792953 0 0
          0.7026396704830092 0 0 -0.5935372496924964 0 0
          0.21179650378851506 -0.00023644094676258457 0 -0.27406696597289726 0 0
          0.004556040142704806 -0.0006167587598083431 0 -0.11082840988358891 0 0
          0.007434113007539165 0.0010451021510863598 0 -0.0656535002809335 0 0
          0.004603832185585797 0.0014664208360536753 0 -1.0923212256114717e-15 0 0
          0.007434113007539064 0.0010451021510871335 0 0.06565350028093189 0 0
          0.004556040142704844 -0.0006167587598101563 0 0.11082840988358862 0 0
          0.21179650378851853 -0.00023644094676287798 0 0.27406696597289804 0 0
          0.7026396704830099 0 0 0.5935372496924962 0 0
          0.7048220227974712 0 0 -0.5902351470320822 0 0
          0.20534190281426418 0.00020270207664019668 0 -0.2697331235580452 0 0
          -0.0025563963078082115 0.00015512759243732646 0 -0.11289867012232377 0 0
          0.006724518383722523 -0.0006775904012538388 0 -0.06704153133796939 0 0
          0.005259177147622484 -0.0008523573911803058 0 -1.8681352761025954e-16 0 0
          0.006724518383721823 -0.0006775904012603832 0 0.06704153133796865 0 0
          -0.0025563963078098296 0.00015512759243720289 0 0.11289867012232506 0 0
          0.20534190281426418 0.00020270207664293587 0 0.26973312355804707 0 0
          0.7048220227974653 0 0 0.5902351470320838 0 0
          0.7037970277693429 0 0 -0.5927680790715332 0 0
          0.20649443742668327 -0.00011300718975701137 0 -0.2710335408135473 0 0
          -0.0011748942985770915 -0.0000034419524116444016 0 -0.11105954675250063 0 0
          0.005761954262918831 0.00035965978938873365 0 -0.06606342824262595 0 0
          0.005660205699248472 0.00037784341505412274 0 1.9166959686067735e-15 0 0
          0.005761954262918803 0.00035965978938740805 0 0.06606342824262514 0 0
          -0.0011748942985772683 -0.0000034419524117943556 0 0.1110595467524989 0 0
          0.2064944374266829 -0.00011300718975790025 0 0.27103354081354486 0 0
          0.70379702776935 0 0 0.592768079071531 0 0
          0.7032769475376042 0 0 -0.5894044040079051 0 0
          0.20949983375859754 0.0001029032865042622 0 -0.27142681467327945 0 0
          -0.000452080614128073 -0.00005903186944449661 0 -0.11320070857598291 0 0
          0.007788848471440588 -0.00025089311011033315 0 -0.06614111231935926 0 0
          0.004911397037408952 3.2101526609930294e-7 0 -1.6624580244471898e-16 0 0
          0.0077888484714410235 -0.000250893110108868 0 0.06614111231935993 0 0
          -0.0004520806141269345 -0.00005903186944358223 0 0.11320070857598377 0 0
          0.20949983375859918 0.00010290328650409824 0 0.2714268146732819 0 0
          0.7032769475375963 0 0 0.5894044040079052 0 0
          0.713354979551336 0 0 -0.5981340716526059 0 0
          0.21029052063721224 -0.0000827533732896488 0 -0.26745092630860395 0 0
          0.00335644306712891 0.0001447666476627132 0 -0.10808337711148416 0 0
          0.009073795590704672 0.0001883235338901695 0 -0.06649862646070383 0 0
          0.00327468734436052 -0.000457708315664006 0 -2.7953829727169113e-17 0 0
          0.009073795590704248 0.00018832353388928424 0 0.06649862646070336 0 0
          0.0033564430671280147 0.00014476664766238797 0 0.1080833771114841 0 0
          0.21029052063721296 -0.00008275337328888091 0 0.2674509263086035 0 0
          0.7133549795513389 0 0 0.5981340716526066 0 0
          0.6375004929525239 0.0001965001207864399 0 -0.5581377384619882 0 0
          0.17690189499322254 -0.00007840507946458627 0 -0.2811793366865182 0 0
          0.012658115635902857 0.000001442856919653952 0 -0.102261169741144 0 0
          0.012691440717743464 0.00006293162440196595 0 -0.06686494590029636 0 0
          -0.002683891773450742 -0.00022046323245459166 0 3.32026073301961e-16 0 0
          0.01269144071774381 0.00006293162440134107 0 0.06686494590029599 0 0
          0.012658115635903232 0.0000014428569200040463 0 0.10226116974114419 0 0
          0.17690189499322193 -0.00007840507946454228 0 0.2811793366865183 0 0
          0.6375004929525219 0.00019650012078611858 0 0.5581377384619881 0 0
          <InformationKey name="L2_NORM_RANGE" location="vtkDataArray" length="2">
            <Value index="0">
              0
            </Value>
            <Value index="1">
              16.124515497
            </Value>
          </InformationKey>
        </DataArray>
      </PointData>
      <CellData>
        <DataArray type="UInt8" Name="vtkGhostType" format="ascii" RangeMin="0" RangeMax="0">
          0 0 0 0 0 0
          0 0 0 0 0 0
          0 0 0 0 0 0
          0 0 0 0 0 0
          0 0 0 0 0 0
          0 0 0 0 0 0
          0 0 0 0 0 0
          0 0 0 0 0 0
          0 0 0 0 0 0
          0 0 0 0 0 0
          0 0 0 0 0 0
          0 0 0 0 0 0
          0 0 0 0 0 0
          0 0
        </DataArray>
        <DataArray type="Float64" Name="NN-Viscosity" format="ascii" RangeMin="0.001020115689235257" RangeMax="0.125452583740291">
          0.004284018390940632 0.12545258374028945 0.00731995692691996 0.0034461078370072286 0.0026024546299352066 0.0025183046347274796
          0.0025234747483741543 0.002497862548947104 0.0025317062386582016 0.0025584708258233 0.004017408422350318 0.036022213519424785
          0.007279592917775664 0.007824201808219786 0.00848283171593683 0.008430711078765397 0.008525550447191959 0.008439352355170255
          0.008525389912279475 0.008586422101811167 0.002147169124318715 0.007839585504237767 0.013027866147946888 0.012007319622113594
          0.009963236581338061 0.009019688374435411 0.00887134059304574 0.008872682734261223 0.009152777046326705 0.011391839814344148
          0.0023394631139446688 0.0019945720144839657 0.0027204520037495284 0.001483046480845302 0.0010201156892352798 0.001045525515552486
          0.0010214012196726636 0.0010462073897955508 0.0011526132695872798 0.0013896578453694154 0.0023394631139446783 0.0019945720144840034
          0.002720452003749678 0.001483046480845295 0.001020115689235257 0.001045525515552491 0.0010214012196725992 0.0010462073897955005
          0.001152613269587273 0.0013896578453694 0.002147169124318708 0.00783958550423777 0.013027866147947022 0.012007319622114026
          0.009963236581338401 0.00901968837443554 0.008871340593045911 0.008872682734261313 0.009152777046326752 0.011391839814344322
          0.004017408422350325 0.03602221351942532 0.007279592917775666 0.00782420180821991 0.008482831715936976 0.008430711078765547
          0.00852555044719196 0.00843935235517028 0.008525389912279562 0.008586422101811167 0.004284018390940635 0.125452583740291
          0.007319956926920019 0.0034461078370071727 0.0026024546299352287 0.002518304634727529 0.0025234747483741512 0.00249786254894711
          0.0025317062386582267 0.002558470825823298
        </DataArray>
      </CellData>
      <Points>
        <DataArray type="Float32" Name="Points" NumberOfComponents="3" format="ascii" RangeMin="0" RangeMax="5.024937810560445">
          0 0.5 0 0 0.375 0
          0 0.25 0 0 0.125 0
          0.5 0.5 0 0 0 0
          0.5 0.375 0 0.5 0.25 0
          0.5 0.125 0 0 -0.125 0
          0.5 0 0 0 -0.25 0
          0.5 -0.125 0 0 -0.375 0
          0.5 -0.25 0 0 -0.5 0
          1 0.5 0 0.5 -0.375 0
          1 0.375 0 1 0.25 0
          1 0.125 0 0.5 -0.5 0
          1 0 0 1 -0.125 0
          1 -0.25 0 1 -0.375 0
          1 -0.5 0 1.5 0.5 0
          1.5 0.375 0 1.5 0.25 0
          1.5 0.125 0 1.5 0 0
          1.5 -0.125 0 1.5 -0.25 0
          1.5 -0.375 0 1.5 -0.5 0
          2 0.5 0 2 0.375 0
          2 0.25 0 2 0.125 0
          2 0 0 2 -0.125 0
          2 -0.25 0 2 -0.375 0
          2 -0.5 0 2.5 0.5 0
          2.5 0.375 0 2.5 0.25 0
          2.5 0.125 0 2.5 0 0
          2.5 -0.125 0 2.5 -0.25 0
          2.5 -0.375 0 2.5 -0.5 0
          3 0.5 0 3 0.375 0
          3 0.25 0 3 0.125 0
          3 0 0 3 -0.125 0
          3 -0.25 0 3 -0.375 0
          3 -0.5 0 3.5 0.5 0
          3.5 0.375 0 3.5 0.25 0
          3.5 0.125 0 3.5 0 0
          3.5 -0.125 0 3.5 -0.25 0
          3.5 -0.375 0 3.5 -0.5 0
          4 0.5 0 4 0.375 0
          4 0.25 0 4 0.125 0
          4 0 0 4 -0.125 0
          4 -0.25 0 4 -0.375 0
          4 -0.5 0 4.5 0.5 0
          4.5 0.375 0 4.5 0.25 0
          4.5 0.125 0 4.5 0 0
          4.5 -0.125 0 4.5 -0.25 0
          4.5 -0.375 0 4.5 -0.5 0
          5 0.5 0 5 0.375 0
          5 0.25 0 5 0.125 0
          5 0 0 5 -0.125 0
          5 -0.25 0 5 -0.375 0
          5 -0.5 0
          <InformationKey name="L2_NORM_RANGE" location="vtkDataArray" length="2">
            <Value index="0">
              0
            </Value>
            <Value index="1">
              5.0249378106
            </Value>
          </InformationKey>
        </DataArray>
      </Points>
      <Cells>
        <DataArray type="Int64" Name="connectivity" format="ascii" RangeMin="0" RangeMax="98">
          21 17 13 15 26 25
          17 21 35 34 25 26
          44 43 34 35 53 52
          43 44 62 61 52 53
          71 70 61 62 80 79
          70 71 89 88 79 80
          98 97 88 89 17 14
          11 13 25 24 14 17
          34 33 24 25 43 42
          33 34 52 51 42 43
          61 60 51 52 70 69
          60 61 79 78 69 70
          88 87 78 79 97 96
          87 88 14 12 9 11
          24 23 12 14 33 32
          23 24 42 41 32 33
          51 50 41 42 60 59
          50 51 69 68 59 60
          78 77 68 69 87 86
          77 78 96 95 86 87
          12 10 5 9 23 22
          10 12 32 31 22 23
          41 40 31 32 50 49
          40 41 59 58 49 50
          68 67 58 59 77 76
          67 68 86 85 76 77
          95 94 85 86 10 8
          3 5 22 20 8 10
          31 30 20 22 40 39
          30 31 49 48 39 40
          58 57 48 49 67 66
          57 58 76 75 66 67
          85 84 75 76 94 93
          84 85 8 7 2 3
          20 19 7 8 30 29
          19 20 39 38 29 30
          48 47 38 39 57 56
          47 48 66 65 56 57
          75 74 65 66 84 83
          74 75 93 92 83 84
          7 6 1 2 19 18
          6 7 29 28 18 19
          38 37 28 29 47 46
          37 38 56 55 46 47
          65 64 55 56 74 73
          64 65 83 82 73 74
          92 91 82 83 6 4
          0 1 18 16 4 6
          28 27 16 18 37 36
          27 28 46 45 36 37
          55 54 45 46 64 63
          54 55 73 72 63 64
          82 81 72 73 91 90
          81 82
        </DataArray>
        <DataArray type="Int64" Name="offsets" format="ascii" RangeMin="4" RangeMax="320">
          4 8 12 16 20 24
          28 32 36 40 44 48
          52 56 60 64 68 72
          76 80 84 88 92 96
          100 104 108 112 116 120
          124 128 132 136 140 144
          148 152 156 160 164 168
          172 176 180 184 188 192
          196 200 204 208 212 216
          220 224 228 232 236 240
          244 248 252 256 260 264
          268 272 276 280 284 288
          292 296 300 304 308 312
          316 320
        </DataArray>
        <DataArray type="UInt8" Name="types" format="ascii" RangeMin="9" RangeMax="9">
          9 9 9 9 9 9
          9 9 9 9 9 9
          9 9 9 9 9 9
          9 9 9 9 9 9
          9 9 9 9 9 9
          9 9 9 9 9 9
          9 9 9 9 9 9
          9 9 9 9 9 9
          9 9 9 9 9 9
          9 9 9 9 9 9
          9 9 9 9 9 9
          9 9 9 9 9 9
          9 9 9 9 9 9
          9 9
        </DataArray>
      </Cells>
    </Piece>
  </UnstructuredGrid>
</VTKFile>
