<?xml version="1.0"?>
<VTKFile type="UnstructuredGrid" version="0.1" byte_order="LittleEndian" header_type="UInt32" compressor="vtkZLibDataCompressor">
  <UnstructuredGrid>
    <Piece NumberOfPoints="99" NumberOfCells="80">
      <PointData>
        <DataArray type="Float64" Name="Velocity" NumberOfComponents="3" format="ascii" RangeMin="0" RangeMax="1.0252830329916252">
          0 0 0 0.43749999999999994 0 0
          0.75 0 0 0.9375000000000001 0 0
          0 0 0 1 0 0
          0.36892267121058003 -0.003174802539105427 0 0.6941780396174176 -0.008405444072339051 0
          0.9268726579106179 -0.005623060134638238 0 0.9374999999999999 0 0
          1.0201086425427506 -1.1090547986295718e-15 0 0.75 0 0
          0.9268726579106191 0.005623060134641364 0 0.43749999999999994 0 0
          0.6941780396174195 0.008405444072337233 0 0 0 0
          0 0 0 0.36892267121058225 0.0031748025391086527 0
          0.4557689147113717 0.0020751895748147638 0 0.7323854551461498 0.014918481128349027 0
          0.9446466061580253 0.010330631405802754 0 0 0 0
          1.0252830329916252 -2.3441035504033206e-15 0 0.944646606158025 -0.010330631405807316 0
          0.7323854551461497 -0.01491848112835354 0 0.4557689147113706 -0.002075189574820459 0
          0 0 0 0 0 0
          0.42442330708480425 0.001966961677822701 0 0.7247139493703346 -0.0027175344076121087 0
          0.9274117841038162 -0.0017506230999373975 0 0.9935881679599049 -6.688217420410152e-16 0
          0.9274117841038169 0.0017506230999374543 0 0.7247139493703355 0.00271753440761016 0
          0.4244233070848044 -0.001966961677822198 0 0 0 0
          0 0 0 0.43591368866654234 -0.00016176435936280495 0
          0.7228836566077238 0.0008267401186857874 0 0.9261614494772504 0.0006194527393768414 0
          0.9990522053005364 2.5254212455696752e-15 0 0.9261614494772503 -0.0006194527393753206 0
          0.7228836566077228 -0.0008267401186870789 0 0.4359136886665435 0.0001617643593640266 0
          0 0 0 0 0 0
          0.43536705640013706 -0.0006935326899618969 0 0.7266642504026583 -0.00058423811954421 0
          0.9300856013015001 -0.0002969593830409172 0 1.001663766071349 1.6427756485633104e-15 0
          0.9300856013015003 0.00029695938304163445 0 0.7266642504026588 0.0005842381195422483 0
          0.4353670564001374 0.0006935326899646384 0 0 0 0
          0 0 0 0.4338003714817388 0.0003243210684690088 0
          0.7254905091766644 0.00002529420952949094 0 0.9287066490293946 -0.000013089699947267704 0
          1.0006429602171791 -2.196380808709244e-15 0 0.9287066490293949 0.000013089699949383254 0
          0.7254905091766634 -0.000025294209530328887 0 0.43380037148173833 -0.0003243210684712428 0
          0 0 0 0 0 0
          0.4350029804733098 -0.00006342958160577609 0 0.7254500787582908 0.00012113075752952293 0
          0.9289070807662504 0.00005290825776569741 0 1.000917960638311 4.622061858006478e-16 0
          0.9289070807662505 -0.000052908257766273525 0 0.725450078758291 -0.0001211307575282091 0
          0.43500298047330854 0.00006342958160444395 0 0 0 0
          0 0 0 0.4321593601210105 -0.00005908121764079464 0
          0.7250998745105225 -0.00011308319713838095 0 0.9286007079166584 0.000049895700975693034 0
          1.0007651898644956 -9.764568606009592e-16 0 0.9286007079166567 -0.00004989570097447138 0
          0.7250998745105214 0.00011308319713780971 0 0.43215936012100975 0.000059081217642599546 0
          0 0 0 0 0 0
          0.4427131659393347 -0.0001057540326396613 0 0.7271824456056393 -0.0005436796010960989 0
          0.9304477371552782 -0.0005181648097803652 0 1.0023999307384797 6.759627850950329e-17 0
          0.9304477371552793 0.0005181648097789006 0 0.7271824456056386 0.0005436796010967017 0
          0.442713165939335 0.00010575403263932817 0 0 0 0
          0 0 0 0.3999545954958762 0 0
          0.718522678173661 0 0 0.9282890610574446 0 0
          1.0044325925810849 0 0 0.9282890610574442 0 0
          0.7185226781736617 0 0 0.39995459549587603 0 0
          0 0 0
          <InformationKey name="L2_NORM_RANGE" location="vtkDataArray" length="2">
            <Value index="0">
              0
            </Value>
            <Value index="1">
              1.025283033
            </Value>
          </InformationKey>
        </DataArray>
        <DataArray type="Float64" Name="Pressure" format="ascii" RangeMin="0" RangeMax="30.36858652982919">
          30.205140409357895 30.368586529829162 30.35790848901746 30.190203087040082 26.284754117662747 30.098143090212325
          26.16129989465958 25.998565297687332 25.899508735446993 30.190203087040086 25.870842068287534 30.35790848901749
          25.899508735447007 30.36858652982919 25.998565297687332 30.205140409357913 21.4559176688067 26.161299894659617
          21.41239136000477 21.422552047973753 21.45988748989843 26.284754117662775 21.47852980249869 21.459887489898424
          21.422552047973742 21.412391360004722 21.45591766880665 19.172730114634945 19.19941003125838 19.200458443009182
          19.194036687530215 19.191565128268838 19.194036687530225 19.20045844300918 19.199410031258388 19.17273011463494
          16.50398830607743 16.497796723401063 16.49871883494336 16.49898171190165 16.498247443083216 16.498981711901646
          16.498718834943382 16.497796723401084 16.503988306077453 13.697270432618883 13.697166669880502 13.695037182060839
          13.694835840768356 13.695298172063197 13.694835840768373 13.695037182060835 13.697166669880499 13.697270432618893
          10.974629174011604 10.974990839133934 10.9756037792065 10.975352570732836 10.97504825815217 10.975352570732813
          10.975603779206486 10.97499083913392 10.97462917401158 8.234161157616436 8.23418022269224 8.234073495400903
          8.234191874618952 8.234307020987133 8.234191874618954 8.234073495400896 8.23418022269223 8.234161157616429
          5.496979704123324 5.496423092558722 5.496698877763908 5.497129503378252 5.497227806053154 5.497129503378251
          5.496698877763908 5.496423092558724 5.496979704123328 2.7730744918590133 2.773826153752533 2.7706654135448803
          2.7669825956265033 2.765858518575203 2.766982595626501 2.770665413544877 2.773826153752529 2.773074491859012
          0 0 0 0 0 0
          0 0 0
        </DataArray>
        <DataArray type="Float64" Name="stream" format="ascii" RangeMin="-0.651627824711098" RangeMax="-0.00010987578871942544">
          -0.0017461912072811933 -0.027343749999999997 -0.10075408810125727 -0.20516213385981996 -0.00010987578871942544 -0.3259110067491371
          -0.02705569155829489 -0.09925858750634621 -0.2031900441387527 -0.4468234951905951 -0.32599914427029386 -0.5514052235250305
          -0.4495298509509181 -0.624284074711098 -0.5546142844773277 -0.651627824711098 -0.0006215826489167006 -0.6251272131879754
          -0.02778314237063367 -0.09998629517490054 -0.20359352251430357 -0.6499063524248674 -0.3255454437877781 -0.4474259388692418
          -0.5512032624481933 -0.6236156520165438 -0.6510037808054359 -0.0038031005550837153 -0.03001230036167216 -0.10271500824368629
          -0.20615219252831654 -0.32600353210303146 -0.44573237546364053 -0.549562783436672 -0.6230006088313418 -0.650265423164789
          -0.0021858802604390708 -0.029733679210815468 -0.1020799649435152 -0.20534124310956578 -0.3257762713706017 -0.4462075135743601
          -0.5493961657146842 -0.6222057747220353 -0.6498579017142415 -0.0016153310112319123 -0.02899788903879477 -0.10164970186259112
          -0.20506388967144284 -0.3256057551444112 -0.44601850612903854 -0.5493782173046398 -0.6222133187490902 -0.6496408307441702
          -0.001866733106628148 -0.028963323824097345 -0.10147618115719062 -0.20491576812328816 -0.32552927118101954 -0.44610624190855636
          -0.549559217989568 -0.6222194341875253 -0.649486394074652 -0.0023240279381338182 -0.029354147694188284 -0.10176085944009257
          -0.20512287641452193 -0.32572947077367975 -0.44632989872682094 -0.5497141200332926 -0.6222433408597575 -0.6494245305099169
          -0.0009337238233275754 -0.02846384829081605 -0.10122178976245066 -0.20472033394980607 -0.32534871094527656 -0.4459645606594235
          -0.5493908640207517 -0.622026886326123 -0.6493893800242206 -0.00561717288655378 -0.031409226151744074 -0.10300494178912838
          -0.2061231672486961 -0.3268158459567607 -0.4475507093584282 -0.5509325580712062 -0.623056051197588 -0.649476452020641
          -0.012230794266259927 -0.03430537206416817 -0.10500090398897631 -0.2080260729186467 -0.3288347345501056 -0.4496644885283657
          -0.5528214690846415 -0.6237808897539483 -0.649476452020641
        </DataArray>
        <DataArray type="Float64" Name="Sigma" NumberOfComponents="6" format="ascii" RangeMin="0" RangeMax="16.1245154965971">
          16 0 0 -2 0 0
          9 0 0 -1.5 0 0
          4 0 0 -1 0 0
          1 0 0 -0.5 0 0
          0.570531034313271 0 0 -0.44931164734501555 0 0
          0 0 0 0 0 0
          0.8151840664352944 0.004836924581354605 0 -0.46409752682271743 0 0
          1.0216036151586827 -0.0005517578151989116 0 -0.47785811166900966 0 0
          0.4121972510909373 0.0016510910526505212 0 -0.29182104013853866 0 0
          1 0 0 0.5 0 0
          0.04688129807525659 0.014731913608394532 0 5.242085816147213e-16 0 0
          4 0 0 1 0 0
          0.4121972510909365 0.0016510910526511457 0 0.2918210401385375 0 0
          9 0 0 1.5000000000000002 0 0
          1.0216036151586854 -0.0005517578152000274 0 0.4778581116690051 0 0
          16 0 0 2 0 0
          0.8935293322134444 0 0 -0.49699045987387014 0 0
          0.8151840664353008 0.004836924581354203 0 0.4640975268227156 0 0
          0.3066328656812149 -0.009305355371669979 0 -0.35527474595241265 0 0
          -0.20199706905170034 -0.0074425552488693895 0 -0.109729746068019 0 0
          -0.068859156776939 0.0147737004453323 0 -0.09461723500248201 0 0
          0.570531034313278 0 0 0.4493116473450134 0 0
          0.015229678545123158 0.030305510012134343 0 -2.1939514177915553e-15 0 0
          -0.06885915677694024 0.014773700445334286 0 0.09461723500248129 0 0
          -0.20199706905170228 -0.007442555248872611 0 0.10972974606801568 0 0
          0.30663286568121023 -0.009305355371674998 0 0.35527474595240427 0 0
          0.893529332213456 0 0 0.49699045987386653 0 0
          0.8443608131524232 0 0 -0.5932714495480468 0 0
          0.3476011338157571 0.002009060074887243 0 -0.36882536596032445 0 0
          0.06650074566911451 0.00023089535341988 0 -0.16234878379878726 0 0
          0.018137814936641697 -0.0012300535368098672 0 -0.09087835171902729 0 0
          -0.00745180678678459 -0.004102790505463258 0 -5.2765363434527296e-17 0 0
          0.018137814936642304 -0.0012300535368093537 0 0.09087835171902951 0 0
          0.06650074566911554 0.00023089535342033028 0 0.16234878379879086 0 0
          0.3476011338157574 0.0020090600748818794 0 0.3688253659603235 0 0
          0.8443608131524089 0 0 0.5932714495480338 0 0
          0.8690761743285874 0 0 -0.630243408427343 0 0
          0.2774736768830455 0.0005579825478541734 0 -0.3241240205189249 0 0
          0.029844176862915794 0.0012012799789232116 0 -0.1647371070276231 0 0
          0.0139741584594474 -0.0021528888012978383 0 -0.09727160282378874 0 0
          0.012922908809721387 -0.0032246290251366047 0 1.5486141472014566e-15 0 0
          0.013974158459447555 -0.002152888801299194 0 0.09727160282378844 0 0
          0.029844176862917744 0.001201279978922485 0 0.16473710702762423 0 0
          0.27747367688304475 0.0005579825478567061 0 0.32412402051892786 0 0
          0.8690761743285829 0 0 0.6302434084273423 0 0
          0.8697171257889813 0 0 -0.6435544185865624 0 0
          0.29004700942865835 -0.00043265204803438333 0 -0.3309895320670622 0 0
          0.03343709703644582 -0.0005245127767075926 0 -0.16032071390084837 0 0
          0.005803347514733101 0.0015941177687358473 0 -0.09212730964388151 0 0
          0.007728565015469764 0.002493512367774116 0 -1.0356195862743947e-15 0 0
          0.005803347514732756 0.001594117768737971 0 0.09212730964388022 0 0
          0.033437097036446414 -0.0005245127767098757 0 0.16032071390084746 0 0
          0.29004700942866174 -0.0004326520480350216 0 0.33098953206706283 0 0
          0.8697171257889811 0 0 0.6435544185865634 0 0
          0.8684090699000195 0 0 -0.6381177493021999 0 0
          0.2846571720721951 0.00026006067347822035 0 -0.32740874413616494 0 0
          0.037698890181994286 0.00006909158604134133 0 -0.16556972767409173 0 0
          0.01258274159176894 -0.0008454730828784657 0 -0.09393595207228761 0 0
          0.00693072124140153 -0.0011683928410822616 0 -5.554075717858112e-16 0 0
          0.012582741591768306 -0.0008454730828845412 0 0.09393595207228635 0 0
          0.03769889018199255 0.00006909158604220854 0 0.16556972767409356 0 0
          0.2846571720721955 0.00026006067348002235 0 0.3274087441361672 0 0
          0.8684090699000152 0 0 0.6381177493022016 0 0
          0.8688362285524499 0 0 -0.6418837767385863 0 0
          0.28484567669875155 -0.0001369207946603928 0 -0.3281032996649854 0 0
          0.03371807276728395 0.000059564409975377175 0 -0.16220803948672294 0 0
          0.008192871458448119 0.00036939466850602185 0 -0.09323292886031129 0 0
          0.008222101198935914 0.0004038311479759434 0 1.9276247265054273e-15 0 0
          0.00819287145844766 0.00036939466850380027 0 0.09323292886031047 0 0
          0.03371807276728351 0.0000595644099750334 0 0.1622080394867217 0 0
          0.2848456766987511 -0.00013692079466056533 0 0.32810329966498286 0 0
          0.8688362285524549 0 0 0.6418837767385839 0 0
          0.8675852529589726 0 0 -0.6372389144513602 0 0
          0.2889427947896176 0.00012026306310869123 0 -0.3289393658295518 0 0
          0.037095369179961056 -0.0001226622869443698 0 -0.16539107960163865 0 0
          0.011823196758902529 -0.00020742228891576275 0 -0.09283138629069805 0 0
          0.007156998579677727 0.0000834883370518609 0 3.3126197885000254e-16 0 0
          0.01182319675890335 -0.00020742228891447597 0 0.09283138629069887 0 0
          0.03709536917996169 -0.0001226622869434054 0 0.16539107960163882 0 0
          0.2889427947896196 0.00012026306310819664 0 0.328939365829554 0 0
          0.8675852529589663 0 0 0.6372389144513604 0 0
          0.8799264755613824 0 0 -0.649928784854692 0 0
          0.2894526248023749 0.00006685848466481042 0 -0.32394354364757816 0 0
          0.03843911801994187 0.00024406366611169882 0 -0.1592033961997653 0 0
          0.013526729223069075 -0.000005707484713958103 0 -0.09299101093803032 0 0
          0.005511647086746102 -0.0005883908107738043 0 -4.57966997657877e-16 0 0
          0.01352672922306862 -0.000005707484714632698 0 0.09299101093803011 0 0
          0.03843911801994161 0.00024406366611117537 0 0.15920339619976553 0 0
          0.2894526248023747 0.0000668584846656888 0 0.32394354364757844 0 0
          0.8799264755613849 0 0 0.649928784854692 0 0
          0.7843258336020628 0.0001759828132124968 0 -0.597407182611338 0 0
          0.25543141209413434 -0.0001001212145815413 0 -0.3370781656718385 0 0
          0.04054145303653431 -0.00000931675820499666 0 -0.15799872930558553 0 0
          0.019088066296425447 0.00009395683910089992 0 -0.09158358787263463 0 0
          -0.002645153931345314 -0.0002819241326302915 0 5.120903701083536e-16 0 0
          0.019088066296425548 0.00009395683910022492 0 0.09158358787263401 0 0
          0.04054145303653445 -0.000009316758204845847 0 0.15799872930558553 0 0
          0.2554314120941343 -0.00010012121458145468 0 0.3370781656718383 0 0
          0.7843258336020608 0.00017598281321224934 0 0.5974071826113385 0 0
          <InformationKey name="L2_NORM_RANGE" location="vtkDataArray" length="2">
            <Value index="0">
              0
            </Value>
            <Value index="1">
              16.124515497
            </Value>
          </InformationKey>
        </DataArray>
      </PointData>
      <CellData>
        <DataArray type="UInt8" Name="vtkGhostType" format="ascii" RangeMin="0" RangeMax="0">
          0 0 0 0 0 0
          0 0 0 0 0 0
          0 0 0 0 0 0
          0 0 0 0 0 0
          0 0 0 0 0 0
          0 0 0 0 0 0
          0 0 0 0 0 0
          0 0 0 0 0 0
          0 0 0 0 0 0
          0 0 0 0 0 0
          0 0 0 0 0 0
          0 0 0 0 0 0
          0 0 0 0 0 0
          0 0
        </DataArray>
        <DataArray type="Float64" Name="NN-Viscosity" format="ascii" RangeMin="0.00037956250591619756" RangeMax="0.11475133792173828">
          0.004354764362676771 0.11475133792173828 0.006651608755063893 0.003066135835934072 0.0026490617849503732 0.00256939950998637
          0.0026036636952899137 0.0025675410097319223 0.002598687461304571 0.002553342462279334 0.0038571660291666443 0.025452333779956024
          0.005379846791883946 0.006084528250941961 0.006945727974736611 0.00685043203490619 0.006966080465711134 0.006875994020196518
          0.006970909178849412 0.0069401036851833905 0.0019601724305002848 0.005598416340174885 0.013150555204544105 0.007099181183092606
          0.005677484854846837 0.005141108222300294 0.0049513409754329 0.005036554606463186 0.0049058168748720345 0.005263221069316265
          0.002300208932118754 0.0017269444636989425 0.0017880432069767816 0.0007847422510261794 0.0004149619069090429 0.0003860036946021408
          0.00038823849536294934 0.00037956250591623025 0.00046715415956665146 0.0007509449397062592 0.0023002089321187543 0.0017269444636989534
          0.0017880432069768662 0.0007847422510261813 0.0004149619069090223 0.0003860036946021438 0.00038823849536292955 0.00037956250591619756
          0.00046715415956664593 0.0007509449397062613 0.0019601724305002882 0.005598416340174899 0.013150555204544296 0.007099181183092867
          0.005677484854846985 0.005141108222300303 0.004951340975432989 0.005036554606463143 0.004905816874871976 0.00526322106931635
          0.0038571660291666643 0.02545233377995623 0.005379846791883931 0.006084528250942049 0.006945727974736709 0.0068504320349063105
          0.0069660804657111575 0.006875994020196576 0.006970909178849484 0.006940103685183397 0.004354764362676764 0.11475133792173728
          0.006651608755064018 0.0030661358359340436 0.0026490617849503893 0.002569399509986428 0.0026036636952899315 0.0025675410097319483
          0.0025986874613045953 0.002553342462279327
        </DataArray>
      </CellData>
      <Points>
        <DataArray type="Float32" Name="Points" NumberOfComponents="3" format="ascii" RangeMin="0" RangeMax="5.024937810560445">
          0 0.5 0 0 0.375 0
          0 0.25 0 0 0.125 0
          0.5 0.5 0 0 0 0
          0.5 0.375 0 0.5 0.25 0
          0.5 0.125 0 0 -0.125 0
          0.5 0 0 0 -0.25 0
          0.5 -0.125 0 0 -0.375 0
          0.5 -0.25 0 0 -0.5 0
          1 0.5 0 0.5 -0.375 0
          1 0.375 0 1 0.25 0
          1 0.125 0 0.5 -0.5 0
          1 0 0 1 -0.125 0
          1 -0.25 0 1 -0.375 0
          1 -0.5 0 1.5 0.5 0
          1.5 0.375 0 1.5 0.25 0
          1.5 0.125 0 1.5 0 0
          1.5 -0.125 0 1.5 -0.25 0
          1.5 -0.375 0 1.5 -0.5 0
          2 0.5 0 2 0.375 0
          2 0.25 0 2 0.125 0
          2 0 0 2 -0.125 0
          2 -0.25 0 2 -0.375 0
          2 -0.5 0 2.5 0.5 0
          2.5 0.375 0 2.5 0.25 0
          2.5 0.125 0 2.5 0 0
          2.5 -0.125 0 2.5 -0.25 0
          2.5 -0.375 0 2.5 -0.5 0
          3 0.5 0 3 0.375 0
          3 0.25 0 3 0.125 0
          3 0 0 3 -0.125 0
          3 -0.25 0 3 -0.375 0
          3 -0.5 0 3.5 0.5 0
          3.5 0.375 0 3.5 0.25 0
          3.5 0.125 0 3.5 0 0
          3.5 -0.125 0 3.5 -0.25 0
          3.5 -0.375 0 3.5 -0.5 0
          4 0.5 0 4 0.375 0
          4 0.25 0 4 0.125 0
          4 0 0 4 -0.125 0
          4 -0.25 0 4 -0.375 0
          4 -0.5 0 4.5 0.5 0
          4.5 0.375 0 4.5 0.25 0
          4.5 0.125 0 4.5 0 0
          4.5 -0.125 0 4.5 -0.25 0
          4.5 -0.375 0 4.5 -0.5 0
          5 0.5 0 5 0.375 0
          5 0.25 0 5 0.125 0
          5 0 0 5 -0.125 0
          5 -0.25 0 5 -0.375 0
          5 -0.5 0
          <InformationKey name="L2_NORM_RANGE" location="vtkDataArray" length="2">
            <Value index="0">
              0
            </Value>
            <Value index="1">
              5.0249378106
            </Value>
          </InformationKey>
        </DataArray>
      </Points>
      <Cells>
        <DataArray type="Int64" Name="connectivity" format="ascii" RangeMin="0" RangeMax="98">
          21 17 13 15 26 25
          17 21 35 34 25 26
          44 43 34 35 53 52
          43 44 62 61 52 53
          71 70 61 62 80 79
          70 71 89 88 79 80
          98 97 88 89 17 14
          11 13 25 24 14 17
          34 33 24 25 43 42
          33 34 52 51 42 43
          61 60 51 52 70 69
          60 61 79 78 69 70
          88 87 78 79 97 96
          87 88 14 12 9 11
          24 23 12 14 33 32
          23 24 42 41 32 33
          51 50 41 42 60 59
          50 51 69 68 59 60
          78 77 68 69 87 86
          77 78 96 95 86 87
          12 10 5 9 23 22
          10 12 32 31 22 23
          41 40 31 32 50 49
          40 41 59 58 49 50
          68 67 58 59 77 76
          67 68 86 85 76 77
          95 94 85 86 10 8
          3 5 22 20 8 10
          31 30 20 22 40 39
          30 31 49 48 39 40
          58 57 48 49 67 66
          57 58 76 75 66 67
          85 84 75 76 94 93
          84 85 8 7 2 3
          20 19 7 8 30 29
          19 20 39 38 29 30
          48 47 38 39 57 56
          47 48 66 65 56 57
          75 74 65 66 84 83
          74 75 93 92 83 84
          7 6 1 2 19 18
          6 7 29 28 18 19
          38 37 28 29 47 46
          37 38 56 55 46 47
          65 64 55 56 74 73
          64 65 83 82 73 74
          92 91 82 83 6 4
          0 1 18 16 4 6
          28 27 16 18 37 36
          27 28 46 45 36 37
          55 54 45 46 64 63
          54 55 73 72 63 64
          82 81 72 73 91 90
          81 82
        </DataArray>
        <DataArray type="Int64" Name="offsets" format="ascii" RangeMin="4" RangeMax="320">
          4 8 12 16 20 24
          28 32 36 40 44 48
          52 56 60 64 68 72
          76 80 84 88 92 96
          100 104 108 112 116 120
          124 128 132 136 140 144
          148 152 156 160 164 168
          172 176 180 184 188 192
          196 200 204 208 212 216
          220 224 228 232 236 240
          244 248 252 256 260 264
          268 272 276 280 284 288
          292 296 300 304 308 312
          316 320
        </DataArray>
        <DataArray type="UInt8" Name="types" format="ascii" RangeMin="9" RangeMax="9">
          9 9 9 9 9 9
          9 9 9 9 9 9
          9 9 9 9 9 9
          9 9 9 9 9 9
          9 9 9 9 9 9
          9 9 9 9 9 9
          9 9 9 9 9 9
          9 9 9 9 9 9
          9 9 9 9 9 9
          9 9 9 9 9 9
          9 9 9 9 9 9
          9 9 9 9 9 9
          9 9 9 9 9 9
          9 9
        </DataArray>
      </Cells>
    </Piece>
  </UnstructuredGrid>
</VTKFile>
