<?xml version="1.0"?>
<VTKFile type="UnstructuredGrid" version="0.1" byte_order="LittleEndian" header_type="UInt32" compressor="vtkZLibDataCompressor">
  <UnstructuredGrid>
    <Piece NumberOfPoints="99" NumberOfCells="80">
      <PointData>
        <DataArray type="Float64" Name="Velocity" NumberOfComponents="3" format="ascii" RangeMin="0" RangeMax="1">
          0 0 0 0.4375 0 0
          0.7500000000000001 0 0 0.9375000000000001 0 0
          0 0 0 1 0 0
          0.5371016761404196 0.09555927355330386 0 0.4632420724428437 0.09561298882055547 0
          0.6025344478356429 0.058571006873353856 0 0.9375000000000001 0 0
          0.6218401803933004 1.2151447968599395e-15 0 0.75 0 0
          0.6025344478356395 -0.058571006873378906 0 0.4375 0 0
          0.46324207244284604 -0.09561298882056142 0 0 0 0
          0 0 0 0.5371016761404178 -0.09555927355329275 0
          0.8151923819411163 -0.013234291004185491 0 0.5713048367875133 0.004009394506878045 0
          0.6216272237397562 0.006433443658016064 0 0 0 0
          0.5938683212338531 -3.263352176322785e-15 0 0.6216272237397583 -0.006433443658024501 0
          0.5713048367875132 -0.0040093945068832085 0 0.8151923819411209 0.013234291004161002 0
          0 0 0 0 0 0
          0.7381533216277684 0.0010565775105153003 0 0.5469517964770129 -0.004761990516603164 0
          0.6004803734837737 -0.003938431187605824 0 0.585045127263432 -1.3208193065994934e-14 0
          0.6004803734837718 0.003938431187611349 0 0.5469517964770129 0.00476199051658602 0
          0.7381533216277554 -0.001056577510507064 0 0 0 0
          0 0 0 0.7588058522440411 -0.0003747114843312154 0
          0.5527350152086706 0.0009063552397082843 0 0.608306599837707 0.0006023930642898961 0
          0.5886176852028654 3.884610855398212e-15 0 0.6083065998377063 -0.0006023930642993445 0
          0.5527350152086753 -0.0009063552397004645 0 0.7588058522440384 0.0003747114843264404 0
          0 0 0 0 0 0
          0.7521629760618476 0.00015433700199302385 0 0.5512031232025633 -0.00006092893600935405 0
          0.606325530056486 0.000011963112057307912 0 0.5884576152118505 -4.967713418105891e-15 0
          0.6063255300564884 -0.000011963112065648738 0 0.5512031232025654 0.00006092893600945568 0
          0.7521629760618458 -0.00015433700199851016 0 0 0 0
          0 0 0 0.7542656132496345 -0.00004698726756295994 0
          0.5516523515626656 -0.00001736498001419828 0 0.6068006409866827 -0.00003077192730630326 0
          0.5882398424593287 -4.7147173318218245e-15 0 0.6068006409866811 0.00003077192730402074 0
          0.5516523515626651 0.000017364980023112787 0 0.7542656132496323 0.000046987267566210435 0
          0 0 0 0 0 0
          0.7536666758905095 0.000013503250864072868 0 0.5515348261781771 0.000008514874079439577 0
          0.60669305861693 0.000009204038679851118 0 0.5883617700531683 -3.2033652311557722e-15 0
          0.6066930586169297 -0.000009204038682158161 0 0.5515348261781774 -0.00000851487408434555 0
          0.7536666758905097 -0.000013503250872907115 0 0 0 0
          0 0 0 0.7538474400402164 -0.0000037197021772259358 0
          0.5515758286721029 -0.0000019820580203675126 0 0.6067334388242762 -0.0000012160865198556496 0
          0.5883322231568806 1.3761503031022182e-15 0 0.6067334388242764 0.0000012160865192358345 0
          0.5515758286721032 0.0000019820580223745936 0 0.7538474400402115 0.0000037197021795136125 0
          0 0 0 0 0 0
          0.7538048921840034 9.819110448519507e-7 0 0.551570351563518 2.977647195806544e-7 0
          0.6067267115087355 -1.3144881692093593e-7 0 0.588345514953123 -1.048628628350506e-15 0
          0.6067267115087351 1.3144881669681154e-7 0 0.5515703515635184 -2.9776471795629035e-7 0
          0.7538048921840051 -9.819110463550837e-7 0 0 0 0
          0 0 0 0.75382241260995 0 0
          0.5515743927760202 0 0 0.6067324509910746 0 0
          0.5883444145908943 0 0 0.6067324509910742 0 0
          0.5515743927760203 0 0 0.7538224126099486 0 0
          0 0 0
          <InformationKey name="L2_NORM_RANGE" location="vtkDataArray" length="2">
            <Value index="0">
              0
            </Value>
            <Value index="1">
              1
            </Value>
          </InformationKey>
        </DataArray>
        <DataArray type="Float64" Name="Pressure" format="ascii" RangeMin="0" RangeMax="56.93303387567125">
          56.38285313725647 56.525878905773205 56.73729099003928 56.88288859542948 53.58597185261784 56.93303387567125
          53.61404330684658 53.67383672682918 53.73304834885923 56.88288859542943 53.757389323113664 56.73729099003924
          53.73304834885923 56.52587890577313 53.67383672682914 56.38285313725639 47.59757700912701 53.61404330684656
          47.59252903578473 47.60403891270266 47.62144864829741 53.58597185261781 47.62918139195164 47.621448648297395
          47.60403891270262 47.59252903578464 47.5975770091269 41.61155062448261 41.6122224292463 41.606205363578596
          41.599356089070575 41.5966201119055 41.599356089070554 41.60620536357856 41.61222242924625 41.611550624482554
          35.66749574251998 35.66717213759007 35.66816583220103 35.66895158250258 35.669164978260156 35.66895158250258
          35.66816583220103 35.667172137590065 35.66749574251997 29.72273971997025 29.72282727061306 29.722742003768793
          29.722837024963738 29.722923004987663 29.722837024963717 29.72274200376876 29.722827270613024 29.722739719970217
          23.778754736457564 23.778741519335416 23.77873595670942 23.778661264692932 23.77861760065131 23.778661264692914
          23.7787359567094 23.778741519335412 23.778754736457557 17.834069053531913 17.834069719464438 17.8340748380783
          17.83409877961941 17.834110879963955 17.834098779619406 17.834074838078283 17.834069719464402 17.834069053531877
          11.889440894093257 11.889441293327875 11.889439737524599 11.88943426890803 11.889431978968137 11.889434268908026
          11.889439737524599 11.88944129332788 11.889440894093262 5.944732639836564 5.9447324912109885 5.9447328998753735
          5.944733883946943 5.944734154577898 5.944733883946941 5.944732899875372 5.944732491210987 5.944732639836564
          0 0 0 0 0 0
          0 0 0
        </DataArray>
        <DataArray type="Float64" Name="stream" format="ascii" RangeMin="-0.6242821998981157" RangeMax="-0.008832356814774869">
          -0.008832356814774869 -0.02734375 -0.10009866318370514 -0.19974346465643844 -0.013751391496049058 -0.31408987328411925
          -0.05042610628960618 -0.13030333827557142 -0.21732443490285314 -0.42813683545651376 -0.31583030599104384 -0.5264983156531006
          -0.4146622265203152 -0.5969384498981157 -0.4991912999583837 -0.6242821998981157 -0.01820208776571121 -0.574905666761119
          -0.069172918485453 -0.15168570017379882 -0.22592640220556606 -0.6163783607090054 -0.30665913694806574 -0.3880160308728721
          -0.4642312432284116 -0.5526087075651352 -0.6099682960727303 -0.02648399891478521 -0.07127613782964218 -0.15310687669168113
          -0.22748243445353233 -0.30530177254263785 -0.3853669776419181 -0.4637971215463868 -0.5516593304434458 -0.6038811045589554
          -0.02907454014539957 -0.07514655898183552 -0.15615366908274028 -0.22899238474831624 -0.30574397777682516 -0.38412927124683777
          -0.46109378448427074 -0.5478119621862427 -0.5995592162552252 -0.03353380113874739 -0.07920700104492968 -0.16022649061708052
          -0.2326931983882075 -0.30789086361313145 -0.3844330143684645 -0.4597565461358092 -0.5455232589437127 -0.5960463306014017
          -0.036737380179740695 -0.08271042973032379 -0.16376635255348662 -0.23612836459854253 -0.3109509700369304 -0.3861464022408111
          -0.4599489800046341 -0.5441466848629319 -0.5936673081462178 -0.039621212539014655 -0.08572176248621215 -0.16683773239683813
          -0.239179025015151 -0.31390274734873397 -0.38873346239487 -0.4615191390207246 -0.5444750213105478 -0.5926687831446983
          -0.04095899882386542 -0.08748640626482262 -0.16876007587170494 -0.24110126997786516 -0.3157959625868212 -0.3905243795947585
          -0.4630278571679949 -0.5449900960756415 -0.5923985974649957 -0.040789699016823 -0.08779852142521741 -0.16927218776326167
          -0.24162698672506466 -0.31631552152189985 -0.39101705758275346 -0.4634413855725426 -0.5451310815132737 -0.592324844669978
          -0.04074947875185511 -0.0878310732214778 -0.16936147104052085 -0.241735905737452 -0.31642634161640815 -0.39112327812737363
          -0.46353247733829817 -0.5451708899586841 -0.592324844669978
        </DataArray>
        <DataArray type="Float64" Name="Sigma" NumberOfComponents="6" format="ascii" RangeMin="0" RangeMax="16.1245154965971">
          16 0 0 -2 0 0
          9 0 0 -1.5000000000000002 0 0
          4 0 0 -1 0 0
          1 0 0 -0.5 0 0
          -0.22465782704516282 0 0 -0.33739004837665754 0 0
          0 0 0 0 0 0
          -0.13029026099299199 -0.02475080300263356 0 -0.07920149698090001 0 0
          -0.08823185942076847 0.0063002716872311015 0 0.024587286615213682 0 0
          -0.05469868822018289 0.015487762355191276 0 -0.0555823753209696 0 0
          1 0 0 0.5 0 0
          0.024981506433649273 0.024734693484647612 0 1.4296883353384242e-15 0 0
          4 0 0 1 0 0
          -0.05469868822018284 0.015487762355196938 0 0.05558237532096707 0 0
          9 0 0 1.5 0 0
          -0.08823185942076764 0.006300271687218495 0 -0.024587286615214223 0 0
          16 0 0 2 0 0
          0.05298323451583531 0 0 -0.44775347540384247 0 0
          -0.13029026099299287 -0.024750803002632164 0 0.07920149698089926 0 0
          0.04040156550139407 0.000711367285575813 0 -0.08749702856921136 0 0
          0.020061245374733576 -0.004676478596093569 0 0.07921342968871341 0 0
          0.012056658359802814 0.002458985232881496 0 -0.027745952905669672 0 0
          -0.22465782704515855 0 0 0.3373900483766559 0 0
          -0.0081594951461128 0.003061377983925354 0 -2.052699038689003e-15 0 0
          0.01205665835980302 0.002458985232879576 0 0.027745952905672985 0 0
          0.020061245374733055 -0.004676478596087504 0 -0.07921342968871516 0 0
          0.04040156550139371 0.0007113672855727487 0 0.08749702856921039 0 0
          0.05298323451583401 0 0 0.44775347540384564 0 0
          -0.011302325389831162 0 0 -0.4020816564791205 0 0
          -0.014483392493713367 0.0008339061503610292 0 -0.07805855889464869 0 0
          -0.005820147319819456 0.001199013971152759 0 0.06841800314472107 0 0
          -0.004260235599035474 -0.001491797317028582 0 -0.02995524273172891 0 0
          0.0016440820000810452 -0.001690626367166727 0 1.5690483327703866e-15 0 0
          -0.004260235599035826 -0.0014917973170316993 0 0.029955242731727144 0 0
          -0.0058201473198190206 0.0011990139711540939 0 -0.06841800314471676 0 0
          -0.014483392493714112 0.0008339061503555518 0 0.07805855889465203 0 0
          -0.011302325389830815 0 0 0.40208165647911204 0 0
          0.002321393557859301 0 0 -0.41551466843760565 0 0
          0.004703181708306216 -0.0001338411906032346 0 -0.08083191543584416 0 0
          0.0017260754363265527 -0.00022113442808347053 0 0.07296761437877085 0 0
          0.001586380721969042 0.00032335226843386656 0 -0.02815060017430517 0 0
          -0.0001550620717100463 0.0002250752713348344 0 1.3314495088021406e-15 0 0
          0.0015863807219694828 0.0003233522684344187 0 0.028150600174302147 0 0
          0.0017260754363266936 -0.0002211344280857385 0 -0.07296761437876911 0 0
          0.004703181708307326 -0.00013384119060032154 0 0.0808319154358441 0 0
          0.002321393557859194 0 0 0.41551466843760315 0 0
          -0.0004199084246875509 0 0 -0.411035987855007 0 0
          -0.0015454442762483451 -0.000009749303629179415 0 -0.0801372545771674 0 0
          -0.0005072024009963652 0.000026524232492321197 0 0.07084403813184563 0 0
          -0.00053079806650314 -0.00004577334671427157 0 -0.029159020687355243 0 0
          0.000012212061589315388 0.000020234872215383526 0 -1.390246648636922e-15 0 0
          -0.0005307980665032788 -0.00004577334671725095 0 0.029159020687355295 0 0
          -0.0005072024009967715 0.000026524232492194064 0 -0.07084403813184442 0 0
          -0.0015454442762486654 -0.000009749303629117177 0 0.08013725457716897 0 0
          -0.00041990842468753626 0 0 0.4110359878550059 0 0
          0.000056586465798329856 0 0 -0.41244084101430006 0 0
          0.0005128475356821085 0.00001106492866007391 0 -0.08033182331520763 0 0
          0.0001509791629454219 -8.748520259391086e-7 0 0.07158709454027143 0 0
          0.00016721394850493043 0.000003896561596072597 0 -0.028808207271773276 0 0
          -0.000012123988658313285 -0.000017180233846072282 0 8.189005029635149e-16 0 0
          0.00016721394850471792 0.000003896561590841624 0 0.028808207271773335 0 0
          0.00015097916294536443 -8.748520270278936e-7 0 -0.07158709454027144 0 0
          0.0005128475356824092 0.000011064928663020464 0 0.08033182331520718 0 0
          0.00005658646579831705 0 0 0.4124408410142988 0 0
          1.823303153155019e-7 0 0 -0.41205090233809105 0 0
          -0.00016534721223208958 -0.000004134063225167078 0 -0.0802762391317528 0 0
          -0.000043775105135180645 2.6818728476213914e-7 0 0.07137353623595975 0 0
          -0.00004920458367222787 5.6321502834301373e-8 0 -0.028904376285361254 0 0
          0.000010657424256802056 0.000004564145732813268 0 4.75010655809349e-16 0 0
          -0.00004920458367202138 5.6321501687310243e-8 0 0.028904376285361164 0 0
          -0.000043775105135097656 2.681872875491814e-7 0 -0.07137353623596059 0 0
          -0.00016534721223239373 -0.0000041340632273356305 0 0.080276239131753 0 0
          1.8233031530796228e-7 0 0 0.41205090233809105 0 0
          -0.000004233223142168492 0 0 -0.41216392499745425 0 0
          0.0000540019448907232 0.0000011323290635343688 0 -0.08029410400166492 0 0
          0.000013766019925373251 -4.786256488980364e-7 0 0.07143097641183167 0 0
          0.000015563403828138907 -2.338141275994302e-9 0 -0.028882201092850886 0 0
          -0.000004300088860703335 -4.881259035157072e-7 0 1.8390955573003456e-16 0 0
          0.000015563403828095858 -2.3381407442362764e-9 0 0.028882201092850515 0 0
          0.00001376601992534785 -4.78625650130801e-7 0 -0.0714309764118294 0 0
          0.000054001944890812214 0.0000011323290644446852 0 0.080294104001666 0 0
          -0.000004233223142178888 0 0 0.41216392499745114 0 0
          0.0000023313603462870728 0 0 -0.412137554610364 0 0
          -0.00001766238385492456 -2.777089872329929e-7 0 -0.08028943374213586 0 0
          -0.000003972438332484517 2.5167394781702453e-7 0 0.07141710703819482 0 0
          -0.00000464078569116408 -4.19642664643999e-8 0 -0.02888746288536596 0 0
          0.0000022637904417281245 -1.1861105351615506e-7 0 -9.724364171047128e-17 0 0
          -0.000004640785691193079 -4.196426773545699e-8 0 0.02888746288536595 0 0
          -0.000003972438332489433 2.5167394843530617e-7 0 -0.07141710703819583 0 0
          -0.00001766238385451693 -2.7770898690025467e-7 0 0.08028943374213572 0 0
          0.0000023313603462817043 0 0 0.41213755461036494 0 0
          -0.0000014647094816135571 -2.921875300430204e-7 0 -0.41214796829284095 0 0
          0.000011281521721505657 1.3231569725373885e-7 0 -0.08029165413591112 0 0
          0.0000025184865659783624 4.0718004903882446e-8 0 0.07142165845718197 0 0
          0.0000031429208852049865 3.256467848512871e-8 0 -0.028886046440548867 0 0
          -0.0000012772639141985951 8.294883979452725e-9 0 4.160734257130372e-16 0 0
          0.0000031429208852152936 3.256467849614172e-8 0 0.02888604644054876 0 0
          0.0000025184865659279085 4.0718004859831194e-8 0 -0.07142165845718182 0 0
          0.000011281521720836408 1.3231569741893216e-7 0 0.08029165413591176 0 0
          -0.0000014647094816233884 -2.921875306597416e-7 0 0.4121479682928402 0 0
          <InformationKey name="L2_NORM_RANGE" location="vtkDataArray" length="2">
            <Value index="0">
              0
            </Value>
            <Value index="1">
              16.124515497
            </Value>
          </InformationKey>
        </DataArray>
      </PointData>
      <CellData>
        <DataArray type="UInt8" Name="vtkGhostType" format="ascii" RangeMin="0" RangeMax="0">
          0 0 0 0 0 0
          0 0 0 0 0 0
          0 0 0 0 0 0
          0 0 0 0 0 0
          0 0 0 0 0 0
          0 0 0 0 0 0
          0 0 0 0 0 0
          0 0 0 0 0 0
          0 0 0 0 0 0
          0 0 0 0 0 0
          0 0 0 0 0 0
          0 0 0 0 0 0
          0 0 0 0 0 0
          0 0
        </DataArray>
        <DataArray type="Float64" Name="NN-Viscosity" format="ascii" RangeMin="7.139202177295342e-8" RangeMax="0.04182872696722168">
          0.0016540615504562455 0.04182872696722168 0.0036305437845667557 0.0005867629468457473 0.0006502367936644547 0.00031584531170569113
          0.00009716529751314324 0.000022345358512680528 0.000002834111946418872 3.719670506934733e-7 0.0034346818904227735 0.021751155160323166
          0.005460685122203605 0.0007115833561475004 0.00012314002804469018 0.00003515179139771481 0.00001388213100649972 0.000005475976461376752
          0.0000021004295309161115 7.578821240051352e-7 0.0039045653168018916 0.01459963530806313 0.0036981184815342676 0.0007910370509318575
          0.0009027193954448147 0.00018862875868997254 0.000014905331634295228 0.0000010909379569584267 3.2960981716909596e-7 1.832875480374289e-7
          0.0068928002724360045 0.0019937653789310747 0.000548571379847942 0.00009779240033202713 0.000033507460506596204 0.000007026775750232524
          0.000001781121778982331 7.428727821889837e-7 2.4899789738068526e-7 7.139202177295346e-8 0.006892800272435998 0.001993765378931074
          0.0005485713798479405 0.00009779240033202692 0.00003350746050659617 0.000007026775750232515 0.0000017811217789823287 7.428727821889837e-7
          2.4899789738068526e-7 7.139202177295342e-8 0.0039045653168018977 0.014599635308063144 0.003698118481534278 0.0007910370509318628
          0.0009027193954448181 0.00018862875868997075 0.000014905331634295189 0.0000010909379569584267 3.2960981716909385e-7 1.8328754803742776e-7
          0.003434681890422772 0.021751155160323242 0.005460685122203647 0.000711583356147505 0.00012314002804469077 0.00003515179139771494
          0.00001388213100649974 0.00000547597646137676 0.0000021004295309161106 7.578821240051315e-7 0.0016540615504562462 0.04182872696722131
          0.0036305437845667015 0.0005867629468457398 0.0006502367936644469 0.00031584531170568766 0.00009716529751314205 0.0000223453585126806
          0.0000028341119464189218 3.719670506934784e-7
        </DataArray>
      </CellData>
      <Points>
        <DataArray type="Float32" Name="Points" NumberOfComponents="3" format="ascii" RangeMin="0" RangeMax="5.024937810560445">
          0 0.5 0 0 0.375 0
          0 0.25 0 0 0.125 0
          0.5 0.5 0 0 0 0
          0.5 0.375 0 0.5 0.25 0
          0.5 0.125 0 0 -0.125 0
          0.5 0 0 0 -0.25 0
          0.5 -0.125 0 0 -0.375 0
          0.5 -0.25 0 0 -0.5 0
          1 0.5 0 0.5 -0.375 0
          1 0.375 0 1 0.25 0
          1 0.125 0 0.5 -0.5 0
          1 0 0 1 -0.125 0
          1 -0.25 0 1 -0.375 0
          1 -0.5 0 1.5 0.5 0
          1.5 0.375 0 1.5 0.25 0
          1.5 0.125 0 1.5 0 0
          1.5 -0.125 0 1.5 -0.25 0
          1.5 -0.375 0 1.5 -0.5 0
          2 0.5 0 2 0.375 0
          2 0.25 0 2 0.125 0
          2 0 0 2 -0.125 0
          2 -0.25 0 2 -0.375 0
          2 -0.5 0 2.5 0.5 0
          2.5 0.375 0 2.5 0.25 0
          2.5 0.125 0 2.5 0 0
          2.5 -0.125 0 2.5 -0.25 0
          2.5 -0.375 0 2.5 -0.5 0
          3 0.5 0 3 0.375 0
          3 0.25 0 3 0.125 0
          3 0 0 3 -0.125 0
          3 -0.25 0 3 -0.375 0
          3 -0.5 0 3.5 0.5 0
          3.5 0.375 0 3.5 0.25 0
          3.5 0.125 0 3.5 0 0
          3.5 -0.125 0 3.5 -0.25 0
          3.5 -0.375 0 3.5 -0.5 0
          4 0.5 0 4 0.375 0
          4 0.25 0 4 0.125 0
          4 0 0 4 -0.125 0
          4 -0.25 0 4 -0.375 0
          4 -0.5 0 4.5 0.5 0
          4.5 0.375 0 4.5 0.25 0
          4.5 0.125 0 4.5 0 0
          4.5 -0.125 0 4.5 -0.25 0
          4.5 -0.375 0 4.5 -0.5 0
          5 0.5 0 5 0.375 0
          5 0.25 0 5 0.125 0
          5 0 0 5 -0.125 0
          5 -0.25 0 5 -0.375 0
          5 -0.5 0
          <InformationKey name="L2_NORM_RANGE" location="vtkDataArray" length="2">
            <Value index="0">
              0
            </Value>
            <Value index="1">
              5.0249378106
            </Value>
          </InformationKey>
        </DataArray>
      </Points>
      <Cells>
        <DataArray type="Int64" Name="connectivity" format="ascii" RangeMin="0" RangeMax="98">
          21 17 13 15 26 25
          17 21 35 34 25 26
          44 43 34 35 53 52
          43 44 62 61 52 53
          71 70 61 62 80 79
          70 71 89 88 79 80
          98 97 88 89 17 14
          11 13 25 24 14 17
          34 33 24 25 43 42
          33 34 52 51 42 43
          61 60 51 52 70 69
          60 61 79 78 69 70
          88 87 78 79 97 96
          87 88 14 12 9 11
          24 23 12 14 33 32
          23 24 42 41 32 33
          51 50 41 42 60 59
          50 51 69 68 59 60
          78 77 68 69 87 86
          77 78 96 95 86 87
          12 10 5 9 23 22
          10 12 32 31 22 23
          41 40 31 32 50 49
          40 41 59 58 49 50
          68 67 58 59 77 76
          67 68 86 85 76 77
          95 94 85 86 10 8
          3 5 22 20 8 10
          31 30 20 22 40 39
          30 31 49 48 39 40
          58 57 48 49 67 66
          57 58 76 75 66 67
          85 84 75 76 94 93
          84 85 8 7 2 3
          20 19 7 8 30 29
          19 20 39 38 29 30
          48 47 38 39 57 56
          47 48 66 65 56 57
          75 74 65 66 84 83
          74 75 93 92 83 84
          7 6 1 2 19 18
          6 7 29 28 18 19
          38 37 28 29 47 46
          37 38 56 55 46 47
          65 64 55 56 74 73
          64 65 83 82 73 74
          92 91 82 83 6 4
          0 1 18 16 4 6
          28 27 16 18 37 36
          27 28 46 45 36 37
          55 54 45 46 64 63
          54 55 73 72 63 64
          82 81 72 73 91 90
          81 82
        </DataArray>
        <DataArray type="Int64" Name="offsets" format="ascii" RangeMin="4" RangeMax="320">
          4 8 12 16 20 24
          28 32 36 40 44 48
          52 56 60 64 68 72
          76 80 84 88 92 96
          100 104 108 112 116 120
          124 128 132 136 140 144
          148 152 156 160 164 168
          172 176 180 184 188 192
          196 200 204 208 212 216
          220 224 228 232 236 240
          244 248 252 256 260 264
          268 272 276 280 284 288
          292 296 300 304 308 312
          316 320
        </DataArray>
        <DataArray type="UInt8" Name="types" format="ascii" RangeMin="9" RangeMax="9">
          9 9 9 9 9 9
          9 9 9 9 9 9
          9 9 9 9 9 9
          9 9 9 9 9 9
          9 9 9 9 9 9
          9 9 9 9 9 9
          9 9 9 9 9 9
          9 9 9 9 9 9
          9 9 9 9 9 9
          9 9 9 9 9 9
          9 9 9 9 9 9
          9 9 9 9 9 9
          9 9 9 9 9 9
          9 9
        </DataArray>
      </Cells>
    </Piece>
  </UnstructuredGrid>
</VTKFile>
