<?xml version="1.0"?>
<VTKFile type="UnstructuredGrid" version="0.1" byte_order="LittleEndian" header_type="UInt32" compressor="vtkZLibDataCompressor">
  <UnstructuredGrid>
    <Piece NumberOfPoints="34" NumberOfCells="50">
      <PointData>
        <DataArray type="Float64" Name="nsi_BC" NumberOfComponents="3" format="ascii" RangeMin="0" RangeMax="0">
          0 0 0 0 0 0
          0 0 0 0 0 0
          0 0 0 0 0 0
          0 0 0 0 0 0
          0 0 0 0 0 0
          0 0 0 0 0 0
          0 0 0 0 0 0
          0 0 0 0 0 0
          0 0 0 0 0 0
          0 0 0 0 0 0
          0 0 0 0 0 0
          0 0 0 0 0 0
          0 0 0 0 0 0
          0 0 0 0 0 0
          0 0 0 0 0 0
          0 0 0 0 0 0
          0 0 0 0 0 0
          <InformationKey name="L2_NORM_RANGE" location="vtkDataArray" length="2">
            <Value index="0">
              0
            </Value>
            <Value index="1">
              0
            </Value>
          </InformationKey>
        </DataArray>
        <DataArray type="Float64" Name="nsi_FIXNO" NumberOfComponents="3" format="ascii" RangeMin="1" RangeMax="1.4142135623730951">
          1 1 0 1 0 0
          -1 -1 0 1 0 0
          -1 -1 0 -1 -1 0
          1 0 0 -1 -1 0
          1 0 0 -1 -1 0
          -1 -1 0 -1 -1 0
          1 0 0 -1 -1 0
          -1 -1 0 -1 -1 0
          -1 -1 0 -1 -1 0
          -1 -1 0 -1 -1 0
          1 1 0 1 1 0
          -1 -1 0 1 0 0
          1 0 0 1 0 0
          -1 -1 0 -1 -1 0
          1 0 0 1 0 0
          -1 -1 0 1 0 0
          1 0 0 1 1 0
          <InformationKey name="L2_NORM_RANGE" location="vtkDataArray" length="2">
            <Value index="0">
              1
            </Value>
            <Value index="1">
              1.4142135624
            </Value>
          </InformationKey>
        </DataArray>
        <DataArray type="Float64" Name="lev_BC" format="ascii" RangeMin="-1" RangeMax="1">
          -1 0 -1 -1 -1 0
          1 -1 -1 -1 1 0
          1 -1 -1 -1 1 0
          -1 -1 1 -1 -1 1
          -1 1 -1 0 -1 1
          -1 -1 0 -1
        </DataArray>
        <DataArray type="Float64" Name="lev_FIXNO" format="ascii" RangeMin="0" RangeMax="0">
          0 0 0 0 0 0
          0 0 0 0 0 0
          0 0 0 0 0 0
          0 0 0 0 0 0
          0 0 0 0 0 0
          0 0 0 0
        </DataArray>
        <DataArray type="Float64" Name="Velocity" NumberOfComponents="3" format="ascii" RangeMin="0" RangeMax="1.6686787166990877">
          0 0 0 -5.940612966755465e-18 -1.6686787166990877 0
          0.0680403599748072 -0.6482432477042928 0 0.13036201363478553 1.626499694629166e-17 0
          0.1838898849947092 -0.3152624765531975 0 0.015612847846875043 -1.0513036546692844 0
          1.3617656646149179e-16 -1.2845523504616256 0 0.3564769952311832 -0.4076595451023163 0
          0.175836944909082 -7.326065524705526e-18 0 0.2272959871558329 -0.16861727953119793 0
          0.4450015522076414 -0.7506525501757542 0 0.5486812526310958 -0.5884936912289102 0
          3.626509624801252e-17 -0.6699237532314736 0 0.37436676488701653 -0.17148532072814793 0
          0.15282729462426395 -0.07225580366805302 0 0.7067751657745908 -0.2771811155204396 0
          0.8614290308627515 -0.35939480167008686 0 1.0581463326380172 -0.2603621749475049 0
          0.6211734754319955 0.0033768887051162026 0 0.23727550516898843 0.004960775428644301 0
          0 0 0 0 0 0
          1.0909587887065693 -0.07050180564675289 0 0.6340276276309357 3.674552230389012e-17 0
          1.643262783497103e-18 -0.033096348963730954 0 1.0957981174320652 3.5749212314912107e-17 0
          1.186986652096417 0.340405403771131 0 1.3628726169118286 -0.0007015658724781165 0
          1.727663683919575e-17 0.2021790394498106 0 1.2350115468355616 -4.3824266970802965e-17 0
          1.4660698549167128 0.35387819518575747 0 -4.657721325220916e-17 1.4800530160795728 0
          1.180796897005858 -3.53767246822221e-17 0 0 0 0
          <InformationKey name="L2_NORM_RANGE" location="vtkDataArray" length="2">
            <Value index="0">
              0
            </Value>
            <Value index="1">
              1.6686787167
            </Value>
          </InformationKey>
        </DataArray>
        <DataArray type="Float64" Name="Pressure" format="ascii" RangeMin="-6.30779157467236" RangeMax="4.763975133713438">
          -4.784650363772971 -2.1504244689176564 -3.4736887189110233 -5.446643368500566 -3.7317568448230527 -0.959034393858861
          0.10328733687308608 -2.0661234392733476 -6.082274834566502 -3.9578944729285954 1.2939642513176561 -0.3123164996868415
          2.3407376956737926 -2.574378431275035 -4.099930825445937 -1.3840036890958494 1.8538419569851392 0.31015332768096204
          -1.6406580979430647 -2.4642415478625526 4.763975133713438 -6.30779157467236 -0.6864180626885563 4.388805611033811
          -3.5405133830323416 3.4172844312872646 -1.1444300281103248 0.985843547773429 -1.690599746736845 2.4842258842979086
          0.9937061050420503 0.8848638874010997 2.6940211730522083 4.5565948422727525
        </DataArray>
        <DataArray type="Float64" Name="LEVEL" format="ascii" RangeMin="-0.9735184296038645" RangeMax="0.6580284097664674">
          -0.23986080939933574 -0.19686279171821375 -0.2654582124902019 -0.391286588709493 -0.3359459109366027 -0.16419776686343868
          -0.04257631695887679 -0.21977959105316472 -0.5802238365604855 -0.4219342715965117 0.09045412991715071 -0.06035091617950042
          0.2715685607077887 -0.3174082745105695 -0.6507062161933242 -0.11789709059349765 0.18880591652878115 0.05728737796562809
          -0.22725399469170937 -0.4653727846442533 0.6580284097664674 -0.9735184296038645 -0.00873275306193838 0.5006675414501962
          -0.7129968061690801 0.3851861764087967 -0.03747921127701226 0.15234202085500131 -0.3963737000204195 0.28226465613397256
          0.10797178909301218 -0.05163884253426965 0.16836135295554613 0.030183912647742735
        </DataArray>
      </PointData>
      <CellData>
        <DataArray type="UInt8" Name="vtkGhostType" format="ascii" RangeMin="0" RangeMax="0">
          0 0 0 0 0 0
          0 0 0 0 0 0
          0 0 0 0 0 0
          0 0 0 0 0 0
          0 0 0 0 0 0
          0 0 0 0 0 0
          0 0 0 0 0 0
          0 0 0 0 0 0
          0 0
        </DataArray>
      </CellData>
      <Points>
        <DataArray type="Float32" Name="Points" NumberOfComponents="3" format="ascii" RangeMin="0" RangeMax="1.4142135623730951">
          0 1 0 0 0.7799999713897705 0
          0.19571679830551147 0.840013325214386 0 0.3338231146335602 1 0
          0.4226129949092865 0.8073133826255798 0 0.21492919325828552 0.5873047709465027 0
          0 0.512727677822113 0 0.4972974956035614 0.6009321212768555 0
          0.6673728823661804 1 0 0.630643904209137 0.7812064290046692 0
          0.20702050626277924 0.32903969287872314 0 0.40350478887557983 0.41823700070381165 0
          0 0.25636380910873413 0 0.6898214221000671 0.5965974926948547 0
          0.8102678060531616 0.7724344730377197 0 0.6222723722457886 0.4149332046508789 0
          0.3845047950744629 0.20200540125370026 0 0.5769323110580444 0.2627502977848053 0
          0.7934312224388123 0.426090806722641 0 0.8737686276435852 0.5574696063995361 0
          0 0 0 1 1 0
          0.7134407162666321 0.28491899371147156 0 0.2561560869216919 0 0
          1 0.6993336081504822 0 0.47891008853912354 0 0
          0.8612840175628662 0.26164010167121887 0 0.7288737893104553 0.12652690708637238 0
          1 0.44098520278930664 0 0.6815431714057922 0 0
          0.8920316100120544 0.1200575977563858 0 1 0.21212109923362732 0
          0.8700000047683716 0 0 1 0 0
          <InformationKey name="L2_NORM_RANGE" location="vtkDataArray" length="2">
            <Value index="0">
              0
            </Value>
            <Value index="1">
              1.4142135624
            </Value>
          </InformationKey>
        </DataArray>
      </Points>
      <Cells>
        <DataArray type="Int64" Name="connectivity" format="ascii" RangeMin="0" RangeMax="33">
          29 32 27 29 27 25
          23 25 16 27 17 25
          17 11 16 16 11 10
          17 16 25 23 10 12
          10 11 5 16 10 23
          12 10 6 6 10 5
          6 5 1 20 23 12
          32 33 30 30 33 31
          32 30 27 30 31 26
          26 31 28 30 26 27
          27 26 22 22 26 18
          27 22 17 17 22 15
          18 26 28 22 18 15
          17 15 11 18 28 19
          19 28 24 18 13 15
          19 24 14 14 24 21
          19 14 13 13 14 9
          19 13 18 9 14 8
          13 9 7 15 13 7
          7 9 4 4 9 8
          7 4 5 0 1 2
          11 15 7 2 1 5
          0 2 3 3 2 4
          3 4 8 11 7 5
          4 2 5 8 14 21
        </DataArray>
        <DataArray type="Int64" Name="offsets" format="ascii" RangeMin="3" RangeMax="150">
          3 6 9 12 15 18
          21 24 27 30 33 36
          39 42 45 48 51 54
          57 60 63 66 69 72
          75 78 81 84 87 90
          93 96 99 102 105 108
          111 114 117 120 123 126
          129 132 135 138 141 144
          147 150
        </DataArray>
        <DataArray type="UInt8" Name="types" format="ascii" RangeMin="5" RangeMax="5">
          5 5 5 5 5 5
          5 5 5 5 5 5
          5 5 5 5 5 5
          5 5 5 5 5 5
          5 5 5 5 5 5
          5 5 5 5 5 5
          5 5 5 5 5 5
          5 5 5 5 5 5
          5 5
        </DataArray>
      </Cells>
    </Piece>
  </UnstructuredGrid>
</VTKFile>
