<?xml version="1.0"?>
<VTKFile type="UnstructuredGrid" version="0.1" byte_order="LittleEndian" header_type="UInt32" compressor="vtkZLibDataCompressor">
  <UnstructuredGrid>
    <Piece NumberOfPoints="24" NumberOfCells="15">
      <PointData>
        <DataArray type="Float64" Name="Disp" NumberOfComponents="3" format="ascii" RangeMin="0" RangeMax="8.350599386490266">
          0 0 0 0 0 0
          0.04896648870445328 0.3289546854606875 0 0 0 0
          0.17684860437517877 0.34644695625060196 0 0.493115099578808 0.778523059635949 0
          0.08013371149176746 0.2719983421043339 0 0.3508350394038345 0.9212366940223642 0
          -0.048051588445270785 0.9316924662092334 0 0.5062127847147234 2.120166551233909 0
          0.0030272254676152513 2.2297309695314573 0 -0.66141401570004 2.30434976355571 0
          -0.12210226226878283 4.138584228843395 0 -0.8585237545684075 4.234798286925952 0
          -1.7474755110867117 4.309745832139911 0 -1.8836679160823706 6.95050025282999 0
          -2.7548485081750647 6.885575355962283 0 -3.392894447456108 7.026234932505693 0
          -0.1456314644461768 0.21658423850587513 0 0 0 0
          -0.611279328169821 0.9934826743950358 0 -1.4703165869681756 2.4123704031256152 0
          -2.7128781471354793 4.387037552352721 0 -4.158670121584923 7.241406833860975 0
          <InformationKey name="L2_NORM_RANGE" location="vtkDataArray" length="2">
            <Value index="0">
              0
            </Value>
            <Value index="1">
              8.3505993865
            </Value>
          </InformationKey>
        </DataArray>
        <DataArray type="Float64" Name="Nodal Stress" NumberOfComponents="6" format="ascii" RangeMin="0.49458346945619147" RangeMax="18.205171766058122">
          9.905079924363024 8.395345294815368 0 2.9841059699046872 0 0
          10.04552646407182 6.888384597339644 0 2.7060199785223205 0 0
          10.782054193606132 7.822087286197321 0 3.880437841084631 0 0
          7.251275189423842 3.6404881706557095 0 1.6118914468802747 0 0
          10.29386382902038 6.19770062762753 0 3.4798708905337694 0 0
          12.35995695112778 9.555126192279022 0 4.825139748817768 0 0
          6.27666412571001 2.84167809423444 0 2.2048098409836925 0 0
          10.751513499416317 7.84425631312191 0 4.100683506115861 0 0
          5.1812609546203126 4.469032179333976 0 2.4535272620358355 0 0
          13.263930639833406 11.194999518836351 0 5.492577608611662 0 0
          10.440797175491003 9.53415036885826 0 4.495438675810115 0 0
          3.964847246017931 6.225953850834863 0 2.700111598482268 0 0
          11.170848095494177 10.288244406662749 0 5.019266076584303 0 0
          7.672291839753114 9.232231014079664 0 4.205803621681425 0 0
          1.9339683283647893 6.95551966734187 0 3.1124287752355753 0 0
          7.514351317029185 7.919536391436016 0 4.29387728776995 0 0
          4.0495180140069555 8.546334514133642 0 3.878810946526886 0 0
          -0.008226958534970632 9.030515124982887 0 3.477921350994743 0 0
          -1.6860763550551063 -0.45543653141720875 0 0.6275221891394932 0 0
          0.0859855440220783 0.16180790188882202 0 0.459388177214965 0 0
          -3.186689165355873 1.136591071345454 0 0.49258053055589973 0 0
          -3.8273117259794147 2.5633160402932176 0 0.724713619743025 0 0
          -3.6113913656434415 3.9165296023412584 0 1.7178631781210623 0 0
          -2.6371559393413615 7.738888416307587 0 2.3840808122330857 0 0
          <InformationKey name="L2_NORM_RANGE" location="vtkDataArray" length="2">
            <Value index="0">
              0.49458346946
            </Value>
            <Value index="1">
              18.205171766
            </Value>
          </InformationKey>
        </DataArray>
        <DataArray type="Float64" Name="Nodal Strain" NumberOfComponents="6" format="ascii" RangeMin="0.002906773703772702" RangeMax="0.050480677051549856">
          0.02372497539877457 0.014311309471343918 0 0.01860683072570896 0 0
          0.02744091722797127 0.007755153758515581 0 0.01687287790331374 0 0
          0.028561928098895305 0.01010561195084138 0 0.02419573928636435 0 0
          0.022576114351417615 0.00006173197948333139 0 0.010050645520901966 0 0
          0.02990876773966435 0.004367913600483358 0 0.021698079512086507 0 0
          0.031519059170660925 0.014030065257409397 0 0.030086250099559845 0 0
          0.020185055129239553 -0.0012331532981515684 0 0.013747676492491041 0 0
          0.028388897337361493 0.010261242727559303 0 0.025569039647892124 0 0
          0.012249248395109756 0.0078082800134958875 0 0.01529850712609616 0 0
          0.03186839053323796 0.01896796020677303 0 0.034247933163888536 0 0
          0.023584949895013866 0.01793172449713737 0 0.028030461157274415 0 0
          0.0035411179575000613 0.017639822317504716 0 0.016836037312404045 0 0
          0.025052342786897813 0.019549033721604398 0 0.03129668825309191 0 0
          0.012704141265807732 0.022430848176294368 0 0.026224496329364428 0 0
          -0.006417347441124632 0.02489359013519343 0 0.019406963409038632 0 0
          0.014775955703479204 0.017302410919247738 0 0.02677366308578298 0 0
          -0.0009296818208460475 0.027109370500444242 0 0.024185595091771452 0 0
          -0.018803557161832622 0.03755581667324953 0 0.02168592352548229 0 0
          -0.006062211458441252 0.001611211373616575 0 0.003912796417989743 0 0
          0.000021123544352796943 0.0004938995758607154 0 0.002864428454296433 0 0
          -0.015608999906907377 0.011347999728958063 0 0.003071393121848912 0 0
          -0.021237345726023597 0.0186102100502374 0 0.004518815277731231 0 0
          -0.023152361330657997 0.023786571998268096 0 0.010711412291517232 0 0
          -0.02704711981082499 0.0376507504642626 0 0.01486548686843337 0 0
          <InformationKey name="L2_NORM_RANGE" location="vtkDataArray" length="2">
            <Value index="0">
              0.0029067737038
            </Value>
            <Value index="1">
              0.050480677052
            </Value>
          </InformationKey>
        </DataArray>
        <DataArray type="Float64" Name="Sigma" NumberOfComponents="6" format="ascii" RangeMin="1.1982062481909561" RangeMax="9.719389760480778">
          -0.3302793035673901 0.3185714788326805 0 2.48863672691217 0 0
          1.6103171404602104 -1.0405122174487926 0 2.4392930092372573 0 0
          1.3075480314617058 -1.5371702562049165 0 4.126399565467581 0 0
          2.550013336818195 -1.5075495054986732 0 1.185888903154779 0 0
          2.977298324909668 -2.378178192968167 0 3.850107598408388 0 0
          1.8284048070383747 -0.5573709437655249 0 5.135359041168233 0 0
          3.1318323672901527 -1.8000797806643278 0 2.4623422842499574 0 0
          2.239043069530738 -1.1400915324255112 0 4.213235217047336 0 0
          1.140474625550371 -0.006866481353181415 0 2.4787943493614115 0 0
          1.8980738596737279 -0.6754642835858876 0 6.271892760758606 0 0
          0.7930093869988762 -0.4416944843691648 0 4.785578443882429 0 0
          -1.132744364260796 1.26951673275726 0 2.7255697120445626 0 0
          1.5489046701981226 -0.4912750883787986 0 5.521086912108701 0 0
          -0.8027912980956492 0.3551376215956435 0 4.115964219348806 0 0
          -2.6528495032430515 1.7141580337260125 0 3.1886202716021317 0 0
          1.120599032231664 -0.49326426011103713 0 4.054685231337167 0 0
          -3.356917996034873 3.285892430217868 0 3.5621943027036074 0 0
          -6.170421195345054 6.340122929751889 0 3.9802776879027313 0 0
          0.38660919333605687 0.7851655693072129 0 0.8183804577373356 0 0
          1.8705699787241414 0.5518132776782406 0 0.14904624137709568 0 0
          -2.4607188966593796 2.2331551471693705 0 0.2953127387927336 0 0
          -3.888729931161313 3.0778783630960516 0 0.4554840032497724 0 0
          -4.5815956407228695 2.424161952547438 0 1.8233472522854042 0 0
          -7.476139571964954 5.6462704020477865 0 2.587180891162698 0 0
          <InformationKey name="L2_NORM_RANGE" location="vtkDataArray" length="2">
            <Value index="0">
              1.1982062482
            </Value>
            <Value index="1">
              9.7193897605
            </Value>
          </InformationKey>
        </DataArray>
        <DataArray type="Float64" Name="Press" format="ascii" RangeMin="-2.1818068474591876" RangeMax="13.089386010099327">
          9.32557626376447 8.910794919141876 9.283499225935785 6.049563713267042 8.024892377443594 11.086456736874721
          3.7186889525959095 9.363758390298335 4.571871539348424 13.089386010099327 10.710467741524823 5.472872932025724
          11.865387595639907 9.11787258472505 4.657586981964494 6.097579282522733 4.765814113922774 4.77364957073593
          -2.1818068474591876 -0.007603257402365836 -0.9772423584389254 -0.37591529336486273 0.32197370652913915 5.053897613928479
        </DataArray>
        <DataArray type="Float64" Name="Dev strain" NumberOfComponents="6" format="ascii" RangeMin="0.003959823432198631" RangeMax="0.04814240922952419">
          0.004849958132754312 -0.004563707794676342 0 0.01860683072570896 0 0
          0.010425114068458996 -0.009260649400996697 0 0.01687287790331374 0 0
          0.009489318155543753 -0.008966997992510167 0 0.02419573928636435 0 0
          0.012493533188893345 -0.010020849183040938 0 0.010050645520901966 0 0
          0.01345500212376538 -0.012085852015415616 0 0.021698079512086507 0 0
          0.009740172697653982 -0.007748821215597542 0 0.030086250099559845 0 0
          0.011894825921780748 -0.009523382505610372 0 0.013747676492491041 0 0
          0.010031045220084512 -0.00809660938971767 0 0.025569039647892124 0 0
          0.003067748511684003 -0.0013732198699298662 0 0.01529850712609616 0 0
          0.007416529145283803 -0.005483901181181125 0 0.034247933163888536 0 0
          0.003316777290458856 -0.002336448107417638 0 0.028030461157274415 0 0
          -0.007037866437242185 0.007060837922762471 0 0.016836037312404045 0 0
          0.0033787605073341644 -0.0021245485579592517 0 0.03129668825309191 0 0
          -0.004962856018426255 0.004763850892060375 0 0.026224496329364428 0 0
          -0.01642249738360731 0.01488844019271075 0 0.019406963409038632 0 0
          -0.0007950215144254733 0.0017314337013430582 0 0.02677366308578298 0 0
          -0.014066918234952295 0.013972134086337995 0 0.024185595091771452 0 0
          -0.028707608300135454 0.027651765534946703 0 0.02168592352548229 0 0
          -0.0028166650199295 0.004856757812128327 0 0.003912796417989743 0 0
          0.0016823997078390007 0.00215517573934692 0 0.002864428454296433 0 0
          -0.013529823242703016 0.013427176393162425 0 0.003071393121848912 0 0
          -0.020679798052670582 0.01916775772359041 0 0.004518815277731231 0 0
          -0.02504110092935303 0.021897832399573058 0 0.010711412291517232 0 0
          -0.03372764060307678 0.03097022967201079 0 0.01486548686843337 0 0
          <InformationKey name="L2_NORM_RANGE" location="vtkDataArray" length="2">
            <Value index="0">
              0.0039598234322
            </Value>
            <Value index="1">
              0.04814240923
            </Value>
          </InformationKey>
        </DataArray>
        <DataArray type="Float64" Name="J2 Stresses" format="ascii" RangeMin="0.550412463200331" RangeMax="45.55989241716995">
          1.6536142923793302 3.3254310799885145 6.293080469042998 4.739219887396388 10.965850546340125 8.419841374104632
          8.040112977982712 7.594399033302968 2.186470116651732 11.86362788820251 6.1374192133332794 3.3045738285613018
          8.940828617676074 4.620588663025261 7.529798934840181 4.85964399197665 14.205300810086445 43.09628086436865
          0.550412463200331 1.9073186648801788 5.542862103276119 12.34964426706646 14.26493869423889 45.55989241716995
        </DataArray>
      </PointData>
      <CellData>
        <DataArray type="UInt8" Name="vtkGhostType" format="ascii" RangeMin="0" RangeMax="0">
          0 0 0 0 0 0
          0 0 0 0 0 0
          0 0 0
        </DataArray>
        <DataArray type="Float64" Name="Gauss Stress" NumberOfComponents="6" format="ascii" RangeMin="2.8572035234622764" RangeMax="17.203163049506166">
          3.8794668592924855 1.4020480304559624 0 1.153914471629792 0 0
          9.243350282981663 4.994405066467115 0 2.4844079487625956 0 0
          10.277411744887479 7.7268683996241325 0 3.2261092250063492 0 0
          1.8324271438908553 1.5857214351263236 0 1.5137074575353597 0 0
          8.791964911741797 5.08849881806877 0 3.251119862266773 0 0
          11.52772524087323 8.036448951297078 0 4.331275355522885 0 0
          0.5874670632598109 3.816317645309965 0 1.48879020086212 0 0
          8.289688330254123 7.449958709451678 0 3.5507944305839354 0 0
          12.752150000509731 10.358861908662778 0 5.101516365714152 0 0
          -0.5448502780583839 4.640558352320314 0 2.0482553097954677 0 0
          6.540856115409867 8.21397953598746 0 3.7039331617194824 0 0
          12.055077637691046 10.882454424312723 0 5.173630584024634 0 0
          -1.5184745095294718 7.732955297807792 0 2.894856525738241 0 0
          2.5829858146574045 8.752558566659916 0 3.711764120389319 0 0
          7.589111996277431 8.625786070033534 0 4.31348266637457 0 0
          <InformationKey name="L2_NORM_RANGE" location="vtkDataArray" length="2">
            <Value index="0">
              2.8572035235
            </Value>
            <Value index="1">
              17.20316305
            </Value>
          </InformationKey>
        </DataArray>
        <DataArray type="Float64" Name="Gauss Strain" NumberOfComponents="6" format="ascii" RangeMin="0.010747258791176367" RangeMax="0.0477164954861226">
          0.013212387801080257 -0.002235090689878849 0 0.0071950163506583524 0 0
          0.028042889114556626 0.001549391496232389 0 0.015491057831873148 0 0
          0.02666209928273836 0.010758666642437603 0 0.020115796442127874 0 0
          0.00432134710091577 0.0027830601203785756 0 0.009438437748074782 0 0
          0.025970968849335148 0.002878703561726196 0 0.020271745560068104 0 0
          0.031216051749346482 0.009446856019712391 0 0.027006851693414657 0 0
          -0.00548994981092882 0.014642939846717284 0 0.009283070887197915 0 0
          0.01897492204284153 0.013738946153508767 0 0.022140309887780443 0 0
          0.03147884220525701 0.01655594507896174 0 0.031809544439304546 0 0
          -0.011909983380737656 0.020422655473963762 0 0.01277151019995986 0 0
          0.010117276797382654 0.020549722757370055 0 0.023095177602441397 0 0
          0.027492945749736597 0.020181274563654625 0 0.03225919906502914 0 0
          -0.022384569960208454 0.035300978117496336 0 0.01805033262654068 0 0
          -0.007454495774083919 0.031014713095909283 0 0.02314400607028375 0 0
          0.01361883084299054 0.02008281677467213 0 0.026895908731443235 0 0
          <InformationKey name="L2_NORM_RANGE" location="vtkDataArray" length="2">
            <Value index="0">
              0.010747258791
            </Value>
            <Value index="1">
              0.047716495486
            </Value>
          </InformationKey>
        </DataArray>
      </CellData>
      <Points>
        <DataArray type="Float32" Name="Points" NumberOfComponents="3" format="ascii" RangeMin="15.594233770003514" RangeMax="48.950587405303104">
          0 -44 0 0 -35.20000076293945 0
          9.600000381469727 -35.20000076293945 0 0 -26.399999618530273 0
          9.600000381469727 -27.261951446533203 0 19.200000762939453 -26.399999618530273 0
          9.600000381469727 -19.710975646972656 0 19.200000762939453 -19.710975646972656 0
          19.200000762939453 -13.21548843383789 0 28.799999237060547 -17.600000381469727 0
          28.799999237060547 -12.289024353027344 0 28.799999237060547 -6.784512042999268 0
          38.400001525878906 -8.800000190734863 0 38.400001525878906 -4.738048076629639 0
          38.400001525878906 -0.2890239953994751 0 48 0 0
          48 3.200000047683716 0 48 6.400000095367432 0
          9.600000381469727 -12.289024353027344 0 0 -17.600000381469727 0
          19.200000762939453 -6.784512042999268 0 28.799999237060547 -1.2154879570007324 0
          38.400001525878906 4.2890238761901855 0 48 9.600000381469727 0
          <InformationKey name="L2_NORM_RANGE" location="vtkDataArray" length="2">
            <Value index="0">
              15.59423377
            </Value>
            <Value index="1">
              48.950587405
            </Value>
          </InformationKey>
        </DataArray>
      </Points>
      <Cells>
        <DataArray type="Int64" Name="connectivity" format="ascii" RangeMin="0" RangeMax="23">
          3 6 18 19 1 4
          6 3 0 2 4 1
          6 8 20 18 4 7
          8 6 2 5 7 4
          8 11 21 20 7 10
          11 8 5 9 10 7
          11 14 22 21 10 13
          14 11 9 12 13 10
          14 17 23 22 13 16
          17 14 12 15 16 13
        </DataArray>
        <DataArray type="Int64" Name="offsets" format="ascii" RangeMin="4" RangeMax="60">
          4 8 12 16 20 24
          28 32 36 40 44 48
          52 56 60
        </DataArray>
        <DataArray type="UInt8" Name="types" format="ascii" RangeMin="9" RangeMax="9">
          9 9 9 9 9 9
          9 9 9 9 9 9
          9 9 9
        </DataArray>
      </Cells>
    </Piece>
  </UnstructuredGrid>
</VTKFile>
