<?xml version="1.0"?>
<VTKFile type="UnstructuredGrid" version="0.1" byte_order="LittleEndian" header_type="UInt32" compressor="vtkZLibDataCompressor">
  <UnstructuredGrid>
    <Piece NumberOfPoints="223" NumberOfCells="380">
      <PointData>
        <DataArray type="Float64" Name="ale_BC" NumberOfComponents="3" format="ascii" RangeMin="0" RangeMax="1">
          0 0 0 0 0 0
          0 0 0 0 0 0
          0 0 0 0 0 0
          0 0 0 0 0 0
          0 0 0 0 0 0
          0 0 0 0 0 0
          0 0 0 0 0 0
          0 0 0 0 0 0
          0 0 0 0 0 0
          0 0 0 0 0 0
          0 0 0 0 0 0
          0 0 0 0 0 0
          0 0 0 0 0 0
          0 0 0 0 0 0
          0 0 0 0 0 0
          0 0 0 0 0 0
          0 0 0 0 0 0
          0 0 0 0 0 0
          0 0 0 0 0 0
          0 0 0 0 0 0
          0 0 0 0 0 0
          0 0 0 0 0 0
          0 0 0 0 0 0
          0 0 0 0 0 0
          0 0 0 0 0 0
          0 0 0 0 0 0
          0 0 0 0 0 0
          0 0 0 0 0 0
          0 0 0 0 0 0
          0 0 0 0 0 0
          0 0 0 0 0 0
          0 0 0 0 0 0
          0 0 0 0 0 0
          0 0 0 0 0 0
          0 0 0 0 0 0
          0 0 0 0 0 0
          0 0 0 0 0 0
          0 0 0 0 0 0
          0 0 0 0 1 0
          0 1 0 0 0 0
          0 1 0 0 1 0
          0 0 0 0 1 0
          0 0 0 0 0 0
          0 1 0 0 0 0
          0 0 0 0 0 0
          0 0 0 0 1 0
          0 1 0 0 0 0
          0 0 0 0 0 0
          0 1 0 0 0 0
          0 1 0 0 0 0
          0 0 0 0 0 0
          0 1 0 0 1 0
          0 0 0 0 0 0
          0 0 0 0 0 0
          0 1 0 0 0 0
          0 0 0 0 1 0
          0 0 0 0 0 0
          0 0 0 0 0 0
          0 0 0 0 1 0
          0 1 0 0 0 0
          0 0 0 0 0 0
          0 0 0 0 0 0
          0 0 0 0 1 0
          0 1 0 0 0 0
          0 0 0 0 0 0
          0 1 0 0 0 0
          0 1 0 0 0 0
          0 0 0 0 0 0
          0 0 0 0 0 0
          0 1 0 0 0 0
          0 1 0 0 0 0
          0 0 0 0 0 0
          0 1 0 0 0 0
          0 0 0 0 1 0
          0 0 0 0 1 0
          0 0 0 0 0 0
          0 1 0 0 0 0
          0 0 0 0 0 0
          0 1 0 0 1 0
          0 0 0 0 0 0
          0 0 0 0 0 0
          0 0 0 0 1 0
          0 0 0 0 1 0
          0 0 0 0 0 0
          0 1 0 0 1 0
          0 0 0 0 1 0
          0 1 0 0 1 0
          0 1 0 0 0 0
          0 0 0 0 0 0
          0 0 0 0 0 0
          0 0 0 0 0 0
          0 0 0 0 0 0
          0 0 0 0 0 0
          0 0 0 0 0 0
          0 0 0 0 0 0
          0 0 0 0 0 0
          0 0 0 0 0 0
          0 0 0 0 0 0
          0 0 0 0 0 0
          0 0 0 0 0 0
          0 0 0 0 0 0
          0 0 0 0 0 0
          0 0 0 0 0 0
          0 0 0 0 0 0
          0 0 0 0 0 0
          0 0 0 0 0 0
          0 0 0 0 0 0
          0 0 0 0 0 0
          0 0 0 0 0 0
          0 0 0 0 0 0
          0 0 0 0 0 0
          0 0 0
          <InformationKey name="L2_NORM_RANGE" location="vtkDataArray" length="2">
            <Value index="0">
              0
            </Value>
            <Value index="1">
              1
            </Value>
          </InformationKey>
        </DataArray>
        <DataArray type="Float64" Name="ale_FIXNO" NumberOfComponents="3" format="ascii" RangeMin="1.4142135623730951" RangeMax="1.4142135623730951">
          1 1 0 1 1 0
          1 1 0 -1 -1 0
          1 1 0 1 1 0
          -1 -1 0 -1 -1 0
          1 1 0 -1 -1 0
          1 1 0 -1 -1 0
          -1 -1 0 1 1 0
          1 1 0 -1 -1 0
          -1 -1 0 -1 -1 0
          -1 -1 0 1 1 0
          -1 -1 0 1 1 0
          -1 -1 0 -1 -1 0
          -1 -1 0 -1 -1 0
          -1 -1 0 -1 -1 0
          1 1 0 -1 -1 0
          -1 -1 0 -1 -1 0
          1 1 0 -1 -1 0
          1 1 0 -1 -1 0
          -1 -1 0 -1 -1 0
          1 1 0 -1 -1 0
          -1 -1 0 1 1 0
          -1 -1 0 -1 -1 0
          -1 -1 0 -1 -1 0
          1 1 0 -1 -1 0
          -1 -1 0 -1 -1 0
          -1 -1 0 -1 -1 0
          -1 -1 0 -1 -1 0
          -1 -1 0 -1 -1 0
          -1 -1 0 -1 -1 0
          1 1 0 -1 -1 0
          -1 -1 0 -1 -1 0
          -1 -1 0 -1 -1 0
          -1 -1 0 -1 -1 0
          -1 -1 0 -1 -1 0
          -1 -1 0 -1 -1 0
          -1 -1 0 -1 -1 0
          -1 -1 0 -1 -1 0
          -1 -1 0 -1 -1 0
          -1 -1 0 1 1 0
          1 1 0 -1 -1 0
          1 1 0 1 1 0
          -1 -1 0 1 1 0
          -1 -1 0 -1 -1 0
          1 1 0 -1 -1 0
          -1 -1 0 -1 -1 0
          -1 -1 0 1 1 0
          1 1 0 -1 -1 0
          -1 -1 0 -1 -1 0
          1 1 0 -1 -1 0
          1 1 0 -1 -1 0
          -1 -1 0 -1 -1 0
          1 1 0 1 1 0
          -1 -1 0 -1 -1 0
          -1 -1 0 -1 -1 0
          1 1 0 -1 -1 0
          -1 -1 0 1 1 0
          -1 -1 0 -1 -1 0
          1 1 0 -1 -1 0
          -1 -1 0 1 1 0
          1 1 0 -1 -1 0
          -1 -1 0 -1 -1 0
          -1 -1 0 1 1 0
          -1 -1 0 1 1 0
          1 1 0 -1 -1 0
          -1 -1 0 -1 -1 0
          1 1 0 -1 -1 0
          1 1 0 -1 -1 0
          -1 -1 0 -1 -1 0
          -1 -1 0 -1 -1 0
          1 1 0 -1 -1 0
          1 1 0 -1 -1 0
          -1 -1 0 -1 -1 0
          1 1 0 -1 -1 0
          -1 -1 0 1 1 0
          -1 -1 0 1 1 0
          -1 -1 0 -1 -1 0
          1 1 0 -1 -1 0
          -1 -1 0 -1 -1 0
          1 1 0 1 1 0
          -1 -1 0 -1 -1 0
          -1 -1 0 -1 -1 0
          -1 -1 0 1 1 0
          -1 -1 0 1 1 0
          -1 -1 0 -1 -1 0
          1 1 0 1 1 0
          -1 -1 0 1 1 0
          1 1 0 1 1 0
          1 1 0 -1 -1 0
          -1 -1 0 -1 -1 0
          -1 -1 0 -1 -1 0
          -1 -1 0 -1 -1 0
          -1 -1 0 -1 -1 0
          -1 -1 0 -1 -1 0
          -1 -1 0 -1 -1 0
          -1 -1 0 -1 -1 0
          1 1 0 -1 -1 0
          -1 -1 0 -1 -1 0
          1 1 0 -1 -1 0
          -1 -1 0 -1 -1 0
          -1 -1 0 -1 -1 0
          -1 -1 0 1 1 0
          -1 -1 0 -1 -1 0
          -1 -1 0 -1 -1 0
          -1 -1 0 -1 -1 0
          -1 -1 0 1 1 0
          -1 -1 0 -1 -1 0
          -1 -1 0 -1 -1 0
          1 1 0 -1 -1 0
          1 1 0 -1 -1 0
          -1 -1 0 1 1 0
          1 1 0 1 1 0
          1 1 0
          <InformationKey name="L2_NORM_RANGE" location="vtkDataArray" length="2">
            <Value index="0">
              1.4142135624
            </Value>
            <Value index="1">
              1.4142135624
            </Value>
          </InformationKey>
        </DataArray>
        <DataArray type="Float64" Name="Density" format="ascii" RangeMin="0.9886891607805134" RangeMax="1.0114397018377568">
          1 1.00000000000019 1 0.9999999999999064 0.9999999999925798 1
          1.0000000000018017 1.0000000000062248 1.0000000001350273 0.9999999999999001 1 0.9999999999862916
          0.9999999999362612 0.999999998676479 1 1.0000000000241098 0.9999999829728937 0.9999999999925252
          0.9999999993127665 0.9999999416958119 1.0000000001904796 1 1.000000000114115 1.0000005078968797
          0.9999999999946229 0.9999999734852788 1.0000000002014076 0.999999999658717 1.0000009271967665 1.0000009599547675
          0.999999998255253 1.000000000149153 1 0.9999999977531892 1.0000000000004077 0.9999999462514917
          0.9999999984736128 0.9999999821582662 0.9999999999869433 1.0000001108925491 1.0000000996488883 1.0000000001715765
          1.0000005428240748 1.0000004372823226 0.9999999982361925 0.9999950060921001 0.9999813270303136 1.000000006452474
          0.9999999385397623 0.9999992741355053 0.9999985035272506 1.0000003938375153 1.0000000615520674 1.0000050219717438
          0.9999980966294024 0.9999999260282223 1.0000515276670168 1.0000222999471462 0.9999999970550753 1.0000437294633484
          1.000000010168282 0.999999803856461 1.0000813699299913 0.9999996705974644 0.9999989785671382 1.00007263241645
          0.9999999541503085 1.000420979218289 0.9999824513168768 1.0002920407219436 1.0006222053504399 1.0001173722707761
          1.0000927877011356 1.0006745047941417 0.9999989390103446 0.9999370189172407 0.9999636710943848 0.9959176177019754
          0.9941208950245009 1.0008265648697687 0.9978633360996753 0.992524477207017 1.0000859212581323 0.9998927413910799
          0.9997721335039589 1.0000003267582287 0.9911747099555994 1.000005476642237 0.999961447473141 1.0008078381404961
          0.9999995059447064 1.0019414590009714 0.9900922016066231 0.9999184251764253 0.9995913591263659 1.0000833646538692
          1.003938697722507 1.0008062503905215 0.9893183108808031 0.9999999460391014 0.9999384970668718 0.9994176417283283
          1.0058093958468726 0.9888505763822901 1.000845208001549 1.000001643322092 1.0001183739474637 0.9999486334656278
          1.0074692279154882 0.9993538237454452 1.0000006795148604 0.9886891607805134 0.9998758032357058 1.0008767239966951
          1.0001532276816236 1.0000884863736026 1.000001237603766 1.0088675772180975 0.9888642173148907 0.9992736584004716
          0.9999748687632999 0.9999992816529611 1.0008087298970505 0.999999914778937 0.9999152710437682 1.0099793370800005
          0.9893400711933965 0.999155514959837 1.0001212685121783 1.000931254379947 1.0107890159447028 0.9998791501110963
          0.9901303505803912 0.9999811421585418 1.0000005332822515 1.0001222183570055 0.9991212433314034 1.0002278141785275
          1.0112711798615588 1.0007712543503944 0.9912333921551922 1.0000011826955957 0.9999025369125543 0.9991616373013616
          1.0114397018377568 1.000069721644739 1.0006754123108126 0.9926127422671718 1.000217120842306 1.0112827733893046
          0.9991161703266995 1.0000009686108262 0.9942559454108509 0.9999055637704503 1.000093008609471 1.000537300143974
          1.0107970084261981 0.9961002390274469 0.9999891854103595 0.9991308948810589 1.000114099535199 1.0003806176613697
          0.9998811749450786 1.0099992575401906 1.0000010632384475 0.9980829071171455 1.000050693509932 0.9991834339155948
          1.0089091674314012 1.0001269707839218 1.0002339346628168 1.007536525784662 1.002159109013552 1.0059216213465403
          1.0041117624516012 0.99921515084755 0.9999190355457617 1.0000800702321357 1.0000026093263212 1.0000077797184692
          0.9992379088213654 0.9998987786451607 0.9994347949135521 0.9997341081983547 0.9999177287462971 0.9995774346899454
          1.0000123942657475 0.9999900767657414 0.999963935407755 0.9998933655482855 1.0000026001735938 0.9999611267593796
          0.9999697053873251 0.999930804100019 1 0.9999808798476758 0.999965292491529 0.9999921057425634
          0.9999179692643522 0.9999467862486803 1.000005958208819 1 1.0002855418436252 0.9999814161828701
          1.000614173811298 1.0003028268974854 1.0002248074160085 0.999934626747042 0.9999769029209454 1
          1.0001993102364952 1.0001545844518194 0.9999654652335663 1.000541934233644 1 1.0002074769643916
          0.9999746862362819 1.0001154122330567 1.0003301929946742 1 1.0001544565918834 1
          1
        </DataArray>
        <DataArray type="Float64" Name="Momentum" NumberOfComponents="3" format="ascii" RangeMin="1.5176773439855556e-20" RangeMax="1.6183034748445604">
          -1.0613645864223703e-19 1.198334287626407e-19 0 7.811395444721285e-12 0 0
          1.2472591345975365e-12 -1.0343752103054173e-12 0 -1.5424431647294403e-11 2.8616758652192147e-11 0
          -3.3873556059564685e-10 0 0 -1.9762098537816175e-11 2.8601674192042016e-14 0
          1.936356844007543e-10 -5.531447803492206e-10 0 2.549985940629933e-10 1.988886049899463e-10 0
          6.319825076708136e-9 0 0 6.100513089026545e-12 -2.4924225609089444e-11 0
          1.1639997484598886e-11 -9.428259501394854e-12 0 -3.364523395387511e-10 2.1549509822147831e-10 0
          -1.9814930617580346e-9 1.7103255695100317e-10 0 -7.19447213354159e-8 0 0
          2.2250943128961958e-11 6.372632550894069e-12 0 1.170519427737719e-9 1.6953202858634436e-9 0
          -0.0000011671386739297447 -3.4903713174039793e-7 0 -3.81786738335276e-10 2.1713083534419965e-10 0
          -1.7906782722159485e-8 -2.412392135149767e-8 0 -0.000003557281324747798 0 0
          2.85451094454565e-9 -1.3248626203316093e-9 0 9.349076055519835e-12 4.053484895488232e-12 0
          4.949968027643587e-9 -6.624190024502062e-9 0 0.0000176719385182909 0.0000015586838853821945 0
          -3.2249007598658e-10 2.15750719348446e-11 0 -0.0000016100139926643997 -0.0000023829898599126675 0
          8.315301308749566e-9 -3.334166212494604e-9 0 1.9052830531045418e-8 -1.7318531251146126e-8 0
          0.000060875919074592245 0 0 0.000027332237212656868 0.000020329543279685885 0
          -3.579379872752665e-8 1.0188279627795814e-7 0 -6.791171051062968e-9 -4.863820233106373e-9 0
          -1.076584722407245e-20 -1.0697241961956202e-20 0 -1.1461734246066907e-7 3.351201773909419e-8 0
          1.7309342596434824e-11 0 0 -0.0000022188716865587775 -0.0000024560475561399993 0
          -3.8509328360585674e-8 -6.867687558177239e-9 0 -0.0000010855472427453575 -2.210784791317149e-7 0
          -7.663168676432731e-10 0 0 -0.00001593243463779259 0.00003508312168023564 0
          0.0000028868410946615122 0.000001105957443541812 0 1.2548138902535114e-8 0 0
          0.000012381454310289984 -0.000012943865292189329 0 0.000014473222348778426 -0.0000071653448516319645 0
          -1.2076386700088539e-8 1.259013899956618e-7 0 -0.0002975085013974037 -0.00021177933083147533 0
          -0.0012708151539835338 0 0 2.462111310365952e-7 7.032531388612067e-9 0
          -9.611230315930668e-7 -4.47486303314641e-7 0 -0.00031363451089536814 0.00003219016774001951 0
          -0.0004346519203795153 0.0003495578334945298 0 0.0000034085132516447525 -0.000034884592534750324 0
          -0.0000026628040828891376 -0.00005053069171778671 0 0.0002598776574665636 0.00011339241043117386 0
          -0.00041194120402648796 0.0005384150375625835 0 -0.000004933807598808612 0.0000035680044687580836 0
          -0.0015821461904535013 0.0010906653177161826 0 -0.0008002496768603794 0.00005079115885154964 0
          -1.4216217981852787e-7 0 0 -0.00180016353794474 0.0010736014911878352 0
          5.577987989901339e-7 4.714018438772005e-7 0 0.000206661093881504 0.00004653652446735716 0
          -0.002620085559291542 0.0025551728097675773 0 -0.000006489915810009961 -0.0000024632590831326806 0
          -0.000015526561455043072 0.00010384340659962105 0 -0.001822561051859497 0.00258162912110222 0
          -0.000001694344095763817 0.000003876522902502664 0 -0.016143113337200143 0.07229462719714659 0
          0.0008223989594663191 -0.000007622255581599005 0 -0.010514707183452376 0.0658935419957859 0
          -0.02082446847914623 0.08164923769449905 0 -0.002786407829484299 0.0045475972862615045 0
          -0.0028643154056036714 0.05989437481723026 0 -0.02058767536383231 0.08556274362286917 0
          -0.00018007239152271063 0.0006099536001991053 0 0.0059755505784699035 0.06036090521506446 0
          0.0019664184660957073 0.0005682188537489944 0 0 1.5934681409654146 0
          0 1.5905933847668943 0 -0.021205571887119683 0.09773687913887709 0
          0 1.5965812903092116 0 0 1.5880391163348306 0
          -0.0013486289916715267 0.004022100127550605 0 0 1.599828338678957 0
          0.015095156081962678 0.06313033685046468 0 0.00044564366334784054 0.000245325780748051 0
          0 1.585879488796747 0 0.000269512963424592 0.00008875014145897206 0
          -0.001808925223807248 -0.0009939368350198475 0 -0.01709303690226219 0.1000814701569424 0
          -0.000008816253103437702 -0.000006918740808506862 0 0 1.603106286757363 0
          0 1.5841474754898603 0 0.003409879613089645 0.0025294913098233957 0
          0.02326080669874234 0.07070569377687036 0 -0.0008014802777093534 0.004203135540741031 0
          0 1.6063018686168486 0 -0.01091388332125507 0.10390416848341964 0
          0 1.5829092503653481 0 -0.0000013249757140432336 0.000005692876745701812 0
          0.0029188564686496135 0.0022149896930024936 0 0.029326856028001093 0.08470415607635719 0
          0 1.6092949855268768 0 0 1.5821608751899687 0
          -0.0025724560168897005 0.1111956501264749 0 0.0002882166231281968 0.000766725157455227 0
          -0.0002244540673954806 0.00528250937869233 0 -0.0026578428453385957 -0.0001666198149737277 0
          0 1.6119507167577336 0 0.027663666517355943 0.08811378255006498 0
          0.0004344667746392182 0.0004685097437846455 0 0 1.581902610234802 0
          0.002925145109053951 0.004551335242658298 0 0.003707047556031838 0.11904338525749553 0
          0.006506411401334344 0 0 0.0013054709991627274 0.003964076102707259 0
          0.00004935703417087957 -0.000021170301931977083 0 0 1.6141880755754143 0
          0 1.5821827006814808 0 0.024509689896514614 0.09640131784787437 0
          -0.0023947094447110393 -0.0005856709677669186 0 -0.000011202327005194162 -0.000005404377847407443 0
          0.011853961459479805 0.11222992641450807 0 -0.000005339697582098188 0 0
          0.0019515449330553142 0.003611321459048543 0 0 1.615966891301593 0
          0 1.5829440668644648 0 0.020219399704630145 0.10821502258226225 0
          0.0016347416936577435 0.006400333775993011 0 0.021694084929847233 0.12510020237880945 0
          0 1.6172623774466155 0 0.001423883321014212 0.0053592031350153755 0
          0 1.5842085138460746 0 -0.00038627625114127023 0.00035522572970454996 0
          0.0002824845748780272 0.0006564418476331242 0 0.002341667005402903 0.0058470501901862985 0
          0.012885593801348759 0.11174735835082213 0 0.013405534437797734 0.002081920333988908 0
          0 1.618033839690657 0 0.0257323731368485 0.10588005647073584 0
          0 1.5859733803133045 0 0.00003491149141111969 -0.00006134292311520869 0
          0.0005542499981440575 0.004621498650323807 0 0.003695355917836574 0.10691346353069286 0
          0 1.6183034748445604 0 0.002040336363890269 0.0033019700590752564 0
          0.028636285651306284 0.09750106453158282 0 0 1.588180340426881 0
          0.01266039542277506 -0.0017269738918212465 0 0 1.6180523893344996 0
          -0.0037690009463010343 0.10871846455215639 0 0.00009344100942099896 0.0008238473736136024 0
          0 1.5908094653786309 0 0.0005270660828390104 0.004629170685703523 0
          0.0033507372552193694 0.0032826095311085687 0 0.0268721789704287 0.08170863926903188 0
          0 1.6172751654166277 0 0 1.5937603350774847 0
          0.0003484575349832975 -0.0006355808187657899 0 -0.011757186089180291 0.10252841292215353 0
          0.006457289406242592 0.005652818878303126 0 0.02150270579038707 0.07092113006157513 0
          -0.0018543200522762816 0.005547116335626558 0 0 1.6159987640369504 0
          -0.000006619838902564742 -0.00004539428379990451 0 0 1.5969326039267229 0
          0.0025864956994094265 0.00137177535535512 0 -0.016887876777339064 0.09505324440036181 0
          0 1.614254619914725 0 0 1.600203105696366 0
          0.014556252674990382 0.06714443987564593 0 0 1.6120583933452122 0
          0 1.6034545267671423 0 0 1.609474546321009 0
          0 1.6065787721751688 0 -0.020611161256491185 0.09027485526198895 0
          -0.001268814575050051 0.0037495638592105044 0 0.0044052794306736 0.06353173166576971 0
          0.00006418107868362982 0.00047024958285516187 0 0.0001748586988745818 0.0009263766664696158 0
          -0.023251475097530436 0.08704421017509681 0 -0.004420282811547812 0.06076022894363468 0
          -0.02008485650637578 0.07444727470624654 0 -0.011780142614359041 0.06339256410306651 0
          -0.0017066593689753565 0.003390663034522383 0 -0.017113504132187818 0.06803670794310103 0
          -0.00030097374899452575 0.00030712434002486003 0 -0.0006228716554787958 -0.000054598626581939553 0
          -0.0018100075023196607 0.0018731182292259518 0 -0.003258955744511524 0.0038504989838829017 0
          0.00010982324025411602 0 0 -0.003880920456865471 -0.0005181396695000154 0
          -0.002131959124822323 -0.0005108680863953664 0 -0.0020693384574440895 0.002314920970224926 0
          1 0 0 -0.0018259782163497088 0.001036937721437525 0
          -0.001972356412797508 0.0009683060055762796 0 -0.0003562909098932135 0.0010945587008176223 0
          -0.0025173309873696833 0.0015200338785878228 0 -0.002720833080106457 0.0005407707007026907 0
          0.00016411325948689746 -0.00010875076506160962 0 1 0 0
          0.01562255236442948 -0.00907291946756758 0 -0.0015768245582966493 0.0020978435226330795 0
          0.030207403675118764 0.0020355441834291285 0 0.01582811672577073 -0.006619015996594389 0
          0.013060726010879582 0.008217865976613671 0 -0.004409273089136116 0.0005361883052662714 0
          -0.0018243109246738056 -0.00038521859747305134 0 1 0 0
          0.008161799077686873 -0.005395057989955202 0 0.006269875856815391 -0.00602566245886475 0
          -0.0019344753084911913 0.001115459463356081 0 0.02641912534624174 0.0027274654728033794 0
          1 0 0 0.014104655160917894 0.003820038297810489 0
          -0.0014421269907390463 0 0 0.004696394837610249 -0.001279361454134492 0
          0.013439237182195047 -0.0022270333271994748 0 1 0 0
          0.011400854158331596 0 0 1 0 0
          1 0 0
          <InformationKey name="L2_NORM_RANGE" location="vtkDataArray" length="2">
            <Value index="0">
              1.517677344e-20
            </Value>
            <Value index="1">
              1.6183034748
            </Value>
          </InformationKey>
        </DataArray>
        <DataArray type="Float64" Name="Energy" format="ascii" RangeMin="3663.580527975506" RangeMax="3782.7024372660794">
          3722.83 3722.8300000009954 3722.830000000336 3722.82999999951 3722.8299999611413 3722.8299999981195
          3722.830000009436 3722.830000032598 3722.830000707118 3722.829999999477 3722.830000001868 3722.8299999282112
          3722.8299996662076 3722.8299930689086 3722.8300000018726 3722.83000012626 3722.8299108316874 3722.8299999608553
          3722.8299964010494 3722.8296946702644 3722.830000997512 3722.830000001174 3722.830000597601 3722.832659775455
          3722.8299999718406 3722.829861146402 3722.830001054741 3722.829998212738 3722.8348555397156 3722.835027129
          3722.8299908630333 3722.83000078109 3722.83 3722.8299882337783 3722.8300000021354 3722.8297185271376
          3722.829992006557 3722.8299065656056 3722.8299999316246 3722.830580740285 3722.830521853369 3722.830000898522
          3722.8328426679404 3722.832289973719 3722.8299907632017 3722.8038466633984 3722.7322081421153 3722.8300337904398
          3722.8296781376507 3722.826199552319 3722.822166447146 3722.83206243396 3722.830322207361 3722.856298688528
          3722.820037574053 3722.8296126207474 3723.099768863031 3722.9467448046903 3722.8299845778492 3723.0589928501527
          3722.8300532495987 3722.828973065337 3723.2560649133397 3722.8282749487007 3722.8246460104547 3723.2102377083684
          3722.8297598962913 3725.0875604474463 3722.7381124110248 3724.412115762457 3726.1431014663126 3723.444532328376
          3723.3664407948822 3726.4144850057323 3722.824448564807 3722.552224576509 3722.6398370649554 3701.3326222271503
          3691.943404943437 3727.214619054159 3711.5064144571807 3683.6052283210774 3723.279822217683 3722.1260205672543
          3721.689790423587 3722.83171310365 3676.5577161499236 3722.8586797412063 3722.628092014961 3727.115774761678
          3722.827412678728 3732.854565207453 3670.9066910513243 3722.4029589052016 3720.7462040125592 3723.266429065862
          3743.3209971033243 3727.1086117309633 3666.8676978302233 3722.8297174202758 3722.508108580594 3719.8422508710437
          3753.130740664417 3664.4257035684764 3727.3162440203205 3722.8386118921812 3723.449763726449 3722.560982474877
          3761.8402097271505 3719.5057699803774 3722.833562125543 3663.580527975506 3722.179982630037 3727.486494688578
          3723.6359912158764 3723.2932398515586 3722.8364811148926 3769.1820958815247 3664.49181626195 3719.0881525484474
          3722.6983832655314 3722.8262381025625 3727.1275733435273 3722.829553709919 3722.386592850634 3775.022380555532
          3666.9713721936246 3718.4750221973263 3723.4649586773926 3727.778760517458 3779.277690610856 3722.1975822510326
          3671.0932923397286 3722.73125023752 3722.8327987911157 3723.470014191844 3718.296312569009 3724.029746969038
          3781.8142639412126 3726.9317789451156 3676.850056406495 3722.836193532339 3722.3199689825356 3718.503709256439
          3782.7024372660794 3723.195053473243 3726.4284937315842 3684.0524323776394 3723.970695700969 3781.8799094045157
          3718.2666586893115 3722.83507862614 3692.637660829277 3722.33579730429 3723.3170593940977 3725.699620119533
          3779.3294875500033 3702.2794430855365 3722.7733717174406 3718.339989457638 3723.429728706945 3724.8761744061626
          3722.2081648833605 3775.1394794080566 3722.8355679287192 3712.65154306418 3723.095435440637 3718.611405475645
          3769.414166688531 3723.3523157774257 3724.109699519259 3762.20714126844 3733.998750953314 3753.7312209410866
          3744.23629149437 3718.776680637593 3722.4062825997753 3723.3037848605627 3722.8436685886572 3722.870710980229
          3718.8975389728466 3722.3519131017933 3719.9233277368253 3721.49004565856 3722.399411845707 3720.669975846073
          3722.8949197773463 3722.778032374862 3722.6411069076335 3722.2718672987885 3722.843616615392 3722.626410730479
          3722.6713256672506 3722.4678060378105 3723.33 3722.7298676066002 3722.6482836721616 3722.7886545180513
          3722.400570515591 3722.5513798024936 3722.8612015500894 3723.33 3724.3305611578558 3722.7326715862146
          3726.067518615413 3724.4209318395037 3724.01199851792 3722.4875986762 3722.709035769502 3723.33
          3723.8763479646786 3723.641638723386 3722.6491261902634 3725.6861010895777 3723.33 3723.9211573960665
          3722.6974305268714 3723.4370420383625 3724.566911385726 3723.33 3723.6421514548188 3723.33
          3723.33
        </DataArray>
        <DataArray type="Float64" Name="ALEdispl" NumberOfComponents="3" format="ascii" RangeMin="0" RangeMax="0.00025448677655480646">
          0 0 0 0 0 0
          0 0 0 0 0.000004052593724856136 0
          0 0 0 0 0 0
          0 0.000008385741630543354 0 0 0.000009483345800234691 0
          0 0 0 0 0.000006323389091876685 0
          0 0 0 0 0.00001460236085014946 0
          0 0.000023056755456918448 0 0 0 0
          0 0 0 0 0.00003195787027931059 0
          0 0.000029895730063553656 0 0 0.000009235415113498978 0
          0 0.00004498475279454182 0 0 0 0
          0 0.00004882583121344642 0 0 0 0
          0 0.00002980695574072667 0 0 0.000032515674494608444 0
          0 0.000003914047526012772 0 0 0.00006219684521723678 0
          0 0.000008109514806630498 0 0 0.00008164811025264278 0
          0 0 0 0 0.00006869670053796398 0
          0 0.00005331474832654251 0 0 0.00008223863585165752 0
          0 0 0 0 0.00002541536261480102 0
          0 0 0 0 0.00009817734700943114 0
          0 0.00010553286779877837 0 0 0.00011479961467041259 0
          0 0 0 0 0.00010510649979387194 0
          0 0.00014223631188609446 0 0 0 0
          0 0.000137893415376483 0 0 0.0001493597490213588 0
          0 0.00008129030445090554 0 0 0.00003767935290245402 0
          0 0 0 0 0.00011609200046994637 0
          0 0.00014658246098557195 0 0 0.00018033168055535842 0
          0 0.0001786618562582717 0 0 0.00013852187029317624 0
          0 0.00018160485209727187 0 0 0.00007904978389860714 0
          0 0.00017766665526723456 0 0 0.0000441654976558172 0
          0 0.00020764601575826033 0 0 0.00020680406145066882 0
          0 0 0 0 0.00021146048303798386 0
          0 0.00011271831441431254 0 0 0.0001802766458847027 0
          0 0.00021035772671448624 0 0 0.00014739948604573403 0
          0 0.0002086522237650681 0 0 0.00020510502357335314 0
          0 0.00007541485012955727 0 0 0.00023328251176751546 0
          0 0.0002084657920686828 0 0 0.00023350059664319723 0
          0 0.0002329083616156261 0 0 0.0002078796314956155 0
          0 0.0002336054354952983 0 0 0.00023231432455805964 0
          0 0.00016889347917605155 0 0 0.00023360170827599005 0
          0 0.00020812332456202653 0 0 0.00025448677655480636 0
          0 0.00025448677655480646 0 0 0.00023173287906823044 0
          0 0.00025448677655480636 0 0 0.00025448677655480636 0
          0 0.00020198597456255602 0 0 0.00025448677655480636 0
          0 0.00023347630851519314 0 0 0.00018243318059430768 0
          0 0.00025448677655480636 0 0 0.0001195256068930506 0
          0 0.00004308093756866558 0 0 0.00023095835071109766 0
          0 0.00014453572634247385 0 0 0.00025448677655480636 0
          0 0.00025448677655480636 0 0 0.0002111250474768113 0
          0 0.00023321541862764632 0 0 0.0002000485708316946 0
          0 0.0002544867765548064 0 0 0.00023013130107614726 0
          0 0.00025448677655480636 0 0 0.00010701440237802004 0
          0 0.00020651629372841256 0 0 0.00023293867240125788 0
          0 0.00025448677655480636 0 0 0.0002544867765548063 0
          0 0.00022906240945130198 0 0 0.00016197811115696304 0
          0 0.0002016586834049361 0 0 0.00007913909238102734 0
          0 0.00025448677655480636 0 0 0.00023243088793462155 0
          0 0.000179176653993198 0 0 0.00025448677655480636 0
          0 0.00020548206813594016 0 0 0.00022795780558473888 0
          0 0 0 0 0.00019482440703328416 0
          0 0.00006540783084590483 0 0 0.0002544867765548063 0
          0 0.0002544867765548063 0 0 0.00023177781081665117 0
          0 0.00011742007474044912 0 0 0.00013664371414725412 0
          0 0.00022643878270372234 0 0 0 0
          0 0.0002036029085675147 0 0 0.0002544867765548063 0
          0 0.00025448677655480646 0 0 0.00023099831755178172 0
          0 0.00019568857714231036 0 0 0.00022495367384210387 0
          0 0.00025448677655480636 0 0 0.0002064928671667126 0
          0 0.0002544867765548063 0 0 0.00015894633854965072 0
          0 0.00017163642369568698 0 0 0.00019647517170690932 0
          0 0.00023019063965504528 0 0 0.00003509620921990658 0
          0 0.00025448677655480636 0 0 0.00022323117336848857 0