<?xml version="1.0"?>
<VTKFile type="UnstructuredGrid" version="0.1" byte_order="LittleEndian" header_type="UInt32" compressor="vtkZLibDataCompressor">
  <UnstructuredGrid>
    <Piece NumberOfPoints="223" NumberOfCells="380">
      <PointData>
        <DataArray type="Float64" Name="ale_BC" NumberOfComponents="3" format="ascii" RangeMin="0" RangeMax="1">
          0 0 0 0 0 0
          0 0 0 0 0 0
          0 0 0 0 0 0
          0 0 0 0 0 0
          0 0 0 0 0 0
          0 0 0 0 0 0
          0 0 0 0 0 0
          0 0 0 0 0 0
          0 0 0 0 0 0
          0 0 0 0 0 0
          0 0 0 0 0 0
          0 0 0 0 0 0
          0 0 0 0 0 0
          0 0 0 0 0 0
          0 0 0 0 0 0
          0 0 0 0 0 0
          0 0 0 0 0 0
          0 0 0 0 0 0
          0 0 0 0 0 0
          0 0 0 0 0 0
          0 0 0 0 0 0
          0 0 0 0 0 0
          0 0 0 0 0 0
          0 0 0 0 0 0
          0 0 0 0 0 0
          0 0 0 0 0 0
          0 0 0 0 0 0
          0 0 0 0 0 0
          0 0 0 0 0 0
          0 0 0 0 0 0
          0 0 0 0 0 0
          0 0 0 0 0 0
          0 0 0 0 0 0
          0 0 0 0 0 0
          0 0 0 0 0 0
          0 0 0 0 0 0
          0 0 0 0 0 0
          0 0 0 0 0 0
          0 0 0 0 1 0
          0 1 0 0 0 0
          0 1 0 0 1 0
          0 0 0 0 1 0
          0 0 0 0 0 0
          0 1 0 0 0 0
          0 0 0 0 0 0
          0 0 0 0 1 0
          0 1 0 0 0 0
          0 0 0 0 0 0
          0 1 0 0 0 0
          0 1 0 0 0 0
          0 0 0 0 0 0
          0 1 0 0 1 0
          0 0 0 0 0 0
          0 0 0 0 0 0
          0 1 0 0 0 0
          0 0 0 0 1 0
          0 0 0 0 0 0
          0 0 0 0 0 0
          0 0 0 0 1 0
          0 1 0 0 0 0
          0 0 0 0 0 0
          0 0 0 0 0 0
          0 0 0 0 1 0
          0 1 0 0 0 0
          0 0 0 0 0 0
          0 1 0 0 0 0
          0 1 0 0 0 0
          0 0 0 0 0 0
          0 0 0 0 0 0
          0 1 0 0 0 0
          0 1 0 0 0 0
          0 0 0 0 0 0
          0 1 0 0 0 0
          0 0 0 0 1 0
          0 0 0 0 1 0
          0 0 0 0 0 0
          0 1 0 0 0 0
          0 0 0 0 0 0
          0 1 0 0 1 0
          0 0 0 0 0 0
          0 0 0 0 0 0
          0 0 0 0 1 0
          0 0 0 0 1 0
          0 0 0 0 0 0
          0 1 0 0 1 0
          0 0 0 0 1 0
          0 1 0 0 1 0
          0 1 0 0 0 0
          0 0 0 0 0 0
          0 0 0 0 0 0
          0 0 0 0 0 0
          0 0 0 0 0 0
          0 0 0 0 0 0
          0 0 0 0 0 0
          0 0 0 0 0 0
          0 0 0 0 0 0
          0 0 0 0 0 0
          0 0 0 0 0 0
          0 0 0 0 0 0
          0 0 0 0 0 0
          0 0 0 0 0 0
          0 0 0 0 0 0
          0 0 0 0 0 0
          0 0 0 0 0 0
          0 0 0 0 0 0
          0 0 0 0 0 0
          0 0 0 0 0 0
          0 0 0 0 0 0
          0 0 0 0 0 0
          0 0 0 0 0 0
          0 0 0 0 0 0
          0 0 0
          <InformationKey name="L2_NORM_RANGE" location="vtkDataArray" length="2">
            <Value index="0">
              0
            </Value>
            <Value index="1">
              1
            </Value>
          </InformationKey>
        </DataArray>
        <DataArray type="Float64" Name="ale_FIXNO" NumberOfComponents="3" format="ascii" RangeMin="1.4142135623730951" RangeMax="1.4142135623730951">
          1 1 0 1 1 0
          1 1 0 -1 -1 0
          1 1 0 1 1 0
          -1 -1 0 -1 -1 0
          1 1 0 -1 -1 0
          1 1 0 -1 -1 0
          -1 -1 0 1 1 0
          1 1 0 -1 -1 0
          -1 -1 0 -1 -1 0
          -1 -1 0 1 1 0
          -1 -1 0 1 1 0
          -1 -1 0 -1 -1 0
          -1 -1 0 -1 -1 0
          -1 -1 0 -1 -1 0
          1 1 0 -1 -1 0
          -1 -1 0 -1 -1 0
          1 1 0 -1 -1 0
          1 1 0 -1 -1 0
          -1 -1 0 -1 -1 0
          1 1 0 -1 -1 0
          -1 -1 0 1 1 0
          -1 -1 0 -1 -1 0
          -1 -1 0 -1 -1 0
          1 1 0 -1 -1 0
          -1 -1 0 -1 -1 0
          -1 -1 0 -1 -1 0
          -1 -1 0 -1 -1 0
          -1 -1 0 -1 -1 0
          -1 -1 0 -1 -1 0
          1 1 0 -1 -1 0
          -1 -1 0 -1 -1 0
          -1 -1 0 -1 -1 0
          -1 -1 0 -1 -1 0
          -1 -1 0 -1 -1 0
          -1 -1 0 -1 -1 0
          -1 -1 0 -1 -1 0
          -1 -1 0 -1 -1 0
          -1 -1 0 -1 -1 0
          -1 -1 0 1 1 0
          1 1 0 -1 -1 0
          1 1 0 1 1 0
          -1 -1 0 1 1 0
          -1 -1 0 -1 -1 0
          1 1 0 -1 -1 0
          -1 -1 0 -1 -1 0
          -1 -1 0 1 1 0
          1 1 0 -1 -1 0
          -1 -1 0 -1 -1 0
          1 1 0 -1 -1 0
          1 1 0 -1 -1 0
          -1 -1 0 -1 -1 0
          1 1 0 1 1 0
          -1 -1 0 -1 -1 0
          -1 -1 0 -1 -1 0
          1 1 0 -1 -1 0
          -1 -1 0 1 1 0
          -1 -1 0 -1 -1 0
          1 1 0 -1 -1 0
          -1 -1 0 1 1 0
          1 1 0 -1 -1 0
          -1 -1 0 -1 -1 0
          -1 -1 0 1 1 0
          -1 -1 0 1 1 0
          1 1 0 -1 -1 0
          -1 -1 0 -1 -1 0
          1 1 0 -1 -1 0
          1 1 0 -1 -1 0
          -1 -1 0 -1 -1 0
          -1 -1 0 -1 -1 0
          1 1 0 -1 -1 0
          1 1 0 -1 -1 0
          -1 -1 0 -1 -1 0
          1 1 0 -1 -1 0
          -1 -1 0 1 1 0
          -1 -1 0 1 1 0
          -1 -1 0 -1 -1 0
          1 1 0 -1 -1 0
          -1 -1 0 -1 -1 0
          1 1 0 1 1 0
          -1 -1 0 -1 -1 0
          -1 -1 0 -1 -1 0
          -1 -1 0 1 1 0
          -1 -1 0 1 1 0
          -1 -1 0 -1 -1 0
          1 1 0 1 1 0
          -1 -1 0 1 1 0
          1 1 0 1 1 0
          1 1 0 -1 -1 0
          -1 -1 0 -1 -1 0
          -1 -1 0 -1 -1 0
          -1 -1 0 -1 -1 0
          -1 -1 0 -1 -1 0
          -1 -1 0 -1 -1 0
          -1 -1 0 -1 -1 0
          -1 -1 0 -1 -1 0
          1 1 0 -1 -1 0
          -1 -1 0 -1 -1 0
          1 1 0 -1 -1 0
          -1 -1 0 -1 -1 0
          -1 -1 0 -1 -1 0
          -1 -1 0 1 1 0
          -1 -1 0 -1 -1 0
          -1 -1 0 -1 -1 0
          -1 -1 0 -1 -1 0
          -1 -1 0 1 1 0
          -1 -1 0 -1 -1 0
          -1 -1 0 -1 -1 0
          1 1 0 -1 -1 0
          1 1 0 -1 -1 0
          -1 -1 0 1 1 0
          1 1 0 1 1 0
          1 1 0
          <InformationKey name="L2_NORM_RANGE" location="vtkDataArray" length="2">
            <Value index="0">
              1.4142135624
            </Value>
            <Value index="1">
              1.4142135624
            </Value>
          </InformationKey>
        </DataArray>
        <DataArray type="Float64" Name="Density" format="ascii" RangeMin="0.9829049284226571" RangeMax="1.0174508090526613">
          1 0.9999999999996878 1 0.999999999996401 0.9999999999578096 1
          1.0000000000384281 1.000000000072033 1.0000000010568217 0.9999999999945911 1 0.9999999999225437
          0.9999999992971589 0.9999999883199421 1 1.000000000216078 0.9999999636208461 0.9999999999614868
          0.999999994091377 0.9999999489366167 1.0000000015762016 1 1.0000000008647725 1.0000011785232752
          0.9999999999706086 0.99999996268186 1.0000000016046025 0.9999999928298666 1.0000017741924456 1.000001933137185
          0.9999999841412867 1.000000001952623 1 0.9999999806312154 0.9999999999971765 0.9999999444609983
          1.0000000022132365 1.000000038237918 0.9999999999426018 1.0000010159729382 0.9999998792231763 1.0000000011651544
          0.9999993211516427 0.9999994124143069 0.9999999899039499 0.9999874847878665 0.999959061961673 0.9999999822381718
          1.0000000555576407 1.0000014594519817 1.0000034200146275 0.9999995247495904 1.0000000488853864 1.000007907124771
          1.0000039932750335 0.99999994433303 1.0000465262955263 1.0000246090236193 0.9999999744632311 1.000012002903521
          0.9999999272102241 0.999998286273862 1.0000165080842875 1.0000003010418101 1.0000022958865113 1.0000589467603616
          0.9999999812915549 0.9990121561343203 0.9999930186335344 0.9994634022416415 0.9986751818720446 1.0000211409928392
          0.9998076095902523 0.9983529287250266 1.0000047976896929 1.0002006299014539 0.9999806842442804 0.993944998505127
          0.9912325136581527 0.9980411518577637 0.9968729827019831 0.9888043428379315 1.000061927446052 0.9999127357394569
          1.0005776156356905 0.9999961523196285 0.9867385393261355 1.0000062017604159 0.9999175573800637 0.9978531946034581
          1.000000424035084 1.0029833407010262 0.9850761589231313 0.999968638529931 1.0009366820731338 1.0000541822438413
          1.0059710412345497 0.9977397486454793 0.9838605415433054 0.9999998980322468 0.999976420405734 1.001329276615792
          1.008765312989914 0.9831356509326022 0.9976276829886964 1.000012117014836 0.9999936414941542 0.9998898745844419
          1.0112944679160825 1.0015512956250037 0.9999962615863548 0.9829049284226571 0.9999298164238998 0.9975001296441477
          1.0003778009026953 1.000043559207626 1.0000025807237782 1.01344417284398 0.9831722317405129 1.001810212199029
          0.999941461535414 1.0000005966225956 0.9976773286995406 0.9999999137742628 0.999956891765794 1.0151537274441025
          0.9839340725743394 1.0020978619451855 0.9999710071205598 0.9976045746512622 1.0164036386044029 0.999998218374815
          0.9851725449698334 0.9999695877668812 0.9999936242380533 0.9999625008795252 1.0022510480492648 1.0005591813800796
          1.0171811960003945 0.9980258559339872 0.9868309594308993 1.00000229199447 0.9999509115776295 1.002246964594425
          1.0174508090526613 1.0000259651098131 0.9982781060697593 0.9889225586817507 1.000531801251145 1.0171947425635046
          1.0023060182813237 0.9999959655699373 0.9913749652090563 0.9999409367022786 1.0000268758058861 0.9986859410371287
          1.016445122332257 0.9941259801914852 0.9999731106860613 1.0021660639731886 1.0002990786913164 0.9990367836259015
          0.9999564145261477 1.0152004761068643 1.0000042564442795 0.9970884769187801 1.0000281580538122 1.0020047960188767
          1.0134884715879493 1.000148798273473 0.9993685164045905 1.01136909797355 1.003201330250691 1.0089105960855023
          1.0061556527143198 1.0018371993215787 0.9999478286752214 0.9997972805004111 0.9999992636997779 0.9999830747061096
          1.0015954409533807 1.000173244524211 1.0012314081664906 1.0005485123855806 0.9999394117647634 1.0009040770954027
          0.9999956883725519 0.9999767227683201 0.9999453117904176 0.9999771938329138 1.0000052849820378 0.9999268639439703
          0.999993744101074 0.9999399315266079 1 0.9999585872124647 0.9999817900233927 0.9999806510651936
          0.999929566612629 0.99993870620348 1.0000088702378496 1 1.000696668374658 0.9999564730162543
          1.0014787509747884 1.0007804466906938 1.0005685088473566 0.9998865761998244 0.9999566533774121 1
          1.0004858498208387 1.0004172393503585 0.9999339054949943 1.0013181161339453 1 1.0005149825254942
          0.9999422770000203 1.0002872571585153 1.000804852774854 1 1.0003774024590917 1
          1
        </DataArray>
        <DataArray type="Float64" Name="Momentum" NumberOfComponents="3" format="ascii" RangeMin="2.983941881035882e-11" RangeMax="1.627920882267598">
          2.226475512504964e-11 -2.0295555596609345e-11 0 -2.983941881035882e-11 0 0
          2.9884418205531986e-11 -4.122114907483817e-12 0 -2.828413261962065e-10 2.344727088683318e-10 0
          -1.846246590197765e-9 0 0 -2.0409348554669714e-10 -1.0618276421565543e-11 0
          3.099071910558106e-9 -4.266812019300038e-9 0 3.226893205669181e-9 2.012957163859263e-9 0
          4.878602226267346e-8 0 0 -2.0335106294950468e-10 -1.165759436632358e-10 0
          -2.2426457653222336e-11 4.9470652239232575e-11 0 -1.7345292735632071e-9 8.819544800541732e-10 0
          -2.4209126181569214e-8 -2.064501168861369e-9 0 -6.393180513841135e-7 0 0
          -9.545825962518274e-11 -8.70531167469275e-12 0 9.36424759822473e-9 1.4038736505483259e-8 0
          -0.0000024442969338050924 -9.301622146981994e-7 0 -2.0100789280699487e-9 1.2210239182238297e-9 0
          -1.4608102797737865e-7 -2.1408185986806e-7 0 -0.000004665082956002326 0 0
          2.5619949637607625e-8 -6.799963364561286e-9 0 -3.2187418260721206e-11 -3.4375204074944676e-11 0
          3.759058035273069e-8 -5.03462009909492e-8 0 0.00004201353512236585 0.0000070153713685928054 0
          -1.8886404854352908e-9 1.4485461234821892e-10 0 -0.0000019224237290420315 -0.000003850914812496316 0
          6.509984798595091e-8 -2.6711692242943673e-8 0 -1.2585956187309968e-7 -2.301121441843011e-7 0
          0.0001165233471400244 0 0 0.000056431742060887526 0.00004529151114090755 0
          -3.646036917691558e-7 8.540381211288275e-7 0 -1.5729889806744636e-8 -4.2639495471398026e-8 0
          7.394352453592393e-11 6.718144453488957e-11 0 -9.830926696350205e-7 3.0616107756328784e-7 0
          -1.6644413504741566e-10 0 0 -0.000002676140126916678 -0.000006645313332413597 0
          2.71901173482577e-7 1.6907784619814784e-7 0 0.000004451593019934335 -3.264044953042997e-7 0
          -3.334409448288053e-9 0 0 0.000007651851298981212 0.00007275205671432746 0
          -0.000009192286762829068 -0.000002188539101678021 0 9.377974805371041e-8 0 0
          -0.00003410068465150778 0.000020139009397493703 0 -0.00004173419776190736 0.000019904628531223376 0
          1.9658947069274762e-7 0.000001197647416302126 0 -0.000728720191958636 -0.00048691617407546227 0
          -0.002882138025286429 0 0 -0.000001083314056015085 -2.397002656864462e-7 0
          0.000008686286439645836 -5.643430888401341e-7 0 -0.00008725323938791841 -0.000013980719880481789 0
          -0.00013071111261572113 0.00006227409841564474 0 -0.000003855962937483304 0.000057831226834681385 0
          -0.000014369204157211104 -0.000027494386485278695 0 0.00039170086700503117 0.0001871977519530844 0
          -0.0001080877433658634 0.00012910600404146246 0 -0.000005497287535518169 0.000004844562104717237 0
          0.0003543753830804894 0.0023840307871584804 0 -0.00010268015864322086 0.0020801644757438035 0
          -0.0000012280385640073875 0 0 -0.00097105557853408 0.00697544199242096 0
          -0.0000034810104955295953 4.328250361473196e-7 0 0.00011782666866289001 2.9645825296580857e-7 0
          -0.001962644888907397 0.008439925248515138 0 0.00003176079343595449 0.000015295750638123746 0
          0.0003170668044190158 0.004492497241687143 0 0.00001248453650534434 0.0026549864337781447 0
          -8.874092936388311e-7 0.000003860867100370605 0 -0.0690368105449168 0.1878200350922355 0
          0.0007848892573324351 0.002997017935413467 0 -0.04524026755664469 0.16108084526884506 0
          -0.08981569606400702 0.21587852935727744 0 -0.0025266254435594563 0.011246602685884684 0
          -0.015840520081112405 0.14497361292201794 0 -0.08477716944269748 0.24306006537671582 0
          -0.00008535436394968057 0.00025303095543900066 0 0.01695818840147982 0.1438945506969129 0
          0.0019269638026148436 0.0031579925794481207 0 0 1.5903115949148439 0
          0 1.5859716202586371 0 -0.09116726473293608 0.27794989276614623 0
          0 1.5949963684435493 0 0 1.582086547930048 0
          -0.0005010438049127714 0.004312416868571162 0 0 1.5998599720719622 0
          0.04915841509446091 0.15465242470544777 0 0.0001603063312164266 0.00012923485369140356 0
          0 1.578781263148126 0 0.00035700210406855454 0.00024652177885912914 0
          -0.0038222926992007443 -0.002288415518139095 0 -0.06385319199392647 0.29489428604255635 0
          0.000030221528205051022 0.000029057483610692182 0 0 1.604772938766428 0
          0 1.5761214551768286 0 0.004251578357055777 0.009738156042749907 0
          0.07518967089946169 0.17805780017072667 0 -0.0002850637803485297 0.004698582252498305 0
          0 1.609553258409611 0 -0.04433886337132267 0.30904585637250387 0
          0 1.5741764678616095 0 -0.000004013598875903233 0.0000012158658851862364 0
          0.0017280833408435897 0.00446133790992224 0 0.09677253064498643 0.22096539624589195 0
          0 1.6140240920861006 0 0 1.573016643178174 0
          -0.020501670472188895 0.3226338999902146 0 0.00027564061767107776 0.00009993422427646148 0
          0.00006231229139142569 0.014094102530357162 0 -0.00559182863573069 -0.00042413630170498893 0
          0 1.6180707389432938 0 0.09414149951918573 0.239850931010077 0
          0.00014651219705119422 0.00017404606617868633 0 0 1.5726474872557372 0
          0.002523337972893216 0.007451166015197667 0 0.019499922742571143 0.34087659781383084 0
          0.015983071215181256 0 0 0.00033727683758302417 0.005093772027906303 0
          0.00009701312173633966 -0.000045461671813418824 0 0 1.6215102659569844 0
          0 1.5730751724560104 0 0.08492381647142283 0.2697751587555707 0
          -0.0053439068657541305 -0.0011048740252357343 0 0.00003097432454610115 0.00004739204421663561 0
          0.037840563298663595 0.3195694514195197 0 -0.000006593049308659352 0 0
          0.0011888409477413186 0.0051219544488513204 0 0 1.6242455526245603 0
          0 1.5742941174814749 0 0.07295825483998442 0.3027798450884061 0
          0.002780528624168846 0.01468899354156836 0 0.07452390279169978 0.33780280618810743 0
          0 1.6262454099746437 0 0.00207998044171684 0.014129042714247475 0
          0 1.5762756728125007 0 -0.001212575324057973 -0.00037721339438876627 0
          0.00005826520223091981 0.00013091880608383553 0 0.004779078182549129 0.019338970680053167 0
          0.04001946516377287 0.32310959738066614 0 0.03262851525184913 0.004999053198628968 0
          0 1.6274895014932074 0 0.0903198381952922 0.2817782735364129 0
          0 1.5789291352783077 0 0.00005616616092761577 -0.00013190801204046864 0
          0.00042948429533942034 0.005212727782648334 0 0.013246290517470399 0.318351950098683 0
          0 1.627920882267598 0 0.0019459287616500308 0.005081542497575817 0
          0.0975740073833786 0.25983706530428813 0 0 1.5822756932322632 0
          0.03073974422262064 -0.0035552330489301257 0 0 1.6275111759886933 0
          -0.014092166270370294 0.3257459255061424 0 -0.000006624295051195613 0.00024846578283614835 0
          0 1.58619954268237 0 -0.0002820483887330988 0.004585667538323427 0
          0.0045401691091720205 0.010907217228315119 0 0.09073438484474626 0.2105461766633008 0
          0 1.6263117839224015 0 0 1.5906011655396912 0
          -0.0008068464939998546 -0.0018645611132525831 0 -0.04769520616835536 0.307043598729556 0
          0.0165607946522238 0.013268228370141206 0 0.07474557608969915 0.1792484754310532 0
          -0.0006925754467834111 0.009240037603866028 0 0 1.624320350466039 0
          0.000035659219943219486 0.0000020017464969926336 0 0 1.5953411591031188 0
          0.0020136625242316917 0.003972232460102091 0 -0.06763849167434088 0.28634957975637065 0
          0 1.6215811439293895 0 0 1.600237672030746 0
          0.05136324431901763 0.16222703738839264 0 0 1.6181901470050055 0
          0 1.605121721957574 0 0 1.614256544980183 0
          0 1.6098486367024467 0 -0.07972287160969932 0.26676961905442387 0
          -0.00042981047567310234 0.0038756567760243493 0 0.015544735713196907 0.149907983696594 0
          0.0000926903735800392 0.000048723347772726714 0 -0.00040505398579778704 0.0032836512736170377 0
          -0.09690465943956862 0.24340333566901978 0 -0.016559459004983724 0.14658826570446493 0
          -0.08286384924803422 0.20525284908947863 0 -0.04535041212859023 0.15814943839171006 0
          -0.0003480486079000167 0.0035036428947855212 0 -0.06849567278392055 0.17845248654294157 0
          -0.000004123818075952765 0.006790306661369215 0 -0.0014503926456659794 -0.00007814703027917048 0
          -0.003043872190668906 0.002253479975485141 0 -0.0025586548403052412 0.010075653668273394 0
          0.00022099311066298895 0 0 -0.006787712546001585 0.0017450040450959425 0
          -0.00012160496048803122 -0.00012003390928320027 0 0.00005662202874517152 0.0028426055604373187 0
          1 0 0 -0.0028110511558492412 0.0011911335602941518 0
          -0.0006817830721443229 0.005384695366903013 0 -0.0009263747981219106 0.002485788768083708 0
          -0.00047424336666590646 0.004356963953079615 0 -0.0019339276221634887 0.0035932148393921517 0
          0.00010679731455982552 -0.00008515309419172478 0 1 0 0
          0.03707727957520789 -0.020439537622765343 0 -0.002423189908756284 0.0029904195873712734 0
          0.0711675629989072 0.004989843527691206 0 0.03946568832262758 -0.014919760116066784 0
          0.032545669463735674 0.018256481176203626 0 -0.007006081550537106 0.0011462386782286722 0
          -0.0037024548769412752 -0.0007539597388243861 0 1 0 0
          0.01967139289621246 -0.012960999482736992 0 0.016795964658312477 -0.01353437822390304 0
          -0.003730518354992568 0.002617966743154065 0 0.06273096591319928 0.006528556255900062 0
          1 0 0 0.034410522717892564 0.008578861307095996 0
          -0.0033081377579628436 0 0 0.011647492423591772 -0.003141310383738646 0
          0.032584195268124054 -0.005278298717008819 0 1 0 0
          0.027818360519092453 0 0 1 0 0
          1 0 0
          <InformationKey name="L2_NORM_RANGE" location="vtkDataArray" length="2">
            <Value index="0">
              2.983941881e-11
            </Value>
            <Value index="1">
              1.6279208823
            </Value>
          </InformationKey>
        </DataArray>
        <DataArray type="Float64" Name="Energy" format="ascii" RangeMin="3633.2153755048666" RangeMax="3814.090444512165">
          3722.830000001706 3722.829999998363 3722.8300000042036 3722.829999981153 3722.829999779055 3722.8299999802784
          3722.830000201243 3722.8300003772247 3722.830005534407 3722.8299999716764 3722.829999995126 3722.829999594373
          3722.8299963193076 3722.8299388332425 3722.829999992642 3722.830001131569 3722.8298094886027 3722.829999798313
          3722.829969057339 3722.8297325919925 3722.830008254315 3722.829999999484 3722.830004528668 3722.8361717294442
          3722.8299998460816 3722.8298045733186 3722.8300084030557 3722.8299624509787 3722.8392909714444 3722.8401234871226
          3722.8299169504517 3722.830010225545 3722.8300000081763 3722.829898568538 3722.8299999852134 3722.8297091523577
          3722.830011590616 3722.830200245896 3722.8299996994165 3722.8353205212306 3722.8293674987895 3722.8300061017244
          3722.826445007286 3722.8269229649986 3722.8299471287137 3722.764454008438 3722.6155934459284 3722.8299069831623
          3722.830290938818 3722.83764416861 3722.84791353561 3722.8275113194127 3722.8302560053603 3722.8714060327975
          3722.8509177177143 3722.8297084824076 3723.073212119633 3722.9588480927227 3722.829866267683 3722.8929824524207
          3722.8296188091 3722.821024731353 3722.9161251828036 3722.8315765401835 3722.842233700677 3723.1377210696146
          3722.829902043754 3717.8100255983873 3722.7935920014265 3720.156320593138 3716.07216108772 3722.939795411309
          3721.9447440888043 3714.3993573481835 3722.855131356781 3724.0050983720894 3722.729070139458 3690.7716343936336
          3676.610839379021 3712.800063192106 3706.0739934787252 3663.9442722668136 3723.153102742587 3721.9785128595595
          3725.988346662083 3722.8098494832757 3653.179914755282 3722.862475343582 3722.398186565589 3711.8255947541043
          3722.83222064576 3738.062023207527 3644.5199643606493 3722.666375861972 3727.8896771942236 3723.1125396872562
          3753.7273917180364 3711.241771625164 3638.189626263795 3722.829466022866 3722.7067767574113 3729.9785419869577
          3768.394554686299 3634.416168204075 3710.6692121549063 3722.89345761024 3722.7958951712376 3722.2531907263387
          3781.679789629762 3731.1532020593363 3722.8104212607445 3633.2153755048666 3722.462943429475 3710.0166840732495
          3724.8173264283923 3723.056884126516 3722.8435147233195 3792.9849992969594 3634.6032550615864 3732.5326839627387
          3722.5233903621806 3722.833124495762 3710.924876498249 3722.829548451159 3722.6045652446905 3801.984991030419
          3638.56594147213 3734.0721332145617 3722.6776202438773 3710.5652867089675 3808.57021024364 3722.821837519099
          3645.015113336498 3722.6707310589222 3722.796612441199 3722.6337966217598 3734.88880143574 3725.7750049444276
          3812.667210778033 3712.7246696849743 3653.646689020328 3722.8420025396526 3722.5732022527213 3734.860924422564
          3814.090444512165 3722.9653734800163 3714.0229672750716 3664.549927584974 3725.6241958646197 3812.744705271157
          3735.178281754409 3722.808872540456 3677.343445039608 3722.5208940641 3722.970739786816 3716.1228451805464
          3808.796330179228 3691.7109862986126 3722.6891885847767 3734.4306697139064 3724.401949638697 3717.9341957331208
          3722.6023265270965 3802.2427217987183 3722.8522902583304 3707.199487563441 3722.9772783615467 3733.566285345771
          3793.233416017391 3723.214582739881 3719.6614189098136 3782.0880122853623 3739.2064180626326 3769.1652727041155
          3754.701051396437 3732.6730067465733 3722.556903706823 3721.89888117862 3722.8261440989163 3722.741331862255
          3731.3938204065753 3723.862509405294 3729.449391296293 3725.8366613447874 3722.5127747848674 3727.7145257149546
          3722.807774263519 3722.7080936042767 3722.543509029723 3722.711144871074 3722.8576762044927 3722.4470499941744
          3722.797209452717 3722.5154259276037 3723.33 3722.6130980100834 3722.734903814995 3722.7286580928967
          3722.4612903821044 3722.509130354027 3722.876449754451 3723.33 3726.4913747161063 3722.602008199829
          3730.6258104643475 3726.9304815888836 3725.8192645251834 3722.2357843881337 3722.6029595707814 3723.33
          3725.38079931792 3725.0207576545317 3722.483782170808 3729.7770733075663 3723.33 3725.538551805031
          3722.527681948212 3724.3408924889895 3727.064093955628 3723.33 3724.814599828164 3723.33
          3723.33
        </DataArray>
        <DataArray type="Float64" Name="ALEdispl" NumberOfComponents="3" format="ascii" RangeMin="0" RangeMax="0.0006308242834953165">
          0 0 0 0 0 0
          0 0 0 0 0.000010045608527834147 0
          0 0 0 0 0 0
          0 0.000020786657473046008 0 0 0.000023507409306522486 0
          0 0 0 0 0.000015674478050085035 0
          0 0 0 0 0.00003619647333091111 0
          0 0.00005715330846553803 0 0 0 0
          0 0 0 0 0.00007921747799198807 0
          0 0.00007410582487710963 0 0 0.000022892836321890894 0
          0 0.00011150864038595493 0 0 0 0
          0 0.00012102994272730853 0 0 0 0
          0 0.00007388577022692998 0 0 0.00008060016847677305 0
          0 0.000009702178869918137 0 0 0.0001541741415840628 0
          0 0.00002010194374985776 0 0 0.00020239012551513734 0
          0 0 0 0 0.000170286045829264 0
          0 0.00013215711389067487 0 0 0.00020385392608240912 0
          0 0 0 0 0.00006299984670442277 0
          0 0 0 0 0.0002433629574830092 0
          0 0.0002615958935690837 0 0 0.0002845663953561271 0
          0 0 0 0 0.00026053900843406167 0
          0 0.0003525767458225414 0 0 0 0
          0 0.0003418115319436194 0 0 0.00037023439070181996 0
          0 0.00020150319303256588 0 0 0.00009339994446485043 0
          0 0 0 0 0.00028776997377787214 0
          0 0.00036335002225268745 0 0 0.0004470079141944781 0
          0 0.0004428687375738572 0 0 0.0003433693520704609 0
          0 0.0004501638641285652 0 0 0.0001959493690139109 0
          0 0.0004404018237302235 0 0 0.00010947786282304086 0
          0 0.0005147149525199477 0 0 0.0005126279080376666 0
          0 0 0 0 0.0005241702909120771 0
          0 0.00027940724814790204 0 0 0.0004468714937204803 0
          0 0.0005214367678699067 0 0 0.00036537527187528794 0
          0 0.0005172091506607501 0 0 0.0005084163165117776 0
          0 0.000186939060024752 0 0 0.0005782629468216716 0
          0 0.0005167470219683078 0 0 0.00057880353772115 0
          0 0.0005773354998058365 0 0 0.0005152940414695796 0
          0 0.0005790634132818938 0 0 0.0005758629950011387 0
          0 0.0004186547899683066 0 0 0.0005790541742146175 0
          0 0.0005158981101999577 0 0 0.0006308242834953164 0
          0 0.0006308242834953163 0 0 0.000574421702296352 0
          0 0.0006308242834953163 0 0 0.0006308242834953163 0
          0 0.0005006847876517736 0 0 0.0006308242834953163 0
          0 0.0005787433320745029 0 0 0.0004522171328198317 0
          0 0.0006308242834953163 0 0 0.000296281230594366 0
          0 0.0001067894447875455 0 0 0.0005725017939123112 0
          0 0.0003582765566203409 0 0 0.0006308242834953163 0
          0 0.0006308242834953163 0 0 0.0005233388099982152 0
          0 0.0005780966356975402 0 0 0.0004958823325422894 0
          0 0.0006308242834953165 0 0 0.000570451695276753 0
          0 0.0006308242834953162 0 0 0.0002652683358156943 0
          0 0.0005119145866240241 0 0 0.000577410634474471 0
          0 0.0006308242834953163 0 0 0.0006308242834953164 0
          0 0.000567802116377191 0 0 0.0004015129088269561 0
          0 0.0004998734951642227 0 0 0.0001961707477440574 0
          0 0.0006308242834953164 0 0 0.0005761519334265327 0
          0 0.000444144823179075 0 0 0.0006308242834953163 0
          0 0.0005093509382208489 0 0 0.0005650640136273974 0
          0 0 0 0 0.00048293262478297594 0
          0 0.00016213356382179168 0 0 0.0006308242834953163 0
          0 0.0006308242834953164 0 0 0.0005745330795489833 0
          0 0.0002910620171266866 0 0 0.0003387137604476542 0
          0 0.0005612986450157048 0 0 0 0
          0 0.0005046928593046343 0 0 0.0006308242834953163 0
          0 0.0006308242834953163 0 0 0.0005726008641036166 0
          0 0.0004850747380087572 0 0 0.0005576173428033629 0
          0 0.0006308242834953163 0 0 0.0005118565166362661 0
          0 0.0006308242834953162 0 0 0.0003939977215601763 0
          0 0.0004254540273773818 0 0 0.0004870245562245875 0
          0 0.0005705987843201354 0 0 0.00008699682291657815 0
          0 0.0006308242834953164 0 0 0.0005533475919668015 0
          0 0.0006308242834953164 0 0 0.00022334864568621758 0
          0 0.000496044403025283 0 0 0.0005681605689350763 0