<?xml version="1.0"?>
<VTKFile type="UnstructuredGrid" version="0.1" byte_order="LittleEndian" header_type="UInt32" compressor="vtkZLibDataCompressor">
  <UnstructuredGrid>
    <Piece NumberOfPoints="223" NumberOfCells="380">
      <PointData>
        <DataArray type="Float64" Name="ale_BC" NumberOfComponents="3" format="ascii" RangeMin="0" RangeMax="1">
          0 0 0 0 0 0
          0 0 0 0 0 0
          0 0 0 0 0 0
          0 0 0 0 0 0
          0 0 0 0 0 0
          0 0 0 0 0 0
          0 0 0 0 0 0
          0 0 0 0 0 0
          0 0 0 0 0 0
          0 0 0 0 0 0
          0 0 0 0 0 0
          0 0 0 0 0 0
          0 0 0 0 0 0
          0 0 0 0 0 0
          0 0 0 0 0 0
          0 0 0 0 0 0
          0 0 0 0 0 0
          0 0 0 0 0 0
          0 0 0 0 0 0
          0 0 0 0 0 0
          0 0 0 0 0 0
          0 0 0 0 0 0
          0 0 0 0 0 0
          0 0 0 0 0 0
          0 0 0 0 0 0
          0 0 0 0 0 0
          0 0 0 0 0 0
          0 0 0 0 0 0
          0 0 0 0 0 0
          0 0 0 0 0 0
          0 0 0 0 0 0
          0 0 0 0 0 0
          0 0 0 0 0 0
          0 0 0 0 0 0
          0 0 0 0 0 0
          0 0 0 0 0 0
          0 0 0 0 0 0
          0 0 0 0 0 0
          0 0 0 0 1 0
          0 1 0 0 0 0
          0 1 0 0 1 0
          0 0 0 0 1 0
          0 0 0 0 0 0
          0 1 0 0 0 0
          0 0 0 0 0 0
          0 0 0 0 1 0
          0 1 0 0 0 0
          0 0 0 0 0 0
          0 1 0 0 0 0
          0 1 0 0 0 0
          0 0 0 0 0 0
          0 1 0 0 1 0
          0 0 0 0 0 0
          0 0 0 0 0 0
          0 1 0 0 0 0
          0 0 0 0 1 0
          0 0 0 0 0 0
          0 0 0 0 0 0
          0 0 0 0 1 0
          0 1 0 0 0 0
          0 0 0 0 0 0
          0 0 0 0 0 0
          0 0 0 0 1 0
          0 1 0 0 0 0
          0 0 0 0 0 0
          0 1 0 0 0 0
          0 1 0 0 0 0
          0 0 0 0 0 0
          0 0 0 0 0 0
          0 1 0 0 0 0
          0 1 0 0 0 0
          0 0 0 0 0 0
          0 1 0 0 0 0
          0 0 0 0 1 0
          0 0 0 0 1 0
          0 0 0 0 0 0
          0 1 0 0 0 0
          0 0 0 0 0 0
          0 1 0 0 1 0
          0 0 0 0 0 0
          0 0 0 0 0 0
          0 0 0 0 1 0
          0 0 0 0 1 0
          0 0 0 0 0 0
          0 1 0 0 1 0
          0 0 0 0 1 0
          0 1 0 0 1 0
          0 1 0 0 0 0
          0 0 0 0 0 0
          0 0 0 0 0 0
          0 0 0 0 0 0
          0 0 0 0 0 0
          0 0 0 0 0 0
          0 0 0 0 0 0
          0 0 0 0 0 0
          0 0 0 0 0 0
          0 0 0 0 0 0
          0 0 0 0 0 0
          0 0 0 0 0 0
          0 0 0 0 0 0
          0 0 0 0 0 0
          0 0 0 0 0 0
          0 0 0 0 0 0
          0 0 0 0 0 0
          0 0 0 0 0 0
          0 0 0 0 0 0
          0 0 0 0 0 0
          0 0 0 0 0 0
          0 0 0 0 0 0
          0 0 0 0 0 0
          0 0 0 0 0 0
          0 0 0
          <InformationKey name="L2_NORM_RANGE" location="vtkDataArray" length="2">
            <Value index="0">
              0
            </Value>
            <Value index="1">
              1
            </Value>
          </InformationKey>
        </DataArray>
        <DataArray type="Float64" Name="ale_FIXNO" NumberOfComponents="3" format="ascii" RangeMin="1.4142135623730951" RangeMax="1.4142135623730951">
          1 1 0 1 1 0
          1 1 0 -1 -1 0
          1 1 0 1 1 0
          -1 -1 0 -1 -1 0
          1 1 0 -1 -1 0
          1 1 0 -1 -1 0
          -1 -1 0 1 1 0
          1 1 0 -1 -1 0
          -1 -1 0 -1 -1 0
          -1 -1 0 1 1 0
          -1 -1 0 1 1 0
          -1 -1 0 -1 -1 0
          -1 -1 0 -1 -1 0
          -1 -1 0 -1 -1 0
          1 1 0 -1 -1 0
          -1 -1 0 -1 -1 0
          1 1 0 -1 -1 0
          1 1 0 -1 -1 0
          -1 -1 0 -1 -1 0
          1 1 0 -1 -1 0
          -1 -1 0 1 1 0
          -1 -1 0 -1 -1 0
          -1 -1 0 -1 -1 0
          1 1 0 -1 -1 0
          -1 -1 0 -1 -1 0
          -1 -1 0 -1 -1 0
          -1 -1 0 -1 -1 0
          -1 -1 0 -1 -1 0
          -1 -1 0 -1 -1 0
          1 1 0 -1 -1 0
          -1 -1 0 -1 -1 0
          -1 -1 0 -1 -1 0
          -1 -1 0 -1 -1 0
          -1 -1 0 -1 -1 0
          -1 -1 0 -1 -1 0
          -1 -1 0 -1 -1 0
          -1 -1 0 -1 -1 0
          -1 -1 0 -1 -1 0
          -1 -1 0 1 1 0
          1 1 0 -1 -1 0
          1 1 0 1 1 0
          -1 -1 0 1 1 0
          -1 -1 0 -1 -1 0
          1 1 0 -1 -1 0
          -1 -1 0 -1 -1 0
          -1 -1 0 1 1 0
          1 1 0 -1 -1 0
          -1 -1 0 -1 -1 0
          1 1 0 -1 -1 0
          1 1 0 -1 -1 0
          -1 -1 0 -1 -1 0
          1 1 0 1 1 0
          -1 -1 0 -1 -1 0
          -1 -1 0 -1 -1 0
          1 1 0 -1 -1 0
          -1 -1 0 1 1 0
          -1 -1 0 -1 -1 0
          1 1 0 -1 -1 0
          -1 -1 0 1 1 0
          1 1 0 -1 -1 0
          -1 -1 0 -1 -1 0
          -1 -1 0 1 1 0
          -1 -1 0 1 1 0
          1 1 0 -1 -1 0
          -1 -1 0 -1 -1 0
          1 1 0 -1 -1 0
          1 1 0 -1 -1 0
          -1 -1 0 -1 -1 0
          -1 -1 0 -1 -1 0
          1 1 0 -1 -1 0
          1 1 0 -1 -1 0
          -1 -1 0 -1 -1 0
          1 1 0 -1 -1 0
          -1 -1 0 1 1 0
          -1 -1 0 1 1 0
          -1 -1 0 -1 -1 0
          1 1 0 -1 -1 0
          -1 -1 0 -1 -1 0
          1 1 0 1 1 0
          -1 -1 0 -1 -1 0
          -1 -1 0 -1 -1 0
          -1 -1 0 1 1 0
          -1 -1 0 1 1 0
          -1 -1 0 -1 -1 0
          1 1 0 1 1 0
          -1 -1 0 1 1 0
          1 1 0 1 1 0
          1 1 0 -1 -1 0
          -1 -1 0 -1 -1 0
          -1 -1 0 -1 -1 0
          -1 -1 0 -1 -1 0
          -1 -1 0 -1 -1 0
          -1 -1 0 -1 -1 0
          -1 -1 0 -1 -1 0
          -1 -1 0 -1 -1 0
          1 1 0 -1 -1 0
          -1 -1 0 -1 -1 0
          1 1 0 -1 -1 0
          -1 -1 0 -1 -1 0
          -1 -1 0 -1 -1 0
          -1 -1 0 1 1 0
          -1 -1 0 -1 -1 0
          -1 -1 0 -1 -1 0
          -1 -1 0 -1 -1 0
          -1 -1 0 1 1 0
          -1 -1 0 -1 -1 0
          -1 -1 0 -1 -1 0
          1 1 0 -1 -1 0
          1 1 0 -1 -1 0
          -1 -1 0 1 1 0
          1 1 0 1 1 0
          1 1 0
          <InformationKey name="L2_NORM_RANGE" location="vtkDataArray" length="2">
            <Value index="0">
              1.4142135624
            </Value>
            <Value index="1">
              1.4142135624
            </Value>
          </InformationKey>
        </DataArray>
        <DataArray type="Float64" Name="Density" format="ascii" RangeMin="0.9866166889478952" RangeMax="1.013583442955005">
          1 1.000000000000329 1 0.9999999999992643 0.9999999999814425 1
          1.0000000000087543 1.0000000000205567 1.0000000003685974 0.9999999999991075 1 0.999999999965311
          0.999999999803089 0.9999999962291481 1 1.0000000000669367 0.9999999759062651 0.9999999999816364
          0.9999999980954278 0.9999999332602619 1.0000000005559673 1 1.0000000003116916 1.0000007364809946
          0.9999999999864894 0.9999999665167445 1.0000000005598786 0.9999999977409098 1.0000012674473695 1.0000013284822225
          0.9999999949342824 1.0000000007839833 1 0.9999999936030056 1.0000000000004265 0.9999999372909549
          0.9999999984979012 0.9999999964650456 0.9999999999689926 1.000000343339065 1.0000000709771446 1.0000000004532008
          1.0000003765093448 1.0000002749694634 0.9999999962722015 0.9999925457377551 0.9999732155905889 1.0000000005032639
          0.9999999594569681 0.9999984726853541 0.9999971409124735 1.000000280217583 1.0000000864925678 1.00000655354625
          0.9999963006211359 0.9999999165730259 1.0000687188225572 1.0000293456800662 0.9999999916032284 1.0000536047818211
          0.9999999913002666 1.0000001022807148 1.0000990462287107 0.999999767382824 0.9999998674892068 1.0000956250491548
          0.9999999526101047 0.9999485074032775 0.9999792671524842 1.0000146047777683 0.9999686275398474 1.0001403168846186
          0.9999962462983858 0.999898263290187 0.9999970999847051 1.0000247167600729 0.9999573210647084 0.9952079344769589
          0.9930834385282974 0.9998914462632273 0.9975066442350895 0.9911877949939352 1.0001112641863708 0.999898459961078
          1.0000411847151904 1.0000012567982879 0.9895850952876727 1.0000066524366678 0.9999450724683591 0.9998192179958111
          0.9999996356356391 1.002313672181637 0.9882929263638782 0.9999042259442251 1.0000389582730962 1.000106205532618
          1.0046663415174792 0.9997806619764331 0.9873681157795617 0.9999999192865356 0.9999276462237597 1.0000579700856052
          1.0068712891034235 0.9868095121816105 0.9997686448770401 1.0000012317904985 1.0001360701224418 0.9999267896273972
          1.0088399841855071 1.0000853984240263 1.0000019508383 0.9866166889478952 0.9998519511012658 0.9997409831489877
          1.0002284241882218 1.0001093328719688 1.0000017458651425 1.0105040473868843 0.9868284152526312 1.0001178000967126
          0.9999631065589624 0.9999994637760249 0.9997648481974498 0.9999998991122896 0.9998993659289315 1.0118280673598692
          0.9873993980901923 1.0001375549334457 1.000129990755663 0.9998080956524087 1.012797209060618 0.9998661284647729
          0.9883460438134709 0.9999733414557286 1.0000016686839688 1.0001310102886007 1.0001654793533061 1.0003391035867688
          1.013379146812546 0.9998531795307701 0.9896529084653062 1.000001631252579 0.9998842233899612 1.000187997228854
          1.013583442955005 1.0000841714325501 0.9998690688460241 0.9912849633623617 1.000322958034783 1.0133933228831762
          1.0001815499494535 1.0000029134498627 0.9932215281620114 0.9998855746403021 1.000110987561463 0.9999181377030052
          1.0128109143371784 0.9953906819839021 0.9999814648398668 1.0001419311859263 1.0001737362363372 0.9999311086902956
          0.9998592621090252 1.0118544035158075 1.0000019648017122 0.9977246996240452 1.0000605416695247 1.0001223733876858
          1.0105488122610968 1.0001336810467523 0.9999441325281384 1.00890828716054 1.0025316113538774 1.0069904658228388
          1.0048424877695608 1.0000878525400727 0.9999004946092747 0.9999874428857812 1.000004410191419 1.0000091715513633
          1.0000264704604307 0.9999912272664984 1.0000322090672462 1.0000062744190366 0.9998959026737435 1.0000201115960052
          1.0000147761672666 0.9999854687370804 0.9999516209160375 0.9998753857088953 1.000003636801028 0.9999462486685223
          0.9999688944318472 0.9999119126941276 1 0.9999754491967952 0.9999586716802701 0.9999882528359922
          0.9998938727542992 0.9999302497198972 1.0000076352665432 1 1.00042367239234 0.9999751507938262
          1.0009084279001523 1.0004586499681158 1.0003385711878758 0.9999137888701896 0.9999683810330026 1
          1.0002959467178092 1.0002379886705588 0.9999523572694958 1.0008043329711036 1 1.0003100214005767
          0.9999632105625818 1.0001726006890561 1.0004903818798039 1 1.0002295679035926 1
          1
        </DataArray>
        <DataArray type="Float64" Name="Momentum" NumberOfComponents="3" format="ascii" RangeMin="3.319545353956651e-12" RangeMax="1.6217333795273505">
          2.4766163613596365e-12 -2.210373894982688e-12 0 1.139607563255138e-11 0 0
          6.433982870165011e-12 -3.0479485006846653e-12 0 -6.866331338239774e-11 8.306468903732697e-11 0
          -8.36604970918861e-10 0 0 -6.416997187079317e-11 -6.511430282944866e-13 0
          7.783083663980303e-10 -1.4739696739471252e-9 0 8.883224729616866e-10 5.946842788165069e-10 0
          1.7194693685419393e-8 0 0 -1.634329765148989e-11 -6.460842646000714e-11 0
          1.976147045585668e-11 -1.1601011149477039e-11 0 -8.31706774254495e-10 5.030077343425089e-10 0
          -6.418905854454022e-9 9.062287636331083e-11 0 -2.0530580098977564e-7 0 0
          3.102867551904426e-11 1.081959308537565e-11 0 3.1325459392237683e-9 4.79260840471101e-9 0
          -0.000001639159580671993 -5.326777101320836e-7 0 -9.455714713750176e-10 5.47720076931407e-10 0
          -4.73832279207613e-8 -6.874619230433302e-8 0 -0.000004388385726202805 0 0
          9.130485602050226e-9 -2.537703985024435e-9 0 1.4129856429798692e-11 3.609192533120614e-12 0
          1.353343502198666e-8 -1.816550177207926e-8 0 0.000025819889227662632 0.000003082926646852104 0
          -8.234464058879711e-10 5.771715304736763e-11 0 -0.000001943200301630184 -0.0000030840333368810526 0
          2.2986803894524304e-8 -9.252806092866682e-9 0 -3.0857515880884644e-8 -6.601219114194729e-8 0
          0.00008353838758396672 0 0 0.00003800800323289519 0.0000289553838425584 0
          -1.0768973000185276e-7 2.872205023883537e-7 0 -1.3886122989068293e-9 -1.4917780151414668e-8 0
          8.847894753535843e-12 7.93404683150334e-12 0 -3.260739345191359e-7 9.715323917551621e-8 0
          1.2860289126332734e-11 0 0 -0.0000026686199947117055 -0.000003904028347002763 0
          8.100749721516376e-9 1.3431219913963578e-8 0 3.0174503318729687e-7 -3.5822750714418466e-7 0
          -1.8134505214709918e-9 0 0 -0.000012992421032136676 0.0000486805657930055 0
          0.000002102704293729686 0.0000012885176681049819 0 3.4101470437699345e-8 0 0
          0.000008401107424025035 -0.000011312535129327206 0 0.000008616749747356903 -0.000004145210682579782 0
          3.1466941925194233e-8 3.8209454328785517e-7 0 -0.0004403935665756299 -0.0003091075266505602 0
          -0.001842346707118808 0 0 -1.4644648734061165e-7 -7.932476423118344e-8 0
          3.225139220845342e-7 -2.0879053292629737e-7 0 -0.00033494077062399 0.00003458446003360262 0
          -0.0004632492221244802 0.0003681130810810908 0 0.000004152131070897535 -0.000026156738909089336 0
          -0.000008526070375799241 -0.00005252853427744879 0 0.00033507212352310744 0.0001494740769923625 0
          -0.0004437873603112317 0.0005761266505982576 0 -0.000005924804702758851 0.00000447115558192083 0
          0.00013831057560003958 0.0005755002132335957 0 -0.00020963328384670192 0.0004150289744276897 0
          -4.0487075521988487e-7 0 0 -0.00004582374333643007 0.0022800940548056304 0
          -4.248623879501561e-7 3.659174738938329e-7 0 0.0002218515569046789 0.00004385162612600204 0
          -0.00008498916588716023 0.002429108055026169 0 -0.000002389537816736755 -5.814333289050324e-8 0
          0.00009108350690051441 0.0014239494476273658 0 -0.00001955803806346051 0.0008907641682597456 0
          -0.0000017684192280652672 0.000004596044969637578 0 -0.034666562880763245 0.11335414021972293 0
          0.0003327276152656977 0.0008061471207046821 0 -0.022791653430330246 0.09953247803371648 0
          -0.045491935500238785 0.12909855449404894 0 -0.000524942452860438 0.00289834292358485 0
          -0.007398117526600801 0.08975010577089945 0 -0.042799490120748386 0.14135465703276706 0
          -0.00019720167579809322 0.0006878840209659912 0 0.009838678483609854 0.08968268178607351 0
          0.0011876476590487047 0.0008515728411013335 0 0 1.5923325683047886 0
          0 1.588933375057735 0 -0.04640820954398118 0.1614045491574922 0
          0 1.596010503624782 0 0 1.5859003456443939 0
          -0.00010363595336611205 0.001754581315336291 0 0 1.5998374084814808 0
          0.027156323752460108 0.09524572922400376 0 0.00047101998244127556 0.000267540107503366 0
          0 1.5833360263186687 0 0.00033859766334953296 0.0001292072127663527 0
          -0.002569315815310346 -0.0014430137408891904 0 -0.03324253376109852 0.1686357753267136 0
          -0.000005348965186063765 -0.0000026501374483333703 0 0 1.6037017477265103 0
          0 1.5812685562053084 0 0.0014480707960275985 0.003601322421873189 0
          0.04168659996607308 0.1085078342526238 0 -0.00042308896875327634 0.001887703534866224 0
          0 1.6074660183639649 0 -0.022650273726971547 0.17591096721420574 0
          0 1.5797888593882876 0 -0.000002541816965641485 0.0000054144225092046665 0
          0.0012571304008344433 0.001668199468841713 0 0.053449785322305696 0.1329921997153047 0
          0 1.610993934220413 0 0 1.5788950937027713 0
          -0.00926312494954529 0.18539983093208726 0 0.00033582065104137556 0.0008125921779167153 0
          -0.000060185109188267417 0.003474261129784902 0 -0.003764918142789343 -0.0002513540941190042 0
          0 1.6141438461008004 0 0.05113595463885043 0.14126979874672707 0
          0.00045716335457531785 0.0004984427048943807 0 0 1.578586576553405 0
          0.0006437912912295526 0.0029927116876705103 0 0.009631164480246064 0.19759048123076411 0
          0.009686404827684321 0 0 0.0007392077288174652 0.001687667064259302 0
          0.00006839346573990409 -0.00003015184451401853 0 0 1.6168063470108862 0
          0 1.5789253386139959 0 0.045461906537518575 0.1573089712766347 0
          -0.003459356320380682 -0.000808819496451526 0 -0.000007290363336360945 8.32682011058038e-7 0
          0.020632998304532805 0.18512131271775492 0 -0.000006546842263300157 0 0
          0.0009116368863195845 0.0019963235876392735 0 0 1.6189247787988912 0
          0 1.5798389110813078 0 0.03881032597149503 0.1766903844379511 0
          0.00010806009990795988 0.0048744653747195875 0 0.04071425090279544 0.20147053802527953 0
          0 1.620475405396552 0 0.00023828373852691055 0.004114273364513907 0
          0 1.5813535441178876 0 -0.0006227412974855152 0.00026958895234944336 0
          0.00028474642482855905 0.0006735727499507119 0 0.000830035797292573 0.005882556681567492 0
          0.02212330663158299 0.18607675098055046 0 0.019897158119053366 0.0030761997490178308 0
          0 1.6214065057254592 0 0.0486504943372197 0.1681852713399192 0
          0 1.58344452739424 0 0.00004578873538209839 -0.00008764010786070601 0
          -0.00018637378780308697 0.0021940354378676952 0 0.0069517060579069685 0.1806850596264573 0
          0 1.6217333795273505 0 0.0009885204400215096 0.002107952780264464 0
          0.05321199868163422 0.15539845458433965 0 0 1.5860558150214903 0
          0.01877622612750782 -0.0024281096829732447 0 0 1.6214291874366598 0
          -0.00727070379865054 0.18478523002560168 0 0.0001025393171731053 0.0008726758741895254 0
          0 1.5891543184540773 0 0.0005844271197137274 0.002159504797109601 0
          0.0012404932596633803 0.003751793021323314 0 0.049562195799351345 0.1272422066193926 0
          0 1.6204973338373014 0 0 1.5926249642926014 0
          0.0001659618977029396 -0.0009853007842828417 0 -0.024508874963378387 0.17392653151068804 0
          0.009754599513935678 0.008285038097163551 0 0.040479472798404414 0.10901999546494573 0
          -0.0010282932972719265 0.002966372216158855 0 0 1.6189669166450336 0
          6.10435952112639e-7 -0.000050112166500434646 0 0 1.596359392219316 0
          0.0015870624021373956 0.0012971418215607395 0 -0.03462875732617523 0.16189205511308694 0
          0 1.616877970803919 0 0 1.6002137621885781 0
          0.027684115876801783 0.10068938941696032 0 0 1.6142531308521446 0
          0 1.6040504503743143 0 0 1.611184616956287 0
          0 1.607747852344842 0 -0.04102374131371313 0.15222995022146693 0
          -0.0003708104292187707 0.0016330245842552287 0 0.008495519074947281 0.09401400768033642 0
          0.00007669205949551547 0.0004832958979996965 0 -0.0011724074242481551 0.0014473092696060093 0
          -0.04950113784386237 0.14213157817130234 0 -0.00860723171804271 0.09091233951603325 0
          -0.04184393803229564 0.12054043587950335 0 -0.02350035123419452 0.09672812935853431 0
          0.00004064240400842152 0.0014034224554151933 0 -0.03503039703893693 0.1068117389562355 0
          -0.0012789479030898012 0.0020330445848246795 0 -0.0009097371565332217 -0.00006982159148653206 0
          -0.0023972760752336065 0.0022920149803156613 0 -0.0005953943739356064 0.0028560764975837467 0
          0.0001533068127365402 0 0 -0.0051984172625948125 0.00003220697345027762 0
          -0.0021030351144757514 -0.000522503980348036 0 -0.0000976286923759433 0.0011014017210926328 0
          1 0 0 -0.002379535430696845 0.0012770917622405972 0
          -0.001069951772838861 0.002160264384817342 0 -0.0005413806557302231 0.0015858359079851433 0
          0.00017391925345687747 0.0011161740207703626 0 -0.0017910892300295426 0.0009756466309329646 0
          0.0001803667457307225 -0.0001268308483827469 0 1 0 0
          0.022984448890800965 -0.013120986064820745 0 -0.0020858622604058023 0.002683638488072612 0
          0.04434546670682009 0.0030281000615052607 0 0.023689463197864837 -0.009577717455669543 0
          0.019534424963729348 0.011833373800409922 0 -0.005779539571731663 0.0007953404347031967 0
          -0.0025530350053460204 -0.0005407383470298121 0 1 0 0
          0.012076213648900023 -0.007979581684254113 0 0.00963822299949151 -0.008717493576204825 0
          -0.0026725836567477175 0.0016367474784850088 0 0.03889078690281948 0.004026079955224042 0
          1 0 0 0.02095127096190824 0.005521496050763303 0
          -0.002099609308053298 0 0 0.0070137173885779225 -0.0019042121342658126 0
          0.019923254209849514 -0.0032761363105996517 0 1 0 0
          0.016937423077705956 0 0 1 0 0
          1 0 0
          <InformationKey name="L2_NORM_RANGE" location="vtkDataArray" length="2">
            <Value index="0">
              3.319545354e-12
            </Value>
            <Value index="1">
              1.6217333795
            </Value>
          </InformationKey>
        </DataArray>
        <DataArray type="Float64" Name="Energy" format="ascii" RangeMin="3652.6928867560537" RangeMax="3793.8886170083633">
          3722.830000000191 3722.830000001722 3722.8300000012255 3722.8299999961478 3722.829999902817 3722.829999993757
          3722.8300000458457 3722.8300001076514 3722.8300019302883 3722.829999995327 3722.8300000030613 3722.8299998183384
          3722.8299989688003 3722.8299802525894 3722.83000000269 3722.830000350537 3722.8298738249714 3722.8299999038322
          3722.8299900260095 3722.8296504952327 3722.830002911513 3722.8300000021777 3722.830001632278 3722.8338568322583
          3722.8299999292467 3722.8298246538498 3722.8300029319976 3722.829988169434 3722.836637335617 3722.836957039056
          3722.8299734716356 3722.8300041055936 3722.830000000974 3722.829966499876 3722.830000002234 3722.829671602715
          3722.8299921338316 3722.8299814886095 3722.8299998376197 3722.8317980335537 3722.8303717025206 3722.8300023733445
          3722.8319716947713 3722.831439954555 3722.8299804781086 3722.790961015479 3722.6897256221 3722.830002634919
          3722.8297876779984 3722.8220027651487 3722.8150314768345 3722.831467426817 3722.8304528166677 3722.8643187580983
          3722.810633815465 3722.829563105693 3723.18964341805 3722.983631868835 3722.829956027316 3723.110692652125
          3722.8299544394226 3722.830535576297 3723.3483997883777 3722.828781806921 3722.82934640705 3723.330297807345
          3722.8297518340923 3722.646412929677 3722.721461511843 3722.9872250677668 3722.761217703738 3723.5641681637912
          3722.8850849871783 3722.395322078801 3722.814819877025 3723.0359340244995 3722.6065928879307 3697.538763401299
          3686.43967536997 3722.372578145128 3709.556950982619 3676.5418795684564 3723.4120776595296 3722.0727688323295
          3723.125627327348 3722.836582800014 3668.1790121761437 3722.864836613924 3722.5423231128175 3721.9964971114264
          3722.8280918598543 3734.721480405393 3661.437539562149 3722.328614844291 3723.1225718402643 3723.3855687534074
          3747.052394307416 3721.7984200577625 3656.614179844656 3722.8295773226027 3722.4512257649794 3723.2364057985346
          3758.6180187126165 3653.7005424581216 3721.742356520448 3722.836458410281 3723.5418584498607 3722.446568824975
          3768.950932848356 3723.3817345972057 3722.8402184423057 3652.6928867560537 3722.054977093587 3721.6061318334537
          3724.031543819934 3723.4019088983573 3722.8391427746033 3777.691914571657 3653.7945400856775 3723.5601067568477
          3722.636775669609 3722.827191867815 3721.722816020112 3722.8294716665205 3722.3032042709006 3784.6517743752543
          3656.7681775431483 3723.6775935048004 3723.5100760479786 3721.9633674269244 3789.7487736306393 3722.1293200184477
          3661.70369704703 3722.690399250632 3722.8387435635523 3723.515678475725 3723.828649804303 3724.6158689151193
          3792.8115404183814 3722.1783536636576 3668.518433189501 3722.838542497155 3722.2239152493858 3723.941380057322
          3793.8886170083633 3723.270433064666 3722.2539010693185 3677.0362082741985 3724.526787992064 3792.8912155896355
          3723.9109908903233 3722.8452617629573 3687.1497554741572 3722.230969975021 3723.4110429333127 3722.495743131312
          3789.8303089105107 3698.486652673659 3722.732941456277 3723.696348185032 3723.7431750121077 3722.5536163200513
          3722.093268541059 3784.802567819884 3722.840289251012 3710.6947113647743 3723.1469096650912 3723.5853304022185
          3777.941397476832 3723.304305771544 3722.620106085036 3769.3241386777895 3735.8666421609078 3759.253943527145
          3747.983076425442 3723.399396960643 3722.3090566744113 3722.8444322113623 3722.853098403853 3722.8779691039827
          3723.075433499288 3722.86077908848 3723.09003893806 3722.9426423331734 3722.2849802024452 3723.0201775554515
          3722.9074569335858 3722.7538994034308 3722.5765954567755 3722.177606727988 3722.849045179591 3722.5485044802663
          3722.6670635144865 3722.3687732501153 3723.33 3722.701420691228 3722.613650989528 3722.7684745409383
          3722.2743235266216 3722.464773513736 3722.869983484562 3723.33 3725.0565237122955 3722.699849636533
          3727.6187990031426 3725.2396243647145 3724.610165800005 3722.378420620879 3722.6643992518398 3723.33
          3724.3837075603155 3724.0795569736356 3722.5804623016875 3727.0690620253436 3723.33 3724.4604905736187
          3722.6373276800578 3723.737837126208 3725.409619439842 3723.33 3724.0371308752433 3723.33
          3723.33
        </DataArray>
        <DataArray type="Float64" Name="ALEdispl" NumberOfComponents="3" format="ascii" RangeMin="0" RangeMax="0.0003800560001032428">
          0 0 0 0 0 0
          0 0 0 0 0.000006052230225725005 0
          0 0 0 0 0 0
          0 0.000012523446071144634 0 0 0.000014162631635427548 0
          0 0 0 0 0.00000944348463951551 0
          0 0 0 0 0.000021807478297705583 0
          0 0.00003443345219325323 0 0 0 0
          0 0 0 0 0.00004772656762209946 0
          0 0.00004464692327804909 0 0 0.000013792366640211448 0
          0 0.00006718119284694847 0 0 0 0
          0 0.00007291754158669283 0 0 0 0
          0 0.00004451434580387833 0 0 0.00004855960437857382 0
          0 0.000005845322366406122 0 0 0.0000928861001436464 0
          0 0.00001211092301891078 0 0 0.00012193503575587616 0
          0 0 0 0 0.00010259312322707705 0
          0 0.0000796213865011294 0 0 0.00012281693932728543 0
          0 0 0 0 0.00003795584661537235 0
          0 0 0 0 0.00014662015178268698 0
          0 0.00015760504399485082 0 0 0.00017144420215340465 0
          0 0 0 0 0.00015696829688873206 0
          0 0.00021241875313401397 0 0 0 0
          0 0.00020593297851479787 0 0 0.00022305704664877504 0
          0 0.00012140068091173479 0 0 0.00005627115225572895 0
          0 0 0 0 0.00017337427877353614 0
          0 0.00021890938524056665 0 0 0.00026931119224186977 0
          0 0.00026681744088937343 0 0 0.00020687152654121064 0
          0 0.0002712125738783365 0 0 0.00011805463955436677 0
          0 0.0002653311864243172 0 0 0.00006595769968434541 0
          0 0.0003101030051730947 0 0 0.000308845612585767 0
          0 0 0 0 0.0003157996122679008 0
          0 0.00016833594379493208 0 0 0.00026922900228654265 0
          0 0.0003141527323668274 0 0 0.00022012954795610348 0
          0 0.0003116056977511388 0 0 0.000306308233047159 0
          0 0.00011262615164781432 0 0 0.00034838909713371925 0
          0 0.0003113272766646686 0 0 0.000348714789755775 0
          0 0.00034783033328716456 0 0 0.0003104518919164548 0
          0 0.00034887135834186936 0 0 0.0003469431856283816 0
          0 0.0002522291374355427 0 0 0.00034886579203276334 0
          0 0.0003108158283587599 0 0 0.00038005600010324275 0
          0 0.00038005600010324265 0 0 0.0003460748424864151 0
          0 0.0003800560001032427 0 0 0.0003800560001032427 0
          0 0.00030165017848252736 0 0 0.0003800560001032427 0
          0 0.0003486785173454589 0 0 0.0002724496173884819 0
          0 0.0003800560001032427 0 0 0.00017850210011168235 0
          0 0.00006433799443217211 0 0 0.00034491814525694226 0
          0 0.00021585274790852406 0 0 0.0003800560001032427 0
          0 0.00038005600010324265 0 0 0.0003152986656199159 0
          0 0.00034828889880232373 0 0 0.00029875681827535075 0
          0 0.00038005600010324275 0 0 0.00034368301162681275 0
          0 0.0003800560001032427 0 0 0.000159817599451853 0
          0 0.0003084158541088823 0 0 0.00034787560006331364 0
          0 0.0003800560001032427 0 0 0.0003800560001032427 0
          0 0.0003420867059916747 0 0 0.00024190157879317584 0
          0 0.0003011613948611613 0 0 0.00011818801475390924 0
          0 0.0003800560001032428 0 0 0.000347117263870302 0
          0 0.00026758625084738783 0 0 0.0003800560001032427 0
          0 0.00030687131946861265 0 0 0.00034043706693023546 0
          0 0 0 0 0.0002909549402210683 0
          0 0.00009768145482156527 0 0 0.0003800560001032427 0
          0 0.00038005600010324275 0 0 0.0003461419445213955 0
          0 0.00017535765332022345 0 0 0.00020406664794574175 0
          0 0.0003381685256408215 0 0 0 0
          0 0.00030406494234049605 0 0 0.00038005600010324275 0
          0 0.0003800560001032427 0 0 0.0003449778325924209 0
          0 0.0002922455103618494 0 0 0.00033595063227400036 0
          0 0.0003800560001032427 0 0 0.00030838086838012884 0
          0 0.0003800560001032427 0 0 0.00023737386467790212 0
          0 0.0002563255095015122 0 0 0.000293420227523863 0
          0 0.0003437716291308462 0 0 0.00005241343018084736 0
          0 0.0003800560001032428 0 0 0.00033337821319179636 0
          0 0.0003800560001032428 0 0 0.0001345620248441348 0