<?xml version="1.0"?>
<VTKFile type="UnstructuredGrid" version="0.1" byte_order="LittleEndian" header_type="UInt32" compressor="vtkZLibDataCompressor">
  <UnstructuredGrid>
    <Piece NumberOfPoints="223" NumberOfCells="380">
      <PointData>
        <DataArray type="Float64" Name="ale_BC" NumberOfComponents="3" format="ascii" RangeMin="0" RangeMax="1">
          0 0 0 0 0 0
          0 0 0 0 0 0
          0 0 0 0 0 0
          0 0 0 0 0 0
          0 0 0 0 0 0
          0 0 0 0 0 0
          0 0 0 0 0 0
          0 0 0 0 0 0
          0 0 0 0 0 0
          0 0 0 0 0 0
          0 0 0 0 0 0
          0 0 0 0 0 0
          0 0 0 0 0 0
          0 0 0 0 0 0
          0 0 0 0 0 0
          0 0 0 0 0 0
          0 0 0 0 0 0
          0 0 0 0 0 0
          0 0 0 0 0 0
          0 0 0 0 0 0
          0 0 0 0 0 0
          0 0 0 0 0 0
          0 0 0 0 0 0
          0 0 0 0 0 0
          0 0 0 0 0 0
          0 0 0 0 0 0
          0 0 0 0 0 0
          0 0 0 0 0 0
          0 0 0 0 0 0
          0 0 0 0 0 0
          0 0 0 0 0 0
          0 0 0 0 0 0
          0 0 0 0 0 0
          0 0 0 0 0 0
          0 0 0 0 0 0
          0 0 0 0 0 0
          0 0 0 0 0 0
          0 0 0 0 0 0
          0 0 0 0 1 0
          0 1 0 0 0 0
          0 1 0 0 1 0
          0 0 0 0 1 0
          0 0 0 0 0 0
          0 1 0 0 0 0
          0 0 0 0 0 0
          0 0 0 0 1 0
          0 1 0 0 0 0
          0 0 0 0 0 0
          0 1 0 0 0 0
          0 1 0 0 0 0
          0 0 0 0 0 0
          0 1 0 0 1 0
          0 0 0 0 0 0
          0 0 0 0 0 0
          0 1 0 0 0 0
          0 0 0 0 1 0
          0 0 0 0 0 0
          0 0 0 0 0 0
          0 0 0 0 1 0
          0 1 0 0 0 0
          0 0 0 0 0 0
          0 0 0 0 0 0
          0 0 0 0 1 0
          0 1 0 0 0 0
          0 0 0 0 0 0
          0 1 0 0 0 0
          0 1 0 0 0 0
          0 0 0 0 0 0
          0 0 0 0 0 0
          0 1 0 0 0 0
          0 1 0 0 0 0
          0 0 0 0 0 0
          0 1 0 0 0 0
          0 0 0 0 1 0
          0 0 0 0 1 0
          0 0 0 0 0 0
          0 1 0 0 0 0
          0 0 0 0 0 0
          0 1 0 0 1 0
          0 0 0 0 0 0
          0 0 0 0 0 0
          0 0 0 0 1 0
          0 0 0 0 1 0
          0 0 0 0 0 0
          0 1 0 0 1 0
          0 0 0 0 1 0
          0 1 0 0 1 0
          0 1 0 0 0 0
          0 0 0 0 0 0
          0 0 0 0 0 0
          0 0 0 0 0 0
          0 0 0 0 0 0
          0 0 0 0 0 0
          0 0 0 0 0 0
          0 0 0 0 0 0
          0 0 0 0 0 0
          0 0 0 0 0 0
          0 0 0 0 0 0
          0 0 0 0 0 0
          0 0 0 0 0 0
          0 0 0 0 0 0
          0 0 0 0 0 0
          0 0 0 0 0 0
          0 0 0 0 0 0
          0 0 0 0 0 0
          0 0 0 0 0 0
          0 0 0 0 0 0
          0 0 0 0 0 0
          0 0 0 0 0 0
          0 0 0 0 0 0
          0 0 0 0 0 0
          0 0 0
          <InformationKey name="L2_NORM_RANGE" location="vtkDataArray" length="2">
            <Value index="0">
              0
            </Value>
            <Value index="1">
              1
            </Value>
          </InformationKey>
        </DataArray>
        <DataArray type="Float64" Name="ale_FIXNO" NumberOfComponents="3" format="ascii" RangeMin="1.4142135623730951" RangeMax="1.4142135623730951">
          1 1 0 1 1 0
          1 1 0 -1 -1 0
          1 1 0 1 1 0
          -1 -1 0 -1 -1 0
          1 1 0 -1 -1 0
          1 1 0 -1 -1 0
          -1 -1 0 1 1 0
          1 1 0 -1 -1 0
          -1 -1 0 -1 -1 0
          -1 -1 0 1 1 0
          -1 -1 0 1 1 0
          -1 -1 0 -1 -1 0
          -1 -1 0 -1 -1 0
          -1 -1 0 -1 -1 0
          1 1 0 -1 -1 0
          -1 -1 0 -1 -1 0
          1 1 0 -1 -1 0
          1 1 0 -1 -1 0
          -1 -1 0 -1 -1 0
          1 1 0 -1 -1 0
          -1 -1 0 1 1 0
          -1 -1 0 -1 -1 0
          -1 -1 0 -1 -1 0
          1 1 0 -1 -1 0
          -1 -1 0 -1 -1 0
          -1 -1 0 -1 -1 0
          -1 -1 0 -1 -1 0
          -1 -1 0 -1 -1 0
          -1 -1 0 -1 -1 0
          1 1 0 -1 -1 0
          -1 -1 0 -1 -1 0
          -1 -1 0 -1 -1 0
          -1 -1 0 -1 -1 0
          -1 -1 0 -1 -1 0
          -1 -1 0 -1 -1 0
          -1 -1 0 -1 -1 0
          -1 -1 0 -1 -1 0
          -1 -1 0 -1 -1 0
          -1 -1 0 1 1 0
          1 1 0 -1 -1 0
          1 1 0 1 1 0
          -1 -1 0 1 1 0
          -1 -1 0 -1 -1 0
          1 1 0 -1 -1 0
          -1 -1 0 -1 -1 0
          -1 -1 0 1 1 0
          1 1 0 -1 -1 0
          -1 -1 0 -1 -1 0
          1 1 0 -1 -1 0
          1 1 0 -1 -1 0
          -1 -1 0 -1 -1 0
          1 1 0 1 1 0
          -1 -1 0 -1 -1 0
          -1 -1 0 -1 -1 0
          1 1 0 -1 -1 0
          -1 -1 0 1 1 0
          -1 -1 0 -1 -1 0
          1 1 0 -1 -1 0
          -1 -1 0 1 1 0
          1 1 0 -1 -1 0
          -1 -1 0 -1 -1 0
          -1 -1 0 1 1 0
          -1 -1 0 1 1 0
          1 1 0 -1 -1 0
          -1 -1 0 -1 -1 0
          1 1 0 -1 -1 0
          1 1 0 -1 -1 0
          -1 -1 0 -1 -1 0
          -1 -1 0 -1 -1 0
          1 1 0 -1 -1 0
          1 1 0 -1 -1 0
          -1 -1 0 -1 -1 0
          1 1 0 -1 -1 0
          -1 -1 0 1 1 0
          -1 -1 0 1 1 0
          -1 -1 0 -1 -1 0
          1 1 0 -1 -1 0
          -1 -1 0 -1 -1 0
          1 1 0 1 1 0
          -1 -1 0 -1 -1 0
          -1 -1 0 -1 -1 0
          -1 -1 0 1 1 0
          -1 -1 0 1 1 0
          -1 -1 0 -1 -1 0
          1 1 0 1 1 0
          -1 -1 0 1 1 0
          1 1 0 1 1 0
          1 1 0 -1 -1 0
          -1 -1 0 -1 -1 0
          -1 -1 0 -1 -1 0
          -1 -1 0 -1 -1 0
          -1 -1 0 -1 -1 0
          -1 -1 0 -1 -1 0
          -1 -1 0 -1 -1 0
          -1 -1 0 -1 -1 0
          1 1 0 -1 -1 0
          -1 -1 0 -1 -1 0
          1 1 0 -1 -1 0
          -1 -1 0 -1 -1 0
          -1 -1 0 -1 -1 0
          -1 -1 0 1 1 0
          -1 -1 0 -1 -1 0
          -1 -1 0 -1 -1 0
          -1 -1 0 -1 -1 0
          -1 -1 0 1 1 0
          -1 -1 0 -1 -1 0
          -1 -1 0 -1 -1 0
          1 1 0 -1 -1 0
          1 1 0 -1 -1 0
          -1 -1 0 1 1 0
          1 1 0 1 1 0
          1 1 0
          <InformationKey name="L2_NORM_RANGE" location="vtkDataArray" length="2">
            <Value index="0">
              1.4142135624
            </Value>
            <Value index="1">
              1.4142135624
            </Value>
          </InformationKey>
        </DataArray>
        <DataArray type="Float64" Name="Density" format="ascii" RangeMin="0.9757179816557455" RangeMax="1.0250415348559871">
          1 0.9999999999872627 1 0.9999999999739949 0.9999999999814454 1
          1.0000000003551897 1.0000000003250373 1.0000000033199858 0.9999999999621864 1 0.9999999999933846
          0.9999999962963803 0.9999999533640305 1 1.0000000009142986 0.9999999479913573 1.0000000000228186
          0.9999999767061117 1.0000001534796281 1.0000000039373984 1 1.0000000022928777 1.0000021793770006
          1.0000000000043598 1.0000000198617782 1.0000000047218518 0.9999999835199881 1.0000021456417691 1.0000028693988783
          0.9999999477121592 1.0000000003173424 1 0.999999929222004 0.9999999999590382 0.999999808080618
          1.0000000074072637 0.9999998133122272 1.0000000001192497 1.0000026541033242 0.9999996867005649 1.0000000019705158
          0.9999989592824924 0.9999994677050003 0.9999999457754527 0.9999742126745778 0.9999350068890082 1.0000000542549243
          0.9999998774385641 1.0000136425562234 1.000027667281719 1.0000019316665933 1.0000007604974994 1.0000022043029766
          1.0000304526331136 1.000000233350091 0.9997061826363186 0.9999126524091577 0.999999906562069 0.9996267931194424
          0.9999999929804352 0.9999906804991324 0.9992751459838085 0.9999998592224185 1.0000114160296645 0.999543686085223
          1.000000170227824 0.9967750125149644 1.0001246543396018 0.9981339898325413 0.9955906324190499 0.9989756048111934
          0.9993643935402359 0.9946281461739537 1.0000426066396484 1.0006336618618719 1.0002352989382433 0.9915382732899162
          0.9876885122996308 0.9936383019196438 0.9956725682356815 0.9842335433562215 0.999420387726522 0.9999642720659626
          1.0018803048134943 0.9999813398743813 0.9812453670941899 0.9999997242847645 0.9998779218406412 0.9931192555691701
          0.9999996578525252 1.0042956502557885 0.9788729601155313 1.0005504710853403 1.0031253132244422 0.9994045560866848
          1.0085096620546703 0.9928038077218937 0.9770280794377944 1.0000005113033998 1.0004655749179832 1.004369600285546
          1.0124122859223699 0.9759662786783762 0.9924669860590005 1.0000390544862396 0.9988311257268172 0.9998335215191527
          1.0160484937916583 1.0051339687134153 0.9999806106658473 0.9757179816557455 1.000708969738553 0.9921841040067065
          1.0007455510248033 0.9993226185793486 1.0000036522648048 1.0191771513200825 0.9760644490636857 1.005949411485521
          0.9999097876436622 1.0000007044892842 0.9926197695559044 1.000000174556431 1.0005708352894644 1.0216524799799154
          0.9772556339410926 1.006846649878409 0.998773603560298 0.9924694121344391 1.0234340603838799 1.0010683494427697
          0.9790979669566743 0.9999603303778195 0.9999670299560134 0.9987212875174681 1.0073110976394508 1.0010947741192378
          1.024644378925096 0.9936393708301801 0.9813956385109356 1.0000031655729569 1.0006493859139474 1.0073002745216753
          1.0250415348559871 0.9994271948777075 0.9945081382641864 0.9844037561350796 1.001037545850322 1.024637030730854
          1.0074674242532007 0.9999706414369005 0.9878225175736005 1.000578402345486 0.9992784697103058 0.9957112267782703
          1.0235801686251986 0.9917056987709878 0.9999608004525465 1.007114056094424 1.0006494647730488 0.9968777477149268
          1.000872410002965 1.0217613410310027 1.0000057641858968 0.9958767329249643 0.9996789432262766 1.006622082057192
          1.019195366875955 1.0001847379153554 0.9979924588627864 1.0161432196125288 1.0045056433711255 1.01264577025824
          1.0087096161419664 1.0061075496853842 1.0005124929648945 0.9993237643101536 0.9999701474340289 0.9997788720933862
          1.0053663269998134 1.0006067600370598 1.0041639274788134 1.001864414103951 1.0005070940459873 1.0030515202267902
          0.9998484057813524 0.9999573731615785 1.0000113237003991 1.0008725319974592 1.000007196664227 0.9999396016683093
          1.0002008307802637 1.000363687920518 1 0.9999194973351073 1.0002167368171095 0.99996369706912
          1.0004190717866592 1.0001882183014716 0.9999999438715395 1 1.001353611159828 0.9999362865984815
          1.0028019058117292 1.0016289677874461 1.0011605412678235 0.9999246195338193 0.9999512740963112 1
          1.0009389201111523 1.0009205894682953 0.999930498858197 1.0025353899604155 1 1.0010254627446966
          0.9999012800742947 1.0005752790963 1.0015574505948428 1 1.0007337574860664 1
          1
        </DataArray>
        <DataArray type="Float64" Name="Momentum" NumberOfComponents="3" format="ascii" RangeMin="1.559183656237599e-10" RangeMax="1.6400646291351086">
          2.4647473895028743e-10 -2.3373978603734615e-10 0 -6.748098175827027e-10 0 0
          1.4433215707263073e-10 5.898105775200982e-11 0 -1.6188732636991205e-9 7.251708225766842e-10 0
          -3.4252727083212725e-10 0 0 -7.265770786750346e-10 -1.3281198016775108e-10 0
          2.4853603854659448e-8 -1.107895090905807e-8 0 1.4759428549484283e-8 8.908585062235591e-9 0
          1.4573757688594948e-7 0 0 -1.8116214098524906e-9 4.997023257930093e-10 0
          -8.86097835305956e-10 7.706451458502097e-10 0 1.3398947749898442e-9 -2.7035816603383452e-9 0
          -1.4185439878897867e-7 -2.7841939102270675e-8 0 -0.0000026012502124456327 0 0
          -1.8810806378541217e-9 -3.350921534595453e-10 0 3.2635520718612755e-8 4.396020168396762e-8 0
          -0.0000035015631135786467 -0.0000020581787320403293 0 9.636042184977276e-10 1.3392382683718532e-10 0
          -6.003689988402615e-7 -8.358878891432359e-7 0 0.0000017104272027289497 0 0
          6.664972184121705e-8 -9.682079964644167e-9 0 -7.30625962036609e-10 -4.338144347072322e-10 0
          9.579131038887373e-8 -1.3113173288696144e-7 0 0.00008059649737512039 0.000020464251314928526 0
          -9.620997394041366e-10 1.4080211497724073e-10 0 0.0000017822641728882755 -0.000002554262134927477 0
          1.8517742194708862e-7 -8.17604383053676e-8 0 3.3182901062810017e-7 -0.0000010002214601574178 0
          0.00013468138566107102 0 0 0.00009186443493901403 0.00007724714795757925 0
          -0.000001231179890437812 0.0000026181215746930577 0 -2.6881815804625407e-7 -2.4790341439118703e-8 0
          5.100291100420076e-10 4.834652289066921e-10 0 -0.0000035286554661559144 0.000001292068146773542 0
          -2.1294975532308303e-9 0 0 -0.000009865113732302687 0.0000029146560442222026 0
          5.288905356430332e-7 5.026077447460047e-7 0 -0.000011672410908422788 -0.000002104286898454691 0
          7.499037528582578e-9 0 0 0.00008512172291847553 0.00015496933726340926 0
          -0.00002620267249069594 -0.00001226757591991103 0 2.3965886695066794e-7 0 0
          -0.00007665549209754799 0.00003797398038048133 0 -0.0000675099880137754 0.000017766491992525542 0
          -2.7612691633837855e-7 0.0000039481754066060645 0 -0.0014593534343697685 -0.0008360783135606696 0
          -0.004909741842556194 0 0 0.000004221635257216057 9.202813247809637e-7 0
          0.000016217478777318807 -0.000008751430328402074 0 0.0008766886931034058 -0.00007125369783004501 0
          0.0010429645968059985 -0.0008188833446626367 0 0.00006693602959696203 0.00020596215423128184 0
          0.00002789356947029889 0.00020055608885689649 0 0.00007604820018992342 0.0001566996305892744 0
          0.0007645546536568392 -0.000898344320157432 0 0.000007145552172249966 -8.098291149300843e-7 0
          -0.014833342140212777 0.019865412158135937 0 -0.005520827994750402 0.009925431850870243 0
          -0.000004458172876201128 0 0 -0.022085002515644932 0.028147392923579546 0
          0.000007183295313188846 0.000010960764061769878 0 -0.00017372531165045347 0.00008661981332232925 0
          -0.03606302614608963 0.04870722987361536 0 0.00003995646698648149 0.00002153803838453298 0
          0.0009739333584317857 0.013865408654428807 0 -0.017733648682087502 0.03075746663523806 0
          0.0000047717008084403385 -0.00000874351275832573 0 -0.14206460364178553 0.3370607296344311 0
          0.008354987196426605 0.011066136095654388 0 -0.0918007000700052 0.28661711130562006 0
          -0.17855670824461858 0.3932820056987067 0 -0.03394658261250114 0.07825938769819753 0
          -0.03379248144454222 0.2594066121136774 0 -0.1766607464677642 0.45046743383006255 0
          0.000497255961646754 -0.001112927119310579 0 0.0317385177041313 0.25668902189777454 0
          0.015565291202370792 0.015871079548854906 0 0 1.586459470332549 0
          0 1.580299859608406 0 -0.1792212358420313 0.5174929501381662 0
          0 1.5930743348784178 0 0 1.5747719154557356 0
          -0.013755358842347791 0.04497346352407377 0 0 1.5999410533590093 0
          0.09437806083802995 0.27832706669459556 0 -0.00043775411314667746 0.00007313901496604557 0
          0 1.5699908387614507 0 -0.00012173784079828784 0.0002533307892676212 0
          -0.005477553541731901 -0.004138912516820754 0 -0.13172958039347357 0.5575691331117323 0
          0.00004253983684801843 0.00002362718106137302 0 0 1.6068712507441651 0
          0 1.566194991823252 0 0.03713148744693071 0.042102895607849605 0
          0.14413018920363493 0.3222013678878245 0 -0.005244422270579654 0.047631961711747293 0
          0 1.6136136621129678 0 -0.08981649248186978 0.5879116353408159 0
          0 1.5632431860264675 0 0.000019322253472405465 -6.126294695129411e-7 0
          0.02188977109073451 0.0287745409136058 0 0.1845611035074743 0.39972245010140567 0
          0 1.6198578533467678 0 0 1.5615443067035382 0
          -0.039827744199520766 0.6105933520197266 0 -0.0002913650026606865 -0.0017740403591392706 0
          0.0008804924626374296 0.09775257042666162 0 -0.008074815432804524 -0.0007870541171519456 0
          0 1.6256757794578698 0 0.18438592300530135 0.447542806653162 0
          -0.0005794940910787933 -0.00032011786697915207 0 0 1.561147031909797 0
          0.033220612521860204 0.05139493749987295 0 0.03569937829907197 0.6342504432035013 0
          0.03137429476032347 0 0 0.004164218624541621 0.052011278976566995 0
          0.0001182899159076614 -0.00007015908975349 0 0 1.6306816259280579 0
          0 1.5617013791450893 0 0.17167694553678278 0.5058709468145399 0
          -0.008860679315700127 -0.0016159899464322784 0 0.00006905849212211632 0.00002682227449428428 0
          0.07854313992327588 0.6002423306507488 0 0.000004646344255917175 0 0
          0.014985881883410244 0.04274613072142013 0 0 1.6346421473727242 0
          0 1.563607272826242 0 0.1442283503198639 0.5668967033646619 0
          0.03200910946398858 0.09156281307488014 0 0.14230555503097553 0.606549565794884 0
          0 1.637492672844273 0 0.024289576372564143 0.09083074828677531 0
          0 1.56655500236812 0 -0.0016495659778595739 -0.0006743629455662232 0
          -0.0006287420189711269 -0.001350757657366579 0 0.039353657845143934 0.10394299727735105 0
          0.08202114560304799 0.6104702052899375 0 0.0630650148400896 0.009454886063381074 0
          0 1.639429180353419 0 0.17544502899871944 0.5146292363776492 0
          0 1.5702312727604586 0 0.00004339361294766601 -0.00015431804278555458 0
          0.00988798091948999 0.05072518367941379 0 0.027713529580154068 0.61283905442114 0
          0 1.6400646291351086 0 0.021966634319917487 0.036712653728086436 0
          0.1886887646398301 0.4679723314848484 0 0 1.5750442555985928 0
          0.059225388819254855 -0.004928301508726259 0 0 1.6394174232557226 0
          -0.030266736353888376 0.6235072973977369 0 -0.00031211718814817433 -0.0014420459304339698 0
          0 1.5805142678079585 0 -0.004728338135450773 0.04705204785812087 0
          0.03990910768631875 0.055041560416864616 0 0.17483084944357286 0.38137688077590515 0
          0 1.6377264457700167 0 0 1.5867273508039097 0
          -0.003670366203068974 -0.002787431039271602 0 -0.09509811196371437 0.5916163074746474 0
          0.034508713746497305 0.02390770080352548 0 0.14429614938565155 0.3242773535097618 0
          -0.007178281515145551 0.07493218103818 0 0 1.634816324860467 0
          0.00011333660160905779 0.00009900416036577105 0 0 1.5934009980174466 0
          0.017197875158679467 0.021978432052664157 0 -0.13845367773591527 0.551257290433046 0
          0 1.6307107707849882 0 0 1.6002937983251602 0
          0.09916902416200593 0.28821686725429957 0 0 1.625827340602464 0
          0 1.6072072393544945 0 0 1.6202314278680923 0
          0 1.6139335882963248 0 -0.16599724491162451 0.5074806500460926 0
          -0.010760219591530151 0.04103868984564904 0 0.02927731627740533 0.2645234081073041 0
          -0.00001927915705267496 -0.0017131698929674457 0 0.016977419669065418 0.01218160226199457 0
          -0.19339874086241324 0.45393026414759996 0 -0.03370118219227797 0.26161018284877574 0
          -0.17256297144200833 0.3809189389515517 0 -0.09187458769480582 0.2848976777980074 0
          -0.01819531852604483 0.03851426685536269 0 -0.14053508093278186 0.3276726397420558 0
          0.01719069272602582 0.023160316534327714 0 -0.0026242568385108573 0.00000871875594699897 0
          -0.00036886030751409187 -0.0006819925535008627 0 -0.03711178236564174 0.06516094358035465 0
          0.00028909754842061864 0 0 -0.005493467454234396 0.008423702349214003 0
          0.013159820952545106 0.0025296917630316085 0 -0.01836659597542937 0.02634332886482193 0
          1 0 0 -0.0019097318273122352 0.00011195218862167339 0
          -0.005320444615716844 0.016928511156072506 0 -0.0019126793245279588 0.004323320516934088 0
          -0.027541142473742446 0.02851319560974559 0 -0.01157562063366146 0.017913639919736334 0
          -0.000522983914140561 0.0002242364335072069 0 1 0 0
          0.06972972345145634 -0.03483877448266611 0 -0.0019491111309792135 0.0020810681205272875 0
          0.13072032726496124 0.009766463395479116 0 0.07872014872647116 -0.025428694891002718 0
          0.06483004446968534 0.030362740251781564 0 -0.004067465408381945 0.002342698945962399 0
          -0.004735646018417004 -0.0011176061703955173 0 1 0 0
          0.0378203445301342 -0.024596828089513845 0 0.037009645427706496 -0.022907981850415 0
          -0.004137636077738924 0.0047421827309663996 0 0.11661046995506062 0.012211256865554253 0
          1 0 0 0.06672336959578319 0.014436452487608682 0
          -0.005735948653011138 0 0 0.023231258393900063 -0.006156127629219327 0
          0.06254497362762015 -0.009780059456070165 0 1 0 0
          0.053947876613554546 0 0 1 0 0
          1 0 0
          <InformationKey name="L2_NORM_RANGE" location="vtkDataArray" length="2">
            <Value index="0">
              1.5591836562e-10
            </Value>
            <Value index="1">
              1.6400646291
            </Value>
          </InformationKey>
        </DataArray>
        <DataArray type="Float64" Name="Energy" format="ascii" RangeMin="3595.606394919686" RangeMax="3853.845885146571">
          3722.830000017006 3722.8299999332958 3722.8300000135655 3722.8299998638154 3722.8299999028345 3722.8299999345186
          3722.8300018600717 3722.830001702169 3722.8300173861835 3722.8299998019857 3722.829999849959 3722.8299999653577
          3722.829980604625 3722.82975577455 3722.8299998424277 3722.8300047880384 3722.8297276418252 3722.830000119503
          3722.829878013191 3722.830803761063 3722.830020619458 3722.829999935864 3722.830012007352 3722.841412996025
          3722.83000002283 3722.8301040256106 3722.8300247275806 3722.8299136962646 3722.8412359262097 3722.8450263834693
          3722.829726177197 3722.8300016616913 3722.8300000585923 3722.829629346382 3722.8299997854865 3722.82899497134
          3722.8300387893846 3722.829022329948 3722.830000624507 3722.8438991426697 3722.8283592846915 3722.8300103191527
          3722.8245503369303 3722.82721310978 3722.829716036309 3722.694933594573 3722.4895751376503 3722.8302841258487
          3722.829358080515 3722.9014263496233 3722.97482588392 3722.8401169346685 3722.833983425282 3722.8415398839725
          3722.9893761864423 3722.831222030524 3721.2932003189444 3722.37311498929 3722.8295106799364 3720.878815871681
          3722.8299632591434 3722.781194461514 3719.0418131797264 3722.829262590313 3722.8909154572702 3720.4443467509495
          3722.830891502545 3706.262114947963 3723.483901939957 3713.3287414364095 3700.1370920627874 3717.478871473271
          3719.7358218988347 3695.151288931443 3723.0530313717395 3726.3859885947495 3724.0644100646214 3677.7912019613073
          3657.7369644967594 3690.0594341385836 3699.370018054023 3639.7654519991866 3719.8009496524182 3721.814944612675
          3732.94045483621 3722.732273185985 3624.253335563601 3722.828552898548 3722.190464396097 3687.3795952343994
          3722.828207972365 3744.5109690931613 3611.9478750022986 3725.720265371783 3739.5173759279605 3719.718515375467
          3766.632098072059 3685.7593626055395 3602.380687034081 3722.8326776874082 3725.27375712823 3746.1183084526324
          3787.161297316602 3596.8818772845384 3684.0316668197934 3723.034353021984 3716.7265455763886 3721.9578651609445
          3806.3110507928855 3750.1699607198666 3722.728452093272 3595.606394919686 3726.5528758376768 3682.579821673172
          3726.751973147398 3719.290652893154 3722.8491259301795 3822.820584111362 3597.3917548710738 3754.509806321775
          3722.357373919037 3722.833689036929 3684.81297987344 3722.830914138872 3725.827749970668 3835.9065649674017
          3603.5651677679257 3759.296874869877 3716.4274788651396 3684.052247496346 3845.34027729749 3728.443977853331
          3613.1219313078027 3722.622107828641 3722.6572970783204 3716.1549110740675 3761.77429349318 3728.596304744508
          3851.740084414349 3690.065919017266 3625.019569356218 3722.846576833981 3726.241175477136 3761.713240656544
          3853.845885146571 3719.8362287494147 3694.544389182169 3640.6472946557456 3728.282282637019 3851.710632871061
          3762.6072957385586 3722.6762452970693 3658.424531862229 3725.8685577821457 3719.0603918676366 3700.751997225891
          3846.110931284355 3678.6612256648186 3722.6246258518854 3760.7210968042186 3726.2434128692744 3706.7889929682433
          3727.4132934022755 3836.4887323971625 3722.860185429596 3700.439170907707 3721.1512519294383 3758.0906278242223
          3822.9339000045306 3722.9696292951858 3712.589742650145 3806.827722999108 3745.611144931559 3788.3889338372587
          3767.6834448342306 3755.3458803243907 3725.5215711274536 3719.5372054404393 3722.6736270651927 3721.673604715929
          3751.413363865615 3726.2473478726774 3745.0144275458597 3732.859909248747 3725.4928033314113 3739.124966608372
          3722.038569257297 3722.606742454041 3722.88920827768 3727.4122325818535 3722.8676867186664 3722.5143132296453
          3723.8823474148967 3724.739036087764 3723.33 3722.4083274980458 3723.966825152193 3722.639847113435
          3725.0290084130766 3723.817559158839 3722.8297030706353 3723.33 3729.944864840754 3722.4962051535167
          3737.6038255458993 3731.389923495762 3728.9328040211617 3722.434818440774 3722.57471696713 3723.33
          3727.7600967311314 3727.664158119029 3722.4658011671004 3736.1938966441126 3723.33 3728.2239745770303
          3722.312905973928 3725.8557745737094 3731.024351036262 3723.33 3726.689059390523 3723.33
          3723.33
        </DataArray>
        <DataArray type="Float64" Name="ALEdispl" NumberOfComponents="3" format="ascii" RangeMin="0" RangeMax="0.0012558481324406589">
          0 0 0 0 0 0
          0 0 0 0 0.000019998847601440085 0
          0 0 0 0 0 0
          0 0.000041382181457195465 0 0 0.00004679866778833921 0
          0 0 0 0 0.000031204829143720724 0
          0 0 0 0 0.000072060119787542 0
          0 0.00011378109178288115 0 0 0 0
          0 0 0 0 0.00015770655061289477 0
          0 0.00014753024607617795 0 0 0.00004557517282279737 0
          0 0.00022199195789319708 0 0 0 0
          0 0.00024094701412143534 0 0 0 0
          0 0.00014709216018016309 0 0 0.00016045921773192077 0
          0 0.000019315146124177984 0 0 0.00030693065064992 0
          0 0.000040019049959216544 0 0 0.00040291927213753626 0
          0 0 0 0 0.00033900631004635923 0
          0 0.0002630990420164822 0 0 0.00040583341361365074 0
          0 0 0 0 0.00012542040929276394 0
          0 0 0 0 0.00048448819054148183 0
          0 0.0005207864107141943 0 0 0.0005665162003326964 0
          0 0 0 0 0.0005186823585117846 0
          0 0.0007019115455255476 0 0 0 0
          0 0.0006804801039991384 0 0 0.000737064473092114 0
          0 0.00040115356252397067 0 0 0.00018594107566107123 0
          0 0 0 0 0.00057289390024587 0
          0 0.0007233590380191781 0 0 0.0008899055868883618 0
          0 0.0008816652934106811 0 0 0.0006835814200837579 0
          0 0.0008961884677705605 0 0 0.0003900969819448502 0
          0 0.0008767541490167884 0 0 0.00021794907578400366 0
          0 0.0010246970967569898 0 0 0.0010205421981838547 0
          0 0 0 0 0.0010435208316258429 0
          0 0.000556245344317871 0 0 0.0008896340003277627 0
          0 0.001038078920308681 0 0 0.000727390915077202 0
          0 0.0010296625588658796 0 0 0.0010121577407512965 0
          0 0.00037215921383286455 0 0 0.0011512087610226248 0
          0 0.001028742550758178 0 0 0.001152284972083751 0
          0 0.0011493623948740034 0 0 0.0010258499499285298 0
          0 0.0011528023336472891 0 0 0.0011464309249585723 0
          0 0.0008334600456498403 0 0 0.0011527839404660378 0
          0 0.0010270525329722706 0 0 0.0012558481324406584 0
          0 0.0012558481324406584 0 0 0.0011435615922474448 0
          0 0.0012558481324406584 0 0 0.0012558481324406584 0
          0 0.0009967657745036638 0 0 0.0012558481324406584 0
          0 0.0011521651143818798 0 0 0.0009002761253303461 0
          0 0.0012558481324406584 0 0 0.0005898381528014169 0
          0 0.0002125969597392799 0 0 0.0011397394290529731 0
          0 0.0007132587573133047 0 0 0.0012558481324406582 0
          0 0.0012558481324406584 0 0 0.0010418655152720597 0
          0 0.001150877668006536 0 0 0.0009872050228994956 0
          0 0.0012558481324406586 0 0 0.0011356580824559157 0
          0 0.0012558481324406582 0 0 0.0005280975270703172 0
          0 0.00101912211435292 0 0 0.0011495119733473677 0
          0 0.0012558481324406582 0 0 0.0012558481324406582 0
          0 0.0011303832875568796 0 0 0.0007993339031072558 0
          0 0.0009951506493697537 0 0 0.00039053770382587247 0
          0 0.0012558481324406584 0 0 0.0011470061450181287 0
          0 0.0008842057310033302 0 0 0.0012558481324406582 0
          0 0.0010140183903150268 0 0 0.0011249322589349216 0
          0 0 0 0 0.0009614246800517611 0
          0 0.0003227763081714929 0 0 0.0012558481324406582 0
          0 0.0012558481324406582 0 0 0.001143783322637941 0
          0 0.0005794477165774396 0 0 0.0006743130450419601 0
          0 0.0011174361443073379 0 0 0 0
          0 0.0010047450635570962 0 0 0.0012558481324406584 0
          0 0.0012558481324406584 0 0 0.0011399366584843491 0
          0 0.0009656892097543398 0 0 0.001110107389487211 0
          0 0.0012558481324406584 0 0 0.001019006508331426 0
          0 0.0012558481324406584 0 0 0.0007843726307833169 0
          0 0.0008469960014232854 0 0 0.0009695709175912375 0
          0 0.0011359509080577002 0 0 0.00017319370932058695 0
          0 0.0012558481324406584 0 0 0.0011016071482086544 0
          0 0.0012558481324406586 0 0 0.0004446435987118581 0
          0 0.00098752767362604 0 0 0.0011310968966983903 0
          0 0.0012558481324406582 0 0 0.0009069490783843344 0
          0 0.0010931468414580232 0 0 0.0012558481324406584 0