<?xml version="1.0"?>
<VTKFile type="UnstructuredGrid" version="0.1" byte_order="LittleEndian" header_type="UInt32" compressor="vtkZLibDataCompressor">
  <UnstructuredGrid>
    <Piece NumberOfPoints="223" NumberOfCells="380">
      <PointData>
        <DataArray type="Float64" Name="ale_BC" NumberOfComponents="3" format="ascii" RangeMin="0" RangeMax="1">
          0 0 0 0 0 0
          0 0 0 0 0 0
          0 0 0 0 0 0
          0 0 0 0 0 0
          0 0 0 0 0 0
          0 0 0 0 0 0
          0 0 0 0 0 0
          0 0 0 0 0 0
          0 0 0 0 0 0
          0 0 0 0 0 0
          0 0 0 0 0 0
          0 0 0 0 0 0
          0 0 0 0 0 0
          0 0 0 0 0 0
          0 0 0 0 0 0
          0 0 0 0 0 0
          0 0 0 0 0 0
          0 0 0 0 0 0
          0 0 0 0 0 0
          0 0 0 0 0 0
          0 0 0 0 0 0
          0 0 0 0 0 0
          0 0 0 0 0 0
          0 0 0 0 0 0
          0 0 0 0 0 0
          0 0 0 0 0 0
          0 0 0 0 0 0
          0 0 0 0 0 0
          0 0 0 0 0 0
          0 0 0 0 0 0
          0 0 0 0 0 0
          0 0 0 0 0 0
          0 0 0 0 0 0
          0 0 0 0 0 0
          0 0 0 0 0 0
          0 0 0 0 0 0
          0 0 0 0 0 0
          0 0 0 0 0 0
          0 0 0 0 1 0
          0 1 0 0 0 0
          0 1 0 0 1 0
          0 0 0 0 1 0
          0 0 0 0 0 0
          0 1 0 0 0 0
          0 0 0 0 0 0
          0 0 0 0 1 0
          0 1 0 0 0 0
          0 0 0 0 0 0
          0 1 0 0 0 0
          0 1 0 0 0 0
          0 0 0 0 0 0
          0 1 0 0 1 0
          0 0 0 0 0 0
          0 0 0 0 0 0
          0 1 0 0 0 0
          0 0 0 0 1 0
          0 0 0 0 0 0
          0 0 0 0 0 0
          0 0 0 0 1 0
          0 1 0 0 0 0
          0 0 0 0 0 0
          0 0 0 0 0 0
          0 0 0 0 1 0
          0 1 0 0 0 0
          0 0 0 0 0 0
          0 1 0 0 0 0
          0 1 0 0 0 0
          0 0 0 0 0 0
          0 0 0 0 0 0
          0 1 0 0 0 0
          0 1 0 0 0 0
          0 0 0 0 0 0
          0 1 0 0 0 0
          0 0 0 0 1 0
          0 0 0 0 1 0
          0 0 0 0 0 0
          0 1 0 0 0 0
          0 0 0 0 0 0
          0 1 0 0 1 0
          0 0 0 0 0 0
          0 0 0 0 0 0
          0 0 0 0 1 0
          0 0 0 0 1 0
          0 0 0 0 0 0
          0 1 0 0 1 0
          0 0 0 0 1 0
          0 1 0 0 1 0
          0 1 0 0 0 0
          0 0 0 0 0 0
          0 0 0 0 0 0
          0 0 0 0 0 0
          0 0 0 0 0 0
          0 0 0 0 0 0
          0 0 0 0 0 0
          0 0 0 0 0 0
          0 0 0 0 0 0
          0 0 0 0 0 0
          0 0 0 0 0 0
          0 0 0 0 0 0
          0 0 0 0 0 0
          0 0 0 0 0 0
          0 0 0 0 0 0
          0 0 0 0 0 0
          0 0 0 0 0 0
          0 0 0 0 0 0
          0 0 0 0 0 0
          0 0 0 0 0 0
          0 0 0 0 0 0
          0 0 0 0 0 0
          0 0 0 0 0 0
          0 0 0 0 0 0
          0 0 0
          <InformationKey name="L2_NORM_RANGE" location="vtkDataArray" length="2">
            <Value index="0">
              0
            </Value>
            <Value index="1">
              1
            </Value>
          </InformationKey>
        </DataArray>
        <DataArray type="Float64" Name="ale_FIXNO" NumberOfComponents="3" format="ascii" RangeMin="1.4142135623730951" RangeMax="1.4142135623730951">
          1 1 0 1 1 0
          1 1 0 -1 -1 0
          1 1 0 1 1 0
          -1 -1 0 -1 -1 0
          1 1 0 -1 -1 0
          1 1 0 -1 -1 0
          -1 -1 0 1 1 0
          1 1 0 -1 -1 0
          -1 -1 0 -1 -1 0
          -1 -1 0 1 1 0
          -1 -1 0 1 1 0
          -1 -1 0 -1 -1 0
          -1 -1 0 -1 -1 0
          -1 -1 0 -1 -1 0
          1 1 0 -1 -1 0
          -1 -1 0 -1 -1 0
          1 1 0 -1 -1 0
          1 1 0 -1 -1 0
          -1 -1 0 -1 -1 0
          1 1 0 -1 -1 0
          -1 -1 0 1 1 0
          -1 -1 0 -1 -1 0
          -1 -1 0 -1 -1 0
          1 1 0 -1 -1 0
          -1 -1 0 -1 -1 0
          -1 -1 0 -1 -1 0
          -1 -1 0 -1 -1 0
          -1 -1 0 -1 -1 0
          -1 -1 0 -1 -1 0
          1 1 0 -1 -1 0
          -1 -1 0 -1 -1 0
          -1 -1 0 -1 -1 0
          -1 -1 0 -1 -1 0
          -1 -1 0 -1 -1 0
          -1 -1 0 -1 -1 0
          -1 -1 0 -1 -1 0
          -1 -1 0 -1 -1 0
          -1 -1 0 -1 -1 0
          -1 -1 0 1 1 0
          1 1 0 -1 -1 0
          1 1 0 1 1 0
          -1 -1 0 1 1 0
          -1 -1 0 -1 -1 0
          1 1 0 -1 -1 0
          -1 -1 0 -1 -1 0
          -1 -1 0 1 1 0
          1 1 0 -1 -1 0
          -1 -1 0 -1 -1 0
          1 1 0 -1 -1 0
          1 1 0 -1 -1 0
          -1 -1 0 -1 -1 0
          1 1 0 1 1 0
          -1 -1 0 -1 -1 0
          -1 -1 0 -1 -1 0
          1 1 0 -1 -1 0
          -1 -1 0 1 1 0
          -1 -1 0 -1 -1 0
          1 1 0 -1 -1 0
          -1 -1 0 1 1 0
          1 1 0 -1 -1 0
          -1 -1 0 -1 -1 0
          -1 -1 0 1 1 0
          -1 -1 0 1 1 0
          1 1 0 -1 -1 0
          -1 -1 0 -1 -1 0
          1 1 0 -1 -1 0
          1 1 0 -1 -1 0
          -1 -1 0 -1 -1 0
          -1 -1 0 -1 -1 0
          1 1 0 -1 -1 0
          1 1 0 -1 -1 0
          -1 -1 0 -1 -1 0
          1 1 0 -1 -1 0
          -1 -1 0 1 1 0
          -1 -1 0 1 1 0
          -1 -1 0 -1 -1 0
          1 1 0 -1 -1 0
          -1 -1 0 -1 -1 0
          1 1 0 1 1 0
          -1 -1 0 -1 -1 0
          -1 -1 0 -1 -1 0
          -1 -1 0 1 1 0
          -1 -1 0 1 1 0
          -1 -1 0 -1 -1 0
          1 1 0 1 1 0
          -1 -1 0 1 1 0
          1 1 0 1 1 0
          1 1 0 -1 -1 0
          -1 -1 0 -1 -1 0
          -1 -1 0 -1 -1 0
          -1 -1 0 -1 -1 0
          -1 -1 0 -1 -1 0
          -1 -1 0 -1 -1 0
          -1 -1 0 -1 -1 0
          -1 -1 0 -1 -1 0
          1 1 0 -1 -1 0
          -1 -1 0 -1 -1 0
          1 1 0 -1 -1 0
          -1 -1 0 -1 -1 0
          -1 -1 0 -1 -1 0
          -1 -1 0 1 1 0
          -1 -1 0 -1 -1 0
          -1 -1 0 -1 -1 0
          -1 -1 0 -1 -1 0
          -1 -1 0 1 1 0
          -1 -1 0 -1 -1 0
          -1 -1 0 -1 -1 0
          1 1 0 -1 -1 0
          1 1 0 -1 -1 0
          -1 -1 0 1 1 0
          1 1 0 1 1 0
          1 1 0
          <InformationKey name="L2_NORM_RANGE" location="vtkDataArray" length="2">
            <Value index="0">
              1.4142135624
            </Value>
            <Value index="1">
              1.4142135624
            </Value>
          </InformationKey>
        </DataArray>
        <DataArray type="Float64" Name="Density" format="ascii" RangeMin="0.9797046811617633" RangeMax="1.020814164263884">
          1 0.9999999999969171 1 0.9999999999908056 0.9999999999462861 1
          1.0000000001031917 1.000000000154205 1.000000001926312 0.999999999985377 1 0.9999999999072368
          0.9999999984181956 0.999999976791919 1 1.0000000004487712 0.9999999543964608 0.9999999999597959
          0.9999999882011031 1.000000004237989 1.0000000026970235 1 1.0000000015081296 1.0000015986552981
          0.9999999999667416 0.9999999737749015 1.0000000028640776 0.9999999888785754 1.0000020682451403 1.000002399820782
          0.9999999700115517 1.0000000019736637 1 0.999999962632892 0.9999999999874314 0.9999999314923486
          1.0000000078912756 1.0000000228437524 0.9999999999597876 1.000001751495403 0.9999996546819255 1.000000001806117
          0.999998351663505 0.9999987134497572 0.9999999771068867 0.9999822585997376 0.9999475552295534 0.9999999869252748
          1.0000001058595935 1.000007211969133 1.0000148984560826 0.999999282111664 1.0000002027307948 1.0000070892702961
          1.000017630348643 1.0000000265362887 0.999955604298187 0.9999957641173589 0.9999999509742404 0.9999002696072167
          0.9999998967797062 0.9999948300104673 0.999800133171699 1.000000604745157 1.000005460436929 0.9999208438209111
          1.0000000406436607 0.998095670900461 1.0000305604395645 0.9989211925743886 0.9974107394957044 0.9997140780062818
          0.9996253336231608 0.9968321544198354 1.0000206846255515 1.0003757965283677 1.0000504421498075 0.9928660016299897
          0.9896463178626805 0.9962343088757678 0.9963332268645058 0.9867610912444912 0.9998887656945586 0.9999307561400375
          1.0011074052848519 0.9999876856433502 0.9842875463030081 1.0000038665694198 0.9998968291307253 0.9959200710861362
          1.0000010658731109 1.003564518992738 0.9823092036908654 1.000138435962527 1.0018267205547553 0.9998787115488829
          1.0070986324041895 0.9957289178485952 0.9808232847622081 0.9999999987632536 1.0001129697158198 1.0025747122721997
          1.0103916937057138 0.9799511362161265 0.9955217535480088 1.0000278509923732 0.9996489078229138 0.9998614335452433
          1.0134109314216408 1.003005788047737 0.9999866417738054 0.9797046811617633 1.0001529141582837 0.9953169703899858
          1.0005258578650231 0.9998440293873615 1.000003178512017 1.0159899425344803 0.9800107720619842 1.003490121984273
          0.9999242463943775 1.0000015981995676 0.9956151430759079 0.9999999832572399 1.0001262892590028 1.0180375145382374
          0.9809555291444282 1.0040328557907863 0.9996116292381484 0.9954785028178581 1.019525361926807 1.0003139584670349
          0.9824570686163676 0.999970878887892 0.9999799940147162 0.999586335406795 1.0043113778050987 1.0007759293731477
          1.020487677519732 0.9962306845047435 0.9844059258965714 1.0000027284324737 1.000145028867414 1.0042942672649464
          1.020814164263884 0.9998591474220128 0.9967291517241994 0.9869015260491415 1.0007368396363074 1.0204949989149203
          1.0044049450285695 0.9999829605070222 0.9897892276095157 1.0001154710443005 0.9998072924527986 0.9974727883178361
          1.01960650328877 0.9930429654940082 0.9999692925621364 1.0041738439923955 1.0004328808902667 0.9981564030740506
          1.0002199213394576 1.0181091600624723 1.0000060705800715 0.9965454836381544 0.9999309597333332 1.003875656946767
          1.016027048586722 1.0001640583242817 0.9988044519797761 1.0134941770683958 1.0037810090771753 1.0105715444992558
          1.007291576436427 1.00357224337468 1.00010097629008 0.9996052613936083 0.9999874999724931 0.9999229836390654
          1.0031371814249574 1.0003505185208554 1.0024224406697038 1.0010836925282562 1.0000920404758673 1.0017776552900481
          0.9999506667423826 0.9999685584823941 0.9999595737102962 1.0002384082274702 1.0000064088833962 0.9999215298869433
          1.0000527666009624 1.000051532693939 1 0.9999392713566914 1.000048233798153 0.999973420994024
          1.0000636361788762 1.0000007227654935 1.000007344482943 1 1.0009642977442113 0.9999393579672435
          1.0020252818004398 1.001113543305947 1.0008021785150127 0.9998820120175734 0.9999509051246789 1
          1.000670861000457 1.0006103243513125 0.9999254394854662 1.0018167203959116 1 1.0007196279803356
          0.9999239713170236 1.0004022501841934 1.0011115686146628 1 1.0005221526749069 1
          1
        </DataArray>
        <DataArray type="Float64" Name="Momentum" NumberOfComponents="3" format="ascii" RangeMin="7.025796353012111e-11" RangeMax="1.6333018061177484">
          7.652099571913509e-11 -7.096674089535188e-11 0 -1.802456465665207e-10 0 0
          6.998695006489028e-11 6.165083942200725e-12 0 -6.572505358838394e-10 4.220473134642842e-10 0
          -2.235908743753894e-9 0 0 -3.968788883612004e-10 -4.059369024907857e-11 0
          7.79841854093527e-9 -7.713174918151945e-9 0 6.982587190115707e-9 4.256764752988574e-9 0
          8.76646446181373e-8 0 0 -6.349743121525509e-10 -4.679486426506336e-11 0
          -2.0488348918621734e-10 2.4745730795095896e-10 0 -1.77271029631982e-9 4.5862173783299815e-10 0
          -5.695637280940259e-8 -8.538935106510324e-9 0 -0.0000012793420640878228 0 0
          -5.346690250627949e-10 -9.580034078968334e-11 0 1.797925079559011e-8 2.5804046736008268e-8 0
          -0.0000030450872422998183 -0.000001357470835948008 0 -2.158727003120473e-9 1.4591957329838629e-9 0
          -2.97362376394556e-7 -4.2503447733719823e-7 0 -0.000003257044187114531 0 0
          4.2571685624201966e-8 -1.4679278726687382e-8 0 -1.9951459231227224e-10 -1.4146475323187674e-10 0
          6.531733338759351e-8 -8.632765610623277e-8 0 0.00005790895585938917 0.000011899902161862734 0
          -2.4005351709085515e-9 2.046416368116255e-10 0 -0.0000010308715229744097 -0.000003882901770785131 0
          1.1471432942066796e-7 -4.8270818148774644e-8 0 -6.855127042346589e-8 -4.7372649067567884e-7 0
          0.00013423476079147922 0 0 0.00007225279682144181 0.000059749878847654576 0
          -7.222413405635504e-7 0.0000015421469745059977 0 -9.825102154772149e-8 -6.025745410800098e-8 0
          2.087418680727185e-10 1.925291476566154e-10 0 -0.000001879828535570433 6.285497785680355e-7 0
          -6.753138282527374e-10 0 0 -0.0000037291383576214513 -0.0000063912942813357605 0
          5.43332875896257e-7 4.422830908573611e-7 0 0.0000042371254703979165 -5.56630319177271e-7 0
          -2.2463885665307923e-9 0 0 0.00003788041396646316 0.00010015543872477743 0
          -0.000024317615592209712 -0.000007285132181231904 0 1.6017112004857043e-7 0 0
          -0.0000803230325099551 0.00005273068195773808 0 -0.00009075098388205144 0.00004160049102391488 0
          2.388228669926055e-7 0.0000022465830825602874 0 -0.001020049944123425 -0.0006428350641934722 0
          -0.003788980751921034 0 0 -5.257537863075469e-7 -9.108391682970629e-8 0
          0.000016569497533107293 -0.0000029017943023203044 0 0.00034077511080826597 -0.00008286892759099706 0
          0.00042527330505402235 -0.0004063459269967992 0 -0.000002123181601880896 0.00016200236039043935 0
          -0.0000022184333051930386 0.00003791477375545726 0 0.0003371347834916207 0.0001892200732097944 0
          0.0004090067659022107 -0.0005224635952108612 0 -0.0000022271024643038136 0.0000035849322328597454 0
          -0.003236845601486719 0.007488580089943634 0 -0.0013788339286221626 0.004728208287473291 0
          -0.0000023498894537272285 0 0 -0.006723075730642018 0.014103378245952619 0
          -0.0000036923138801703605 0.000002668124482510336 0 -0.00005575186584656983 -0.000013863890703189303 0
          -0.0114435101587251 0.021002063304649318 0 0.00005971266344162878 0.000024208838197607225 0
          0.0005659889427771193 0.008016865816297526 0 -0.004254809572448342 0.010323902603930447 0
          9.214959693999582e-7 4.241357680830275e-7 0 -0.10025592725068233 0.2532402436438269 0
          0.002849289992929701 0.0058363041043812776 0 -0.06530440964429096 0.21575633222959464 0
          -0.12856524488322504 0.293045895133114 0 -0.011430193335168546 0.03173137686674635 0
          -0.02352310264090077 0.1945676549287273 0 -0.12365715394458075 0.33328123299849427 0
          0.00019625626976111754 -0.0005034166898015789 0 0.02334484798277698 0.19266352619477273 0
          0.0055157092675647565 0.0072907634141253595 0 0 1.5885847693586401 0
          0 1.583433278033018 0 -0.12985743651244613 0.3818243631435965 0
          0 1.5941323268240404 0 0 1.578816917865304 0
          -0.004020268570942965 0.015278418628245666 0 0 1.5998883706457134 0
          0.06873256688227575 0.20810982732196692 0 -0.00026350656607909137 -0.00006538274261947989 0
          0 1.5748592480348185 0 0.00023946975469110867 0.0003214890716524224 0
          -0.004730174046345267 -0.003071185639230871 0 -0.09240727056115262 0.40827168825786314 0
          0.00007172829689560527 0.00006275101709878099 0 0 1.605702388160448 0
          0 1.5716939015156857 0 0.013903190017839052 0.02025068748674911 0
          0.10496140085372543 0.24038403516813245 0 -0.0012960947896434203 0.016333355356557114 0
          0 1.6113569666528136 0 -0.06388854360721953 0.4291255946451999 0
          0 1.5693164324768731 0 -6.007637485934387e-7 -0.000002961120835272282 0
          0.006818569564191494 0.011630469958084635 0 0.13485108836472384 0.29883545360722585 0
          0 1.6166258619715954 0 0 1.567920995535083 0
          -0.029492075761090943 0.44649504155768094 0 0.00003565896349479191 -0.0009447634900927315 0
          0.00015925290192742034 0.03963301051451674 0 -0.006927481771672677 -0.000586331464140304 0
          0 1.6214566397832244 0 0.13279522777647762 0.32908199194795734 0
          -0.0003289773376171097 -0.000267110167230108 0 0 1.5675266676549309 0
          0.011179186406436375 0.020277883535695932 0 0.027176404901593 0.46819464724373944 0
          0.02219832484420061 0 0 0.0010713187193708926 0.017954731847253463 0
          0.00011371024800730396 -0.000057574466707997676 0 0 1.6255830553993673 0
          0 1.568016412838405 0 0.12151273173086363 0.37123589013771263 0
          -0.006940610117771139 -0.0013085143070750644 0 0.00007118244119045952 0.00008838271702970442 0
          0.05454368245812533 0.4405279049929649 0 -0.000003863051491125103 0 0
          0.004543016564341786 0.015641898909477384 0 0 1.6288591688869833 0
          0 1.5695280233774391 0 0.10360152717867643 0.416311806385654 0
          0.011496504758265788 0.03812896428426593 0 0.10399176821093402 0.4559997871602367 0
          0 1.631239723460037 0 0.008460564660147718 0.03754313124911174 0
          0 1.5719304852723939 0 -0.0016989706135811557 -0.001019354623015087 0
          -0.00029031303433534197 -0.0006877262594995144 0 0.015361596601907055 0.046430168957919744 0
          0.057252549112372486 0.44659219633567176 0 0.04503544676336429 0.0068387832720860926 0
          0 1.632779427601107 0 0.12723469511084703 0.3827553972533271 0
          0 1.5750486552851695 0 0.00005566433260940355 -0.00015911759000412855 0
          0.003181986002899716 0.017552103023360216 0 0.019247268043811307 0.4440511246096351 0
          0 1.6333018061177484 0 0.007061340327207142 0.014134281123129634 0
          0.13690473317160737 0.3511667458505523 0 0 1.5790416134348848 0
          0.042367336641620734 -0.004336253461014548 0 0 1.6327911418272638 0
          -0.020720591369561024 0.4534209903331916 0 -0.00020531709780635291 -0.0007079920915943491 0
          0 1.583661933508019 0 -0.0019009695213832883 0.015896501628253287 0
          0.015163986740362522 0.02484698943718776 0 0.12718071992148003 0.28470411069376933 0
          0 1.6313695495710812 0 0 1.5888679113925517 0
          -0.0020990710148211917 -0.0026386927439239227 0 -0.06825910245357565 0.42851609126484275 0
          0.023602066290626597 0.017842850090308192 0 0.10494005292505955 0.24214074061798802 0
          -0.002162271255928352 0.02823502012161331 0 0 1.628973801665628 0
          0.00008449862789740986 0.00007043594544956446 0 0 1.5944719374837446 0
          0.0057502688105253216 0.009647355928397671 0 -0.09777300466537672 0.39966967504711415 0
          0 1.6256424250518133 0 0 1.6002616539447085 0
          0.07215887005854894 0.2170384473524701 0 0 1.6215898327481677 0
          0 1.6060487721138612 0 0 1.6169136230903252 0
          0 1.611665676942468 0 -0.1158996084271681 0.3702152876943541 0
          -0.002871274216859843 0.013842892238749063 0 0.02151555945591732 0.1997231422433635 0
          0.00009306051514360294 -0.0007198421715470433 0 0.0042436241889367106 0.006135237796211558 0
          -0.1387418756616036 0.3342534320941469 0 -0.023906251057710638 0.19649379960891444 0
          -0.12080765671840507 0.2811707828026462 0 -0.06526201682532162 0.21312419461169593 0
          -0.004994531715016875 0.012887054396331149 0 -0.09914316829616036 0.24290344894468927 0
          0.004842977743958175 0.012785847308042355 0 -0.0019498194961869533 -0.00006031908422552945 0
          -0.002817338823059334 0.0014172567049933035 0 -0.012252961359318144 0.026965564575015706 0
          0.0002646946050237607 0 0 -0.007109395976671878 0.004104135515891197 0
          0.003961531919507108 0.0007125541295596597 0 -0.004337049089086561 0.009399138410258528 0
          1 0 0 -0.0026277964229767335 0.000708594218388528 0
          -0.0017753979610509684 0.009515284879484475 0 -0.001321302725016133 0.003287469407307446 0
          -0.0077686761074930305 0.011697139795168766 0 -0.0043721038051719304 0.008248571420483759 0
          -0.00009025415723405231 0.000028717131330466175 0 1 0 0
          0.05049742868132596 -0.026817225690302513 0 -0.00226925203247741 0.002662957455955852 0
          0.09619964704706338 0.006922129264251127 0 0.0552350238004633 -0.01957294817493776 0
          0.045547407983669574 0.02371795377118744 0 -0.006635862461281983 0.0014768444186096358 0
          -0.004432175370651121 -0.0008993906867991982 0 1 0 0
          0.02703630969855067 -0.017737178502285816 0 0.024502354101466197 -0.01769523432911785 0
          -0.004260929519081924 0.0035213668797920844 0 0.08520834735116596 0.008900263163412721 0
          1 0 0 0.047561901536524634 0.01121078454187765 0
          -0.004378806648035932 0 0 0.016281201280347688 -0.004360994108965483 0
          0.04485017541676966 -0.007160863064281672 0 1 0 0
          0.03844999265580716 0 0 1 0 0
          1 0 0
          <InformationKey name="L2_NORM_RANGE" location="vtkDataArray" length="2">
            <Value index="0">
              7.025796353e-11
            </Value>
            <Value index="1">
              1.6333018061
            </Value>
          </InformationKey>
        </DataArray>
        <DataArray type="Float64" Name="Energy" format="ascii" RangeMin="3616.4489122649616" RangeMax="3831.6860542505797">
          3722.83000000551 3722.8299999838546 3722.8300000082318 3722.829999951851 3722.829999718708 3722.829999962479
          3722.8300005403985 3722.8300008075466 3722.8300100877786 3722.8299999234264 3722.82999996272 3722.8299995142133
          3722.82999171629 3722.8298784627304 3722.829999956976 3722.8300023501474 3722.829761182687 3722.82999978946
          3722.8299382107957 3722.8300221997924 3722.830014123865 3722.829999985494 3722.8300078978086 3722.838371880268
          3722.82999982583 3722.8298626691612 3722.8300149987253 3722.829941758611 3722.8408307619134 3722.842567383487
          3722.8298429553397 3722.8300103356746 3722.8300000234635 3722.8298043140394 3722.829999934179 3722.8296412415907
          3722.830041325473 3722.8301196234784 3722.829999789419 3722.8391723385776 3722.8281915930415 3722.8300094583183
          3722.8213680615327 3722.8232627967977 3722.82988011281 3722.7370799684622 3722.555318626493 3722.829931529757
          3722.830554342858 3722.8677664547527 3722.9080133309485 3722.8262409967742 3722.831062011948 3722.8671220765104
          3722.922313314903 3722.830138971493 3722.5973391581765 3722.807911850079 3722.8297432594195 3722.308513128639
          3722.829459454743 3722.8029244912914 3721.784429500063 3722.8331669403306 3722.8590899452333 3722.415044785989
          3722.8302128725995 3713.0780224502496 3722.9904418115193 3717.3716096124367 3709.537318590567 3721.3341708765506
          3721.0362771182704 3706.5366738353614 3722.9383126124085 3724.9688990583536 3723.0948104511303 3684.969391122853
          3668.174698876939 3703.461818900116 3703.0812023644835 3653.1402853038994 3722.247191932633 3721.9010512609457
          3728.815629977072 3722.765508254531 3640.2702803703096 3722.8502454300105 3722.289578502314 3701.835955950198
          3722.8355818468167 3740.937243350297 3629.9816167808685 3723.5571103572274 3732.617265163558 3722.194635816447
          3759.4759020122483 3700.852938669413 3622.256327917425 3722.8299935512005 3723.422874852577 3736.587439170609
          3776.7754124762314 3617.7255927737538 3699.7907179920994 3722.9758201567697 3720.993875589343 3722.104171661145
          3792.650425520872 3738.869958069085 3722.760040127187 3616.4489122649616 3723.6330399518347 3698.7400519390403
          3725.5961970120234 3722.01322113711 3722.8466451454287 3806.2312541694623 3618.033706577967 3741.446988480345
          3722.4331887380554 3722.8383695799885 3700.270089760816 3722.8299123265456 3723.4930981014772 3817.028325221735
          3622.941047819767 3744.3434228745123 3720.7994328032137 3699.5803995172278 3824.8824876703493 3724.4789834605613
          3630.7486774651657 3722.6774535739964 3722.725223774535 3720.668144389028 3745.8277862278246 3726.916687654091
          3829.9597697378977 3703.4459808309284 3640.871515026366 3722.8442879010986 3723.591496650827 3745.731596429859
          3831.6860542505797 3722.092783719316 3706.0158520922037 3653.8636420821076 3726.7017402522474 3830.0057644551407
          3746.3238595855837 3722.7407644328337 3668.9093234862407 3723.4364568944525 3721.8225501727925 3709.852020452829
          3825.315011195093 3685.888353871439 3722.669173611992 3745.090752599046 3725.1051633552556 3713.388475678929
          3723.9848408231724 3817.416268149531 3722.8617904938205 3704.1909096621957 3722.468734836847 3743.4964879339614
          3806.4429806354 3723.122799609114 3716.762308350286 3793.1053501719825 3742.072814340373 3777.725198761107
          3760.4920182441083 3741.879403467269 3723.3601468605198 3720.9419123737034 3722.7645324508594 3722.4269554218217
          3739.574568310102 3724.8379501292297 3735.7687873088516 3728.693016579004 3723.313212248708 3732.3552726091143
          3722.5725649682254 3722.6653318862395 3722.618166547613 3724.081486777347 3722.863561623695 3722.419259725793
          3723.1064267798433 3723.1005573389134 3723.33 3722.5119221669765 3723.083259283351 3722.6907864152813
          3723.1641398919974 3722.834255569081 3722.868458898334 3723.33 3727.8981555003475 3722.51234446965
          3733.507789626117 3728.6809192162714 3727.048089796908 3722.2117638224777 3722.5728280678436 3723.33
          3726.352303452082 3726.0346818989647 3722.4393882005315 3732.4052838167554 3723.33 3726.6150401354976
          3722.4317900824512 3724.9457128061913 3728.6779410195218 3723.33 3725.575935663668 3723.33
          3723.33
        </DataArray>
        <DataArray type="Float64" Name="ALEdispl" NumberOfComponents="3" format="ascii" RangeMin="0" RangeMax="0.0008811384258951628">
          0 0 0 0 0 0
          0 0 0 0 0.000014031754827714275 0
          0 0 0 0 0 0
          0 0.00002903490421125754 0 0 0.00003283526359900556 0
          0 0 0 0 0.000021894187140756688 0
          0 0 0 0 0.00005055940991528438 0
          0 0.00007983201911154513 0 0 0 0
          0 0 0 0 0.00011065135836953448 0
          0 0.00010351137644872193 0 0 0.00003197682506636782 0
          0 0.00015575581098269432 0 0 0 0
          0 0.00016905521238025413 0 0 0 0
          0 0.00010320400304357045 0 0 0.00011258270716053694 0
          0 0.000013552050611977513 0 0 0.00021535119047161354 0
          0 0.00002807849275401949 0 0 0.00028269951122523106 0
          0 0 0 0 0.000237856376648226 0
          0 0.00018459769915522224 0 0 0.00028474415497376215 0
          0 0 0 0 0.00008799849214616324 0
          0 0 0 0 0.0003399305621045616 0
          0 0.0003653984158677561 0 0 0.0003974837244334143 0
          0 0 0 0 0.00036392215357318296 0
          0 0.000492480912592547 0 0 0 0
          0 0.0004774440095121211 0 0 0.0005171451968013504 0
          0 0.00028146063962181393 0 0 0.00013046149648591486 0
          0 0 0 0 0.0004019584983468841 0
          0 0.0005075290774837178 0 0 0.0006243828276451042 0
          0 0.0006186012056190981 0 0 0.00047961998023852916 0
          0 0.0006287910738554706 0 0 0.00027370303123302293 0
          0 0.0006151554083695783 0 0 0.00015291921101033042 0
          0 0.0007189563479312343 0 0 0.0007160411540523604 0
          0 0 0 0 0.0007321636105638384 0
          0 0.000390277402532126 0 0 0.0006241922748638251 0
          0 0.0007283454122897001 0 0 0.0005103579560021784 0
          0 0.0007224402560196795 0 0 0.0007101583825346361 0
          0 0.00026111738783396774 0 0 0.0008077204953060894 0
          0 0.0007217947524154697 0 0 0.0008084755953025264 0
          0 0.0008064250328056514 0 0 0.000719765222191281 0
          0 0.0008088385907491408 0 0 0.0008043682309359683 0
          0 0.0005847790458892228 0 0 0.0008088256855750543 0
          0 0.0007206089883305118 0 0 0.0008811384258951626 0
          0 0.0008811384258951626 0 0 0.000802355026279177 0
          0 0.0008811384258951627 0 0 0.0008811384258951628 0
          0 0.0006993589454366862 0 0 0.0008811384258951626 0
          0 0.0008083914997626039 0 0 0.0006316590895452565 0
          0 0.0008811384258951627 0 0 0.00041384706324505314 0
          0 0.00014916401562879104 0 0 0.0007996732889148461 0
          0 0.0005004424360241519 0 0 0.0008811384258951625 0
          0 0.0008811384258951626 0 0 0.0007310021939811689 0
          0 0.0008074881911193926 0 0 0.0006926508527929531 0
          0 0.0008811384258951627 0 0 0.0007968097011742844 0
          0 0.0008811384258951626 0 0 0.0003705281010511475 0
          0 0.0007150447832340217 0 0 0.0008065299812760615 0
          0 0.0008811384258951627 0 0 0.0008811384258951626 0
          0 0.0007931087564866307 0 0 0.0005608351829769073 0
          0 0.0006982257281460324 0 0 0.00027401225411950904 0
          0 0.0008811384258951627 0 0 0.0008047718215332129 0
          0 0.0006203836481960689 0 0 0.0008811384258951624 0
          0 0.0007114638666814661 0 0 0.0007892841612546205 0
          0 0 0 0 0.0006745626380406298 0
          0 0.00022646895014745758 0 0 0.0008811384258951627 0
          0 0.0008811384258951626 0 0 0.000802510598567105 0
          0 0.0004065568405005508 0 0 0.0004731170272269539 0
          0 0.0007840246760727278 0 0 0 0
          0 0.000704957439406367 0 0 0.0008811384258951625 0
          0 0.0008811384258951626 0 0 0.0007998116706396843 0
          0 0.0006775547522081374 0 0 0.0007788826152461304 0
          0 0.0008811384258951627 0 0 0.0007149636707928181 0
          0 0.0008811384258951625 0 0 0.0005503379328681029 0
          0 0.0005942762537562443 0 0 0.0006802782677709162 0
          0 0.0007970151558651442 0 0 0.00012151758517895272 0
          0 0.0008811384258951626 0 0 0.0007729186065205212 0
          0 0.0008811384258951625 0 0 0.00031197447408860157 0
          0 0.0006928772336314928 0 0 0.0007936094447620773 0
          0 0.0008811384258951625 0 0 0.0006363410213793522 0