<?xml version="1.0"?>
<VTKFile type="UnstructuredGrid" version="0.1" byte_order="LittleEndian" header_type="UInt32" compressor="vtkZLibDataCompressor">
  <UnstructuredGrid>
    <Piece NumberOfPoints="223" NumberOfCells="380">
      <PointData>
        <DataArray type="Float64" Name="ale_BC" NumberOfComponents="3" format="ascii" RangeMin="0" RangeMax="1">
          0 0 0 0 0 0
          0 0 0 0 0 0
          0 0 0 0 0 0
          0 0 0 0 0 0
          0 0 0 0 0 0
          0 0 0 0 0 0
          0 0 0 0 0 0
          0 0 0 0 0 0
          0 0 0 0 0 0
          0 0 0 0 0 0
          0 0 0 0 0 0
          0 0 0 0 0 0
          0 0 0 0 0 0
          0 0 0 0 0 0
          0 0 0 0 0 0
          0 0 0 0 0 0
          0 0 0 0 0 0
          0 0 0 0 0 0
          0 0 0 0 0 0
          0 0 0 0 0 0
          0 0 0 0 0 0
          0 0 0 0 0 0
          0 0 0 0 0 0
          0 0 0 0 0 0
          0 0 0 0 0 0
          0 0 0 0 0 0
          0 0 0 0 0 0
          0 0 0 0 0 0
          0 0 0 0 0 0
          0 0 0 0 0 0
          0 0 0 0 0 0
          0 0 0 0 0 0
          0 0 0 0 0 0
          0 0 0 0 0 0
          0 0 0 0 0 0
          0 0 0 0 0 0
          0 0 0 0 0 0
          0 0 0 0 0 0
          0 0 0 0 1 0
          0 1 0 0 0 0
          0 1 0 0 1 0
          0 0 0 0 1 0
          0 0 0 0 0 0
          0 1 0 0 0 0
          0 0 0 0 0 0
          0 0 0 0 1 0
          0 1 0 0 0 0
          0 0 0 0 0 0
          0 1 0 0 0 0
          0 1 0 0 0 0
          0 0 0 0 0 0
          0 1 0 0 1 0
          0 0 0 0 0 0
          0 0 0 0 0 0
          0 1 0 0 0 0
          0 0 0 0 1 0
          0 0 0 0 0 0
          0 0 0 0 0 0
          0 0 0 0 1 0
          0 1 0 0 0 0
          0 0 0 0 0 0
          0 0 0 0 0 0
          0 0 0 0 1 0
          0 1 0 0 0 0
          0 0 0 0 0 0
          0 1 0 0 0 0
          0 1 0 0 0 0
          0 0 0 0 0 0
          0 0 0 0 0 0
          0 1 0 0 0 0
          0 1 0 0 0 0
          0 0 0 0 0 0
          0 1 0 0 0 0
          0 0 0 0 1 0
          0 0 0 0 1 0
          0 0 0 0 0 0
          0 1 0 0 0 0
          0 0 0 0 0 0
          0 1 0 0 1 0
          0 0 0 0 0 0
          0 0 0 0 0 0
          0 0 0 0 1 0
          0 0 0 0 1 0
          0 0 0 0 0 0
          0 1 0 0 1 0
          0 0 0 0 1 0
          0 1 0 0 1 0
          0 1 0 0 0 0
          0 0 0 0 0 0
          0 0 0 0 0 0
          0 0 0 0 0 0
          0 0 0 0 0 0
          0 0 0 0 0 0
          0 0 0 0 0 0
          0 0 0 0 0 0
          0 0 0 0 0 0
          0 0 0 0 0 0
          0 0 0 0 0 0
          0 0 0 0 0 0
          0 0 0 0 0 0
          0 0 0 0 0 0
          0 0 0 0 0 0
          0 0 0 0 0 0
          0 0 0 0 0 0
          0 0 0 0 0 0
          0 0 0 0 0 0
          0 0 0 0 0 0
          0 0 0 0 0 0
          0 0 0 0 0 0
          0 0 0 0 0 0
          0 0 0 0 0 0
          0 0 0
          <InformationKey name="L2_NORM_RANGE" location="vtkDataArray" length="2">
            <Value index="0">
              0
            </Value>
            <Value index="1">
              1
            </Value>
          </InformationKey>
        </DataArray>
        <DataArray type="Float64" Name="ale_FIXNO" NumberOfComponents="3" format="ascii" RangeMin="1.4142135623730951" RangeMax="1.4142135623730951">
          1 1 0 1 1 0
          1 1 0 -1 -1 0
          1 1 0 1 1 0
          -1 -1 0 -1 -1 0
          1 1 0 -1 -1 0
          1 1 0 -1 -1 0
          -1 -1 0 1 1 0
          1 1 0 -1 -1 0
          -1 -1 0 -1 -1 0
          -1 -1 0 1 1 0
          -1 -1 0 1 1 0
          -1 -1 0 -1 -1 0
          -1 -1 0 -1 -1 0
          -1 -1 0 -1 -1 0
          1 1 0 -1 -1 0
          -1 -1 0 -1 -1 0
          1 1 0 -1 -1 0
          1 1 0 -1 -1 0
          -1 -1 0 -1 -1 0
          1 1 0 -1 -1 0
          -1 -1 0 1 1 0
          -1 -1 0 -1 -1 0
          -1 -1 0 -1 -1 0
          1 1 0 -1 -1 0
          -1 -1 0 -1 -1 0
          -1 -1 0 -1 -1 0
          -1 -1 0 -1 -1 0
          -1 -1 0 -1 -1 0
          -1 -1 0 -1 -1 0
          1 1 0 -1 -1 0
          -1 -1 0 -1 -1 0
          -1 -1 0 -1 -1 0
          -1 -1 0 -1 -1 0
          -1 -1 0 -1 -1 0
          -1 -1 0 -1 -1 0
          -1 -1 0 -1 -1 0
          -1 -1 0 -1 -1 0
          -1 -1 0 -1 -1 0
          -1 -1 0 1 1 0
          1 1 0 -1 -1 0
          1 1 0 1 1 0
          -1 -1 0 1 1 0
          -1 -1 0 -1 -1 0
          1 1 0 -1 -1 0
          -1 -1 0 -1 -1 0
          -1 -1 0 1 1 0
          1 1 0 -1 -1 0
          -1 -1 0 -1 -1 0
          1 1 0 -1 -1 0
          1 1 0 -1 -1 0
          -1 -1 0 -1 -1 0
          1 1 0 1 1 0
          -1 -1 0 -1 -1 0
          -1 -1 0 -1 -1 0
          1 1 0 -1 -1 0
          -1 -1 0 1 1 0
          -1 -1 0 -1 -1 0
          1 1 0 -1 -1 0
          -1 -1 0 1 1 0
          1 1 0 -1 -1 0
          -1 -1 0 -1 -1 0
          -1 -1 0 1 1 0
          -1 -1 0 1 1 0
          1 1 0 -1 -1 0
          -1 -1 0 -1 -1 0
          1 1 0 -1 -1 0
          1 1 0 -1 -1 0
          -1 -1 0 -1 -1 0
          -1 -1 0 -1 -1 0
          1 1 0 -1 -1 0
          1 1 0 -1 -1 0
          -1 -1 0 -1 -1 0
          1 1 0 -1 -1 0
          -1 -1 0 1 1 0
          -1 -1 0 1 1 0
          -1 -1 0 -1 -1 0
          1 1 0 -1 -1 0
          -1 -1 0 -1 -1 0
          1 1 0 1 1 0
          -1 -1 0 -1 -1 0
          -1 -1 0 -1 -1 0
          -1 -1 0 1 1 0
          -1 -1 0 1 1 0
          -1 -1 0 -1 -1 0
          1 1 0 1 1 0
          -1 -1 0 1 1 0
          1 1 0 1 1 0
          1 1 0 -1 -1 0
          -1 -1 0 -1 -1 0
          -1 -1 0 -1 -1 0
          -1 -1 0 -1 -1 0
          -1 -1 0 -1 -1 0
          -1 -1 0 -1 -1 0
          -1 -1 0 -1 -1 0
          -1 -1 0 -1 -1 0
          1 1 0 -1 -1 0
          -1 -1 0 -1 -1 0
          1 1 0 -1 -1 0
          -1 -1 0 -1 -1 0
          -1 -1 0 -1 -1 0
          -1 -1 0 1 1 0
          -1 -1 0 -1 -1 0
          -1 -1 0 -1 -1 0
          -1 -1 0 -1 -1 0
          -1 -1 0 1 1 0
          -1 -1 0 -1 -1 0
          -1 -1 0 -1 -1 0
          1 1 0 -1 -1 0
          1 1 0 -1 -1 0
          -1 -1 0 1 1 0
          1 1 0 1 1 0
          1 1 0
          <InformationKey name="L2_NORM_RANGE" location="vtkDataArray" length="2">
            <Value index="0">
              1.4142135624
            </Value>
            <Value index="1">
              1.4142135624
            </Value>
          </InformationKey>
        </DataArray>
        <DataArray type="Float64" Name="Density" format="ascii" RangeMin="0.9769481064505762" RangeMax="1.0237327302095482">
          1 0.999999999991258 1 0.9999999999814496 0.9999999999607029 1
          1.000000000236565 1.0000000002628293 1.0000000028575453 0.9999999999714057 1 0.9999999999484385
          0.9999999971152369 0.9999999616317355 1 1.0000000007493366 0.9999999490236278 0.9999999999924605
          0.9999999807694554 1.000000095905759 1.0000000036167924 1 1.0000000020696727 1.000001992992981
          0.9999999999861318 1.0000000009436896 1.0000000040741306 0.9999999856519576 1.0000021658895577 1.0000027443127142
          0.9999999548860711 1.000000000976646 1 0.9999999414867837 0.9999999999709042 0.9999998640152384
          1.0000000090222574 0.9999999064097392 1.000000000046153 1.0000023788316876 0.9999996132386982 1.0000000020646485
          0.9999983825176634 0.9999989115385488 0.999999956581521 0.9999769133364628 0.9999385791900913 1.0000000233905986
          1.0000000003656795 1.0000122816303947 1.0000249606029774 1.0000007104451845 1.00000053239867 1.0000042754022267
          1.0000283899627185 1.0000001540344368 0.9998032398559588 0.9999452485419118 0.9999999222290523 0.9997302271885216
          0.9999999475215211 0.9999916514252899 0.9994732678981905 1.0000003164554645 1.0000092872278084 0.9996905989382595
          1.0000001235492841 0.9972069890006238 1.000088708757641 0.998392299728233 0.9961857369492129 0.9992537012885387
          0.9994496802414368 0.9953505932763086 1.0000365516037506 1.0005485964117704 1.0001635906781916 0.9919456774181844
          0.9882899390303398 0.9944864411167036 0.9958747275007303 0.9850110688539682 0.9996024889132942 0.9999522878376212
          1.0016261738163816 0.9999818039851557 0.982182114252929 1.0000009823748146 0.9998826412086538 0.994037369980108
          1.000000463295798 1.0040689771129347 0.9799317475726722 1.0003948422141296 1.0026986720285436 0.999589037848733
          1.0080732723993733 0.993764470301625 0.978200015865586 1.0000002922445843 1.0003296110471414 1.0037824939339526
          1.0117892137246836 0.9771975819359832 0.9934689402150844 1.0000383461939242 0.9991385379625624 0.9998409263323507
          1.01523453769667 1.0044337949099538 0.9999805204555712 0.9769481064505762 1.0004976083830366 0.9932074598558729
          1.0006726331163918 0.999524018333988 1.0000035478688178 1.0181917559601106 0.9772826669768573 1.0051400641064827
          0.9999129530192274 1.0000014193912952 0.993602092845721 1.0000001004892416 1.0003987407166426 1.0205343808575966
          0.9783960141103489 1.0059230930878456 0.9990876097008126 0.9934465763792255 1.0222253890463529 1.0007838748049107
          0.9801318093965944 0.999966839601695 0.999969231269098 0.9990438734079158 1.006326012369868 1.0009893331598971
          1.0233573310635844 0.994487136934545 0.9823230888133643 1.0000030508313433 1.0004547556917862 1.006309716728278
          1.0237327302095482 0.9995937692350333 0.9952334868461232 0.9851721345511211 1.000938186966289 1.0233552240452033
          1.0064605249651333 0.9999724716915757 0.9884282625960947 1.0003989529803279 0.9994777505063221 0.9962892437924663
          1.0223499808689842 0.9921167093715153 0.9999647152627019 1.0061461568269894 1.0005752031502075 0.9972973996691658
          1.0006244091466927 1.0206312501096384 1.0000063715909726 0.9960820918439048 0.9997760651532582 1.0057170752644815
          1.0182170631743577 1.0001781970482302 0.9982578049708182 1.0153259166128248 1.0042817564108584 1.012005339417411
          1.0082718648718727 1.0052739323185298 1.0003524392546161 0.9994160831260541 0.9999750769610661 0.9998334097536055
          1.0046363903897508 1.00052264458167 1.003591271664018 1.0016076469444741 1.000345307752477 1.002632845728732
          0.999886165601779 0.9999609596643557 0.9999905689174581 1.00063277227772 1.0000070480332734 0.99993015191946
          1.0001439026598724 1.0002412532937792 1 0.9999238728240303 1.000152216894323 0.9999667647935776
          1.0002821000475839 1.000113655124248 1.0000030502157329 1 1.0012255775873633 0.9999330782150341
          1.0025486673444994 1.0014554505938635 1.0010399930558427 0.9999034040910142 0.9999500775406298 1
          1.0008508070505118 1.0008147387668727 0.9999265225796738 1.0022997614202915 1 1.0009237169364658
          0.9999082200734284 1.0005175373906776 1.001410688141179 1 1.0006639392110592 1
          1
        </DataArray>
        <DataArray type="Float64" Name="Momentum" NumberOfComponents="3" format="ascii" RangeMin="1.2402626741787454e-10" RangeMax="1.637970905441659">
          1.8163255146444535e-10 -1.708308292733054e-10 0 -4.741448553059945e-10 0 0
          1.1838848624973018e-10 3.696865338509882e-11 0 -1.2205636989262585e-9 6.226619750148812e-10 0
          -1.3814470036153173e-9 0 0 -6.165554262610351e-10 -9.533191709194593e-11 0
          1.689026091320308e-8 -1.0645206029288227e-8 0 1.1925781784111522e-8 7.225608703878426e-9 0
          1.2741833403672595e-7 0 0 -1.3355151081424566e-9 2.3555064312459663e-10 0
          -5.899685748418183e-10 5.878930080429491e-10 0 -1.9778154093935338e-10 -1.2901120171737605e-9 0
          -1.0814938587338145e-7 -2.024940351606772e-8 0 -0.0000021375198934776524 0 0
          -1.337650782949176e-9 -2.6267651949149317e-10 0 2.7757160961070144e-8 3.8085838018219926e-8 0
          -0.0000034130285731264243 -0.0000018301829708186246 0 -5.529796903141202e-10 7.931224157994229e-10 0
          -4.926583815616238e-7 -6.888204108292246e-7 0 -2.7264088226271596e-7 0 0
          5.805131590788504e-8 -1.7446992680165837e-8 0 -5.175165802223057e-10 -3.1876649113351233e-10 0
          8.830365275928697e-8 -1.1672875933412457e-7 0 0.00007323265741927645 0.000017486382507128997 0
          -1.7159330351412554e-9 1.8598389018596623e-10 0 6.743941984801804e-7 -0.000003205581213089254 0
          1.6088342383550475e-7 -6.986265231837047e-8 0 1.8679560084769173e-7 -7.911774138253714e-7 0
          0.00013783875236960544 0 0 0.00008595419177212246 0.00007194497612362907 0
          -0.000001088474863907519 0.000002257192044830222 0 -2.171713848862406e-7 -5.23050425158206e-8 0
          3.952856570699305e-10 3.7120075661987014e-10 0 -0.0000029209823650035926 0.0000010480846989457376 0
          -1.519999856684414e-9 0 0 -0.000007194469140714235 -0.0000015651808078848718 0
          6.132729066075881e-7 5.87086629623568e-7 0 -0.000004115767780063251 -0.0000011891969092756312 0
          3.050128747510561e-9 0 0 0.00006945734178801053 0.0001351002306074501 0
          -0.00002920431768770274 -0.000011423465301791401 0 2.1701545843163172e-7 0 0
          -0.00009125196650760516 0.000054351227957303657 0 -0.00009184773534933107 0.000035099683684484586 0
          -3.232821916208597e-8 0.0000034303084996662812 0 -0.001312897127536413 -0.0007771015480609576 0
          -0.004567408015902567 0 0 0.000002085918858848706 5.146486781171251e-7 0
          0.000018563466189354405 -0.000006573824911488825 0 0.0007443559144474614 -0.00010080786853742221 0
          0.0009111557087050029 -0.0007604805633193604 0 0.000042052309908789505 0.00021051146026153465 0
          0.000017411800100226103 0.00013975820692288757 0 0.00018553327344724687 0.0001695759216336098 0
          0.0007480897096578899 -0.0009143706715311674 0 0.0000034431689210212408 9.20141752538146e-7 0
          -0.01020727451326018 0.015217614821536558 0 -0.0038633457709353687 0.008085992098431456 0
          -0.0000037170073473854544 0 0 -0.0162387906619589 0.02309604303322197 0
          0.0000024793049193057606 0.0000073199570560712 0 -0.00017115705028105624 0.00002968671072328333 0
          -0.026736108534130158 0.038518346143821755 0 0.00005716902442766587 0.000026178436339249528 0
          0.0008339694699971441 0.011861894044656183 0 -0.012384956120020609 0.022887256403803933 0
          0.0000034567961856320417 -0.0000052645877194882505 0 -0.12874238608124797 0.3108519802775986 0
          0.006239084467641579 0.009214560667335163 0 -0.08339470016049759 0.2643663819637051 0
          -0.1628344598102812 0.3617720052369743 0 -0.025438926276767335 0.061088335417462544 0
          -0.030525128802724733 0.2389915609625107 0 -0.15966776666795082 0.41360632938154657 0
          0.0004230462588327555 -0.0010389158480523131 0 0.02908536659026949 0.2364886254750893 0
          0.011645360567175392 0.012759027513856293 0 0 1.5871116663985403 0
          0 1.5812624902019676 0 -0.16375963387578105 0.47472279708874765 0
          0 1.5933981409160796 0 0 1.5760163026052165 0
          -0.010010027041241687 0.033490694233093775 0 0 1.599922231628351 0
          0.0862713703104333 0.25616538434144137 0 -0.0004888936732755036 -0.00005161106599474508 0
          0 1.5714899792860684 0 0.00001041080520658826 0.00030659031578043276 0
          -0.005307949364692818 -0.0037966220491326068 0 -0.11906896204361475 0.5103491561515962 0
          0.00006328083596488524 0.00004943711316980275 0 0 1.6065089285861913 0
          0 1.5678893958133864 0 0.028468326679921975 0.03415623526063623 0
          0.1317133806669868 0.2963611704893149 0 -0.003601324350386657 0.035544678574547336 0
          0 1.6129157953224313 0 -0.08158554352820499 0.5376158718907956 0
          0 1.5651186275566584 0 0.000010138532733422528 -0.0000025429915343134852 0
          0.015970028748700144 0.022321739293794204 0 0.1688402762779176 0.36801757615002145 0
          0 1.6188612961329256 0 0 1.5635147347017537 0
          -0.0367374719593244 0.5585606185616366 0 -0.00019704251371170303 -0.0016853984899215288 0
          0.0005455351635771565 0.0762464287161143 0 -0.007801906752297055 -0.0007269070538288779 0
          0 1.6243738095648013 0 0.16793541922726277 0.40996317143106437 0
          -0.0005960217811907097 -0.0004364598346370272 0 0 1.5631155742815963 0
          0.024885220742644515 0.03969820647732855 0 0.03318090177071764 0.5819008523091183 0
          0.0283348455523253 0 0 0.0028763190051997543 0.03889490966808381 0
          0.0001193233759911983 -0.00006671126842652648 0 0 1.6291053545604965 0
          0 1.5636508706455692 0 0.15554650343537474 0.4631369867466951 0
          -0.008281190055359627 -0.0015051949998091557 0 0.00008276455359581934 0.00006536984803602938 0
          0.0706943450402609 0.5496657430478057 0 0.000001289757109608658 0 0
          0.010819127446697833 0.032375730052514436 0 0 1.6328535510489137 0
          0 1.5654322244681964 0 0.13131814900605462 0.5190915896516932 0
          0.024429538153788975 0.07177891491519006 0 0.1301956948229069 0.559492868746402 0
          0 1.6355591617345067 0 0.01832781142435383 0.07108958656470288 0
          0 1.568209494445774 0 -0.0018057418337864707 -0.0010400215841872592 0
          -0.0005677007072165923 -0.001271913825082577 0 0.03050939931868006 0.08305673106758171 0
          0.07390495305077917 0.5584332527016591 0 0.057130610939493065 0.008601040446197484 0
          0 1.6373702673445547 0 0.16021770642832342 0.47303273144579405 0
          0 1.5717155383813184 0 0.00004914917225047277 -0.00016165346029955004 0
          0.007392750617867751 0.037915418462587044 0 0.024960707340356422 0.5590309082273437 0
          0 1.637970905441659 0 0.016103228947794576 0.02813343483280508 0
          0.17226961454499692 0.4314448028899825 0 0 1.5762740074904964 0
          0.0536808212419988 -0.004802296916793362 0 0 1.6373668961181596 0
          -0.027142610061878163 0.5694378833810113 0 -0.00032006104587349306 -0.001384142856423877 0
          0 1.581483807709514 0 -0.0037826399448713816 0.03495373380521313 0
          0.030746015676978142 0.04398011682775026 0 0.15976676987894728 0.3509256574143382 0
          0 1.6357585084726813 0 0 1.58738531727947 0
          -0.0032501677423598745 -0.002915286582868644 0 -0.08662743977562586 0.5396167707715166 0
          0.030832950737021407 0.021991657619305452 0 0.13186278344881522 0.2984132601566311 0
          -0.005163882078809164 0.05730178796752826 0 0 1.6330085417137619 0
          0.00011115395506185528 0.0001046285765047853 0 0 1.5937299235688394 0
          0.012617449534052742 0.01744511709095261 0 -0.12544137336480554 0.5030130259167312 0
          0 1.629145846067132 0 0 1.600283686042511 0
          0.0906426632133423 0.2658536361520908 0 0 1.62452001570007 0
          0 1.6068493751588118 0 0 1.619207096932443 0
          0 1.613233542994644 0 -0.149821628014391 0.46392404870044057 0
          -0.007605362236335932 0.03050534154775162 0 0.026800051689051613 0.24414764936703487 0
          0.000036055065230961006 -0.0014520102477644386 0 0.01206414748137377 0.009946329730410031 0
          -0.17611888357298433 0.41606469534588886 0 -0.030604972003009392 0.241122865227979 0
          -0.15596105145667155 0.34939962912603106 0 -0.08341402900279073 0.2623002561784404 0
          -0.013076528326008327 0.02858085604388456 0 -0.1273056516037996 0.3008951192250593 0
          0.012508927604888281 0.019574714275761212 0 -0.0024093121662245 -0.000019500688604234543 0
          -0.0014800596822894673 0.00009505433134432074 0 -0.027691378216461556 0.05105710203742404 0
          0.0002861785193330913 0 0 -0.0062932956429798586 0.006912121520268463 0
          0.009732202661002104 0.0018592689378657767 0 -0.012789899554386986 0.019863797099168582 0
          1 0 0 -0.002158383558200121 0.00023383356643646237 0
          -0.003941421292084548 0.014329981180078234 0 -0.0017170190814618709 0.0039994125618527335 0
          -0.02000694583075096 0.022259405468652297 0 -0.008755915390915513 0.014410583660638724 0
          -0.0003653408226185317 0.00016052146162405582 0 1 0 0
          0.06341384335510872 -0.03235514605755251 0 -0.0020188167293415053 0.0022198023963715943 0
          0.11959457348862966 0.008825379821781188 0 0.0709233091909962 -0.023615605262371334 0
          0.05844512700543492 0.02833724887693169 0 -0.00512717690641958 0.001981068418002823 0
          -0.004739119088085873 -0.0010374806673603874 0 1 0 0
          0.03425064145331913 -0.022346996894248735 0 0.032722650447807027 -0.021295381896385305 0
          -0.004296326883718382 0.004352466384448142 0 0.10643550101307415 0.01114016657526605 0
          1 0 0 0.060410609420178674 0.013452651650636716 0
          -0.005316056533286552 0 0 0.020914737607450228 -0.005562469542278845 0
          0.05673797794538146 -0.00893292253466251 0 1 0 0
          0.04884054792014954 0 0 1 0 0
          1 0 0
          <InformationKey name="L2_NORM_RANGE" location="vtkDataArray" length="2">
            <Value index="0">
              1.2402626742e-10
            </Value>
            <Value index="1">
              1.6379709054
            </Value>
          </InformationKey>
        </DataArray>
        <DataArray type="Float64" Name="Energy" format="ascii" RangeMin="3602.0314383387595" RangeMax="3846.979111384749">
          3722.830000012436 3722.829999954218 3722.830000012074 3722.8299999028545 3722.829999794208 3722.82999994344
          3722.8300012388536 3722.830001376394 3722.830014964475 3722.829999850263 3722.8299998965836 3722.8299997299814
          3722.8299848928664 3722.8297990712076 3722.829999890189 3722.830003924159 3722.8297330470386 3722.8299999605197
          3722.829899292324 3722.830502253524 3722.8300189405168 3722.829999956382 3722.830010838486 3722.8404369444365
          3722.8299999273727 3722.830004952106 3722.8300213355747 3722.8299248611906 3722.841342004499 3722.8443713658444
          3722.8297637457313 3722.830005114387 3722.8300000449863 3722.829693575126 3722.8299998476277 3722.829287884031
          3722.830047247509 3722.829509869963 3722.8300002417072 3722.842457593988 3722.8279745626546 3722.83001081215
          3722.8215298042987 3722.8243004177757 3722.829772625436 3722.70908066323 3722.508293334073 3722.830122494185
          3722.830001852228 3722.894306570941 3722.9606757793335 3722.833721370434 3722.83278879448 3722.852385852273
          3722.9786099253784 3722.830806664099 3721.80052975276 3722.543627382389 3722.829592725395 3721.419440183474
          3722.8297251916665 3722.786278765775 3720.0764194316557 3722.831657112262 3722.879527990717 3721.2116498152704
          3722.8306470483253 3708.491162748346 3723.295376726187 3714.65532934081 3703.209820784754 3718.9299229928074
          3720.1608698964537 3698.8820704223476 3723.0213592124146 3725.918704957114 3723.688234751052 3679.9994530713843
          3660.947170481458 3694.4363462457336 3700.5127362478393 3643.8814400273072 3720.7515425601578 3721.839821242532
          3731.584170267405 3722.7347039141246 3629.18454427172 3722.8351411250005 3722.215213142648 3692.1163176613722
          3722.8324260644886 3743.409236635415 3617.5016780600254 3724.902991511989 3737.2500766404296 3720.6814127988446
          3764.4243151232654 3690.714090606152 3608.5135682936643 3722.831530494983 3724.5598354977496 3742.999978527251
          3783.9625796172418 3603.3167936549607 3689.198040435796 3723.030701410247 3718.329713722379 3721.9966896465116
          3802.097103690574 3746.451133020371 3722.727979599551 3602.0314383387595 3725.442553436647 3687.8559185760587
          3726.3683545920467 3720.341703582757 3722.8485792893043 3817.691033726396 3603.7582222595584 3750.2092683146343
          3722.3739854897485 3722.83743298398 3689.879702161608 3722.8305262575313 3724.9235731169374 3830.064838007732
          3609.5327042269487 3754.3866350565854 3718.064643322017 3689.092470626108 3839.009698120453 3726.948043369317
          3618.544176583445 3722.6562321725783 3722.6688392174997 3717.8370220935744 3756.535109637884 3728.0408394798174
          3844.9905752286804 3694.4415992769336 3629.9027228599507 3722.8459760510555 3725.218158439721 3756.4443528929496
          3846.979111384749 3720.7060765322426 3698.289600768796 3644.714462008014 3727.7600120868 3844.9881602014893
          3757.2509375713735 3722.685832217082 3661.6574573550133 3724.9253102671137 3720.100883461728 3703.7372804087095
          3839.6683653444657 3680.888013967947 3722.64515846552 3755.573274376334 3725.853136041476 3708.9545917045803
          3726.109498692664 3830.5844864730743 3722.863366517784 3701.5980256635125 3721.6588505578243 3753.2795031251208
          3817.841451118029 3723.022967840792 3713.9531247447812 3802.595815223978 3744.524451392291 3785.1003295137684
          3765.468988566563 3750.9163442268527 3724.6805231540848 3719.9979897728103 3722.699456745631 3721.9586262422854
          3747.5354265572264 3725.784786499971 3741.9734489776033 3731.4894766158795 3724.642837306251 3736.8996957372688
          3722.2357025011356 3722.6255294370344 3722.7804925288074 3726.1523362889548 3722.866908482517 3722.4646591342303
          3723.583991983525 3724.0961615765295 3723.33 3722.43125620328 3723.628483397475 3722.6559182769392
          3724.310155196409 3723.426469050698 3722.8459703326425 3723.33 3729.2717190667645 3722.4794200057295
          3736.268110851197 3730.4778808841215 3728.298795181784 3722.323720809836 3722.5684645415113 3723.33
          3727.2973166471093 3727.108211018895 3722.445003114616 3734.951675949084 3723.33 3727.6886884789265
          3722.3492688891856 3725.5520771201336 3730.2519866578027 3723.33 3726.321767611377 3723.33
          3723.33
        </DataArray>
        <DataArray type="Float64" Name="ALEdispl" NumberOfComponents="3" format="ascii" RangeMin="0" RangeMax="0.0011310402419062258">
          0 0 0 0 0 0
          0 0 0 0 0.000018011335005148284 0
          0 0 0 0 0 0
          0 0.0000372695641430715 0 0 0.0000421477527169977 0
          0 0 0 0 0.000028103650904639963 0
          0 0 0 0 0.00006489868735791924 0
          0 0.00010247337257599913 0 0 0 0
          0 0 0 0 0.0001420334597374841 0
          0 0.00013286849014633535 0 0 0.00004104585034038778 0
          0 0.0001999300960608964 0 0 0 0
          0 0.00021700137309506098 0 0 0 0
          0 0.0001324739418207815 0 0 0.00014451256306516105 0
          0 0.0000173955807079059 0 0 0.00027642746634089866 0
          0 0.00003604190250198774 0 0 0.0003628766084490339 0
          0 0 0 0 0.00030531540320675587 0
          0 0.0002369519024161779 0 0 0.0003655011385932065 0
          0 0 0 0 0.00011295595892695927 0
          0 0 0 0 0.00043633909712139507 0
          0 0.0004690299509471062 0 0 0.0005102150520563565 0
          0 0 0 0 0.00046713500230600606 0
          0 0.0006321546242260311 0 0 0 0
          0 0.0006128530684230057 0 0 0.0006638140061779967 0
          0 0.0003612863774514512 0 0 0.00016746199939580606 0
          0 0 0 0 0.0005159589275029697 0
          0 0.0006514706358293883 0 0 0.0008014655628079885 0
          0 0.0007940442008712862 0 0 0.0006156461715092512 0
          0 0.0008071240424675155 0 0 0.000351328614844789 0
          0 0.0007896211326675617 0 0 0.00019628900105851438 0
          0 0.0009228613096268597 0 0 0.0009191193305086353 0
          0 0 0 0 0.0009398143161964278 0
          0 0.0005009649276412205 0 0 0.0008012209668880971 0
          0 0.0009349132294060748 0 0 0.0006551018194775105 0
          0 0.0009273332973774009 0 0 0.0009115681318264002 0
          0 0.0003351735264542775 0 0 0.0010368000731275685 0
          0 0.0009265047209231222 0 0 0.0010377693288739242 0
          0 0.0010351372013507679 0 0 0.0009238995906867577 0
          0 0.0010382352743436528 0 0 0.0010324970648910778 0
          0 0.0007506296560070033 0 0 0.0010382187091016982 0
          0 0.0009249826593967145 0 0 0.0011310402419062253 0
          0 0.0011310402419062253 0 0 0.0010299128903560602 0
          0 0.0011310402419062253 0 0 0.0011310402419062258 0
          0 0.0008977058400584444 0 0 0.0011310402419062251 0
          0 0.001037661382793012 0 0 0.0008108054630754871 0
          0 0.0011310402419062253 0 0 0.000531219237260409 0
          0 0.00019146878556464727 0 0 0.0010264705789233242 0
          0 0.0006423741347176732 0 0 0.0011310402419062256 0
          0 0.0011310402419062251 0 0 0.0009383235074267599 0
          0 0.0010365018845844346 0 0 0.0008890952489146185 0
          0 0.0011310402419062256 0 0 0.0010227948420860463 0
          0 0.0011310402419062253 0 0 0.00047561447864470565 0
          0 0.0009178403765346815 0 0 0.0010352719145125962 0
          0 0.0011310402419062256 0 0 0.0011310402419062253 0
          0 0.001018044263457548 0 0 0.0007198950157908503 0
          0 0.0008962512282507121 0 0 0.00035172553718758543 0
          0 0.0011310402419062256 0 0 0.0010330151188010245 0
          0 0.000796332166330735 0 0 0.0011310402419062253 0
          0 0.0009132438675131462 0 0 0.0010131349654525141 0
          0 0 0 0 0.0008658769915013917 0
          0 0.00029069836092871225 0 0 0.001131040241906225 0
          0 0.0011310402419062256 0 0 0.001030112584879646 0
          0 0.0005218614166794768 0 0 0.0006072989001485175 0
          0 0.0010063838248625587 0 0 0 0
          0 0.0009048921365445448 0 0 0.0011310402419062253 0
          0 0.0011310402419062251 0 0 0.0010266482074263344 0
          0 0.0008697177064587387 0 0 0.0009997834116354282 0
          0 0.0011310402419062253 0 0 0.0009177362595963835 0
          0 0.001131040241906225 0 0 0.0007064206150003611 0
          0 0.0007628203901387455 0 0 0.0008732136449065844 0
          0 0.0010230585662824056 0 0 0.00015598148360972252 0
          0 0.0011310402419062253 0 0 0.0009921279358628325 0
          0 0.0011310402419062256 0 0 0.0004004543148634878 0
          0 0.0008893858341743923 0 0 0.0010186869531548062 0
          0 0.0011310402419062253 0 0 0.0008168152490053704 0
          0 0.000984508425870619 0 0 0.0011310402419062253 0