<?xml version="1.0"?>
<VTKFile type="UnstructuredGrid" version="0.1" byte_order="LittleEndian" header_type="UInt32" compressor="vtkZLibDataCompressor">
  <UnstructuredGrid>
    <Piece NumberOfPoints="33" NumberOfCells="20">
      <PointData>
        <DataArray type="Float64" Name="sld_BC" NumberOfComponents="3" format="ascii" RangeMin="0" RangeMax="0">
          0 0 0 0 0 0
          0 0 0 0 0 0
          0 0 0 0 0 0
          0 0 0 0 0 0
          0 0 0 0 0 0
          0 0 0 0 0 0
          0 0 0 0 0 0
          0 0 0 0 0 0
          0 0 0 0 0 0
          0 0 0 0 0 0
          0 0 0 0 0 0
          0 0 0 0 0 0
          0 0 0 0 0 0
          0 0 0 0 0 0
          0 0 0 0 0 0
          0 0 0 0 0 0
          0 0 0
          <InformationKey name="L2_NORM_RANGE" location="vtkDataArray" length="2">
            <Value index="0">
              0
            </Value>
            <Value index="1">
              0
            </Value>
          </InformationKey>
        </DataArray>
        <DataArray type="Float64" Name="sld_FIXNO" NumberOfComponents="3" format="ascii" RangeMin="1.4142135623730951" RangeMax="1.4142135623730951">
          -1 -1 0 -1 -1 0
          -1 -1 0 -1 -1 0
          -1 -1 0 -1 -1 0
          -1 -1 0 -1 -1 0
          -1 -1 0 -1 -1 0
          -1 -1 0 -1 -1 0
          -1 -1 0 -1 -1 0
          -1 -1 0 -1 -1 0
          -1 -1 0 -1 -1 0
          -1 -1 0 -1 -1 0
          -1 -1 0 -1 -1 0
          -1 -1 0 -1 -1 0
          -1 -1 0 -1 -1 0
          1 1 0 -1 -1 0
          -1 -1 0 -1 -1 0
          1 1 0 -1 -1 0
          1 1 0
          <InformationKey name="L2_NORM_RANGE" location="vtkDataArray" length="2">
            <Value index="0">
              1.4142135624
            </Value>
            <Value index="1">
              1.4142135624
            </Value>
          </InformationKey>
        </DataArray>
        <DataArray type="Float64" Name="Disp" NumberOfComponents="3" format="ascii" RangeMin="0" RangeMax="0.00001877858026304131">
          0.00001861179371373624 0.0000024972407678902 0 0.00001613083286878304 0.000002485416685390656 0
          0.000013654029870451326 0.000002449927466235578 0 0.000018605961463814884 2.818756401995715e-8 0
          0.000011211985937723714 0.0000023775291791705016 0 0.000016120113897286877 2.682500724922174e-8 0
          0.000008848962487783732 0.000002256233050846578 0 0.00001363272714207131 2.4916047609426912e-8 0
          0.000018607002775383235 -0.0000024399445584583687 0 0.000006620235575749547 0.000002074761513535461 0
          0.000011176255479131976 2.2439823549913616e-8 0 0.000016125184024166984 -0.0000024306456901925793 0
          0.000008794894021834432 1.95635610157483e-8 0 0.000004591855837391674 0.0000018226341588201546 0
          0.00001364714598455726 -0.0000023991857563751223 0 0.0000065442479797486455 1.6386957892782443e-8 0
          0.000011204382466970509 -0.000002331940008597928 0 0.00000284074838862192 0.0000014896051685464218 0
          0.00000449069776715874 1.3001604096305389e-8 0 0.00000884079934366718 -0.0000022165690987627794 0
          0.0000014486994474400692 0.000001068656503170031 0 0.000006611715649731036 -0.000002041593772663905 0
          0.0000027104255086362244 9.467048299281546e-9 0 5.403518643808572e-7 5.339638819705247e-7 0
          0.00000458311822022078 -0.0000017963538689271314 0 0.0000012918314980405313 5.7769616243593445e-9 0
          0 0 0 0.000002831887138455904 -0.0000014704576359993226 0
          3.1296274118305976e-7 1.8377297720500795e-9 0 0.00000143971528066755 -0.0000010567174481413763 0
          0 0 0 5.315185985855977e-7 -5.28857885595629e-7 0
          0 0 0
          <InformationKey name="L2_NORM_RANGE" location="vtkDataArray" length="2">
            <Value index="0">
              0
            </Value>
            <Value index="1">
              1.8778580263e-05
            </Value>
          </InformationKey>
        </DataArray>
        <DataArray type="Float64" Name="Sld_traction" NumberOfComponents="3" format="ascii" RangeMin="0" RangeMax="2354.540539121568">
          7.425797586016847 8.50835456783293 0 -36.034590657259834 -34.48621957376322 0
          -121.01352877595723 -57.80156215046693 0 22.526783337591212 -1.4187855231202302 0
          -242.37042949096548 -79.30387281481345 0 0 0 0
          -397.2196068129726 -98.80368255965732 0 0 0 0
          -5.1784816309550035 -8.89294204922862 0 -583.5066453312476 -116.98567831457848 0
          0 0 0 -64.52638634915223 37.494045934138114 0
          0 0 0 -799.5800190256684 -133.61939820663352 0
          -151.34865289527968 60.52318176853473 0 0 0 0
          -274.05386066247195 81.28007089436781 0 -1041.232168041941 -151.46911346256414 0
          0 0 0 -429.95171241217264 100.29651322793737 0
          -1323.1573020638907 -151.71190746802841 0 -616.8574003484554 118.05100330549273 0
          0 0 0 -1529.8773025516693 -274.8929893861891 0
          -833.321447352105 134.3755168808264 0 0 0 0
          -1532.5897888551895 -1787.46459810081 0 -1075.5674885811243 152.11808776662215 0
          0 0 0 -1359.3363719728275 152.55381119863637 0
          -553.2670185190605 -17.78712675331944 0 -1559.0031736042895 270.0076083236772 0
          -1526.4238934293508 1761.7370958971283 0
          <InformationKey name="L2_NORM_RANGE" location="vtkDataArray" length="2">
            <Value index="0">
              0
            </Value>
            <Value index="1">
              2354.5405391
            </Value>
          </InformationKey>
        </DataArray>
        <DataArray type="Float64" Name="Fld_traction" NumberOfComponents="3" format="ascii" RangeMin="0" RangeMax="38.57481953158584">
          24.514452138610032 -0.37156497045738696 0 38.109479452164244 5.973631875123163 0
          37.44935438351454 3.48056399519892 0 14.869397736103647 -3.668944152739781 0
          36.42161780461919 2.1347271782071764 0 0 0 0
          35.947749445456175 1.3269937208515379 0 0 0 0
          12.269361048622669 -1.5594624563237316 0 35.51114700662726 0.7539981572330144 0
          0 0 0 9.778086728445777 -0.8818831333399478 0
          0 0 0 35.02332555533192 0.37923053138579604 0
          6.136229906925998 0.5131895940587112 0 0 0 0
          3.999765056094694 0.7988750165337501 0 34.61024859888329 0.16508013303094388 0
          0 0 0 2.5610028953600756 0.8624331870034604 0
          34.3856375074068 0.04627887792602878 0 1.63995027747049 0.7961236593560277 0
          0 0 0 34.206367348520956 0.0014854253893450467 0
          0.930942207694437 0.6530905764294612 0 0 0 0
          17.342352175064246 -16.800092686852317 0 0.4920050715914411 0.44748368333800953 0
          0 0 0 0.29044564761862174 0.24442237555287974 0
          0 0 0 0.30323409449931266 0.06432015019770744 0
          0.199714532411253 0.20268915332686258 0
          <InformationKey name="L2_NORM_RANGE" location="vtkDataArray" length="2">
            <Value index="0">
              0
            </Value>
            <Value index="1">
              38.574819532
            </Value>
          </InformationKey>
        </DataArray>
        <DataArray type="Float64" Name="Velocity" NumberOfComponents="3" format="ascii" RangeMin="0" RangeMax="0.0002625770240184657">
          0.0002599543375178079 0.00003393494927835146 0 0.0002249877654764515 0.000034056770408084645 0
          0.00018944657453625442 0.00003400425692821836 0 0.0002601155869254101 -9.71581923986972e-7 0
          0.00015391178279627475 0.0000333328851707631 0 0.00022515709892042572 -9.222421760511675e-7 0
          0.00011931300463903766 0.000031712276599782396 0 0.00018949477877299906 -8.521639107013884e-7 0
          0.0002601110982827055 -0.000035901394019712454 0 0.00008686474333733578 0.000028943512257969476 0
          0.00015369535731589592 -7.626476765292531e-7 0 0.00022518475159139352 -0.00003593376875071326 0
          0.00011874578774306005 -6.604171685584881e-7 0 0.000057907734696931785 0.000024952411780301342 0
          0.00018969244107185567 -0.000035736569442016555 0 0.00008589905035931681 -5.492255952800629e-7 0
          0.00015418406964267032 -0.00003488047739211323 0 0.000033788022956154226 0.000019779194386765603 0
          0.000056538797251252686 -4.324061361907818e-7 0 0.00011960583511606145 -0.00003305013007871287 0
          0.000015681130212104453 0.000013599771480414355 0 0.00008717059757225849 -0.00003005474124810059 0
          0.0000320394667358107 -3.1207118482499434e-7 0 0.000004927032050223246 0.000006460103867039243 0
          0.000058222627951848634 -0.00002582659312473924 0 0.000013683960657155605 -1.8760549410418996e-7 0
          0 0 0 0.0000341081372724145 -0.00002041118062512878 0
          0.0000023145701990427496 -5.484656179909055e-8 0 0.00001600859593960096 -0.000013989432717650992 0
          0 0 0 0.000005251189013183273 -0.000006622885976408327 0
          0 0 0
          <InformationKey name="L2_NORM_RANGE" location="vtkDataArray" length="2">
            <Value index="0">
              0
            </Value>
            <Value index="1">
              0.00026257702402
            </Value>
          </InformationKey>
        </DataArray>
      </PointData>
      <CellData>
        <DataArray type="UInt8" Name="vtkGhostType" format="ascii" RangeMin="0" RangeMax="0">
          0 0 0 0 0 0
          0 0 0 0 0 0
          0 0 0 0 0 0
          0 0
        </DataArray>
        <DataArray type="Float64" Name="Gauss Stress" NumberOfComponents="6" format="ascii" RangeMin="34.173358119404206" RangeMax="1753.135572396026">
          556.3441385782758 1646.6117573067327 0 229.4237463062003 0 0
          -569.0967851967516 -1634.2101004760714 0 224.1293441738307 0 0
          -107.76555876978267 1210.6389059952035 0 208.7332064570994 0 0
          73.64282819435772 -1198.3082937667157 0 209.9001083570281 0 0
          -17.309260580086004 999.5792078209549 0 191.1744002282836 0 0
          -16.979071741460814 -987.5550341500456 0 191.6634130329924 0 0
          -30.03361389509402 781.4463245706463 0 172.59162761661403 0 0
          -3.978271823890509 -770.0530018637837 0 173.00359002520355 0 0
          -28.591302307452338 589.4796993570185 0 152.81425317372566 0 0
          -5.210014627206903 -579.1405506466917 0 153.4253985509926 0 0
          -29.12505175974482 420.4407039329047 0 131.67333192854508 0 0
          -4.277263196363322 -411.677178036064 0 132.57420663383618 0 0
          -29.29153663327171 276.3715397467134 0 109.02573110983454 0 0
          -3.349223200814194 -269.8266530627615 0 110.30243675864871 0 0
          -29.6605329812341 158.77083211916303 0 84.58656714177908 0 0
          -1.876324972674979 -155.19233755263707 0 86.24883192131053 0 0
          -29.515276874644975 69.65030688187099 0 57.564337557649964 0 0
          -0.03857716510107423 -70.10154054612042 0 59.89277352367379 0 0
          -32.382216479262254 10.097674389487246 0 27.975000879956838 0 0
          4.39207691251827 -15.679109887384682 0 30.04485943869415 0 0
          <InformationKey name="L2_NORM_RANGE" location="vtkDataArray" length="2">
            <Value index="0">
              34.173358119
            </Value>
            <Value index="1">
              1753.1355724
            </Value>
          </InformationKey>
        </DataArray>
        <DataArray type="Float64" Name="Gauss Strain" NumberOfComponents="6" format="ascii" RangeMin="4.32345560498141e-7" RangeMax="0.000007233047262758182">
          -0.000002273875042951845 0.00000535796703543534 0 0.000003211914475684698 0 0
          0.000002185575060986711 -0.0000052702489401756925 0 0.00000313782822994409 0 0
          -0.000003842424005556788 0.000005386383774286241 0 0.000002922262873685472 0 0
          0.000003664545026024757 -0.000005239136107476616 0 0.0000029386036384021323 0 0
          -0.000002871532194137494 0.000004246671515911737 0 0.0000026764386610469848 0 0
          0.0000026938317194830086 -0.000004100215357211167 0 0.000002683290820826502 0 0
          -0.0000023141987731678526 0.0000033661512300192653 0 0.0000024162808854134318 0 0
          0.0000021394327534979274 -0.000003223099757282411 0 0.0000024220522472016347 0 0
          -0.0000017706316073617945 0.0000025558599656833048 0 0.000002139398281886334 0 0
          0.0000015997072186635375 -0.000002417811859917185 0 0.0000021479569233505515 0 0
          -0.0000012995621652689415 0.0000018473953569270174 0 0.0000018434258976347712 0 0
          0.000001134729109786292 -0.0000017170729972315613 0 0.0000018560397176239732 0 0
          -8.968664068353949e-7 0.000001242773931445229 0 0.000001526359852325112 0 0
          7.414465549721028e-7 -0.0000011238966229898395 0 0.0000015442345650597077 0 0
          -5.691333753443661e-7 7.498857859111752e-7 0 0.0000011842117931883034 0 0
          4.266573355726777e-7 -6.465551442569328e-7 0 0.0000012074838487024899 0 0
          -3.189853410023868e-7 3.751736724344479e-7 0 8.059007042181106e-7 0 0
          1.9612203343288837e-7 -2.9431879258745585e-7 0 8.384988908718146e-7 0 0
          -1.6427887486458737e-7 1.3308036765635745e-7 0 3.9165002794641525e-7 0 0
          6.234817276351556e-8 -7.815014030354563e-8 0 4.206280359248996e-7 0 0
          <InformationKey name="L2_NORM_RANGE" location="vtkDataArray" length="2">
            <Value index="0">
              4.323455605e-07
            </Value>
            <Value index="1">
              7.2330472628e-06
            </Value>
          </InformationKey>
        </DataArray>
        <DataArray type="Float64" Name="Btraction" NumberOfComponents="3" format="ascii" RangeMin="0.14235766783877046" RangeMax="19.03700211128667">
          12.887179880896301 -4.199651815365743 0 0.1257371567276414 0.0667523258811425 0
          17.148001213981935 0.011941075828843455 0 0.14841993552948357 0.07718563143764677 0
          17.24897152657252 0.05283975273924315 0 0.19561267980251568 0.1729765147227223 0
          17.4083935385538 0.13607766610418498 0 0.35573681982146954 0.2751435649418677 0
          17.633618140489794 0.2833071721547026 0 0.6427231212912317 0.36230355894637223 0
          17.864724113020856 0.5202479695211379 0 1.0502382932076413 0.414639211589872 0
          18.09234181251884 0.8654302247646783 0 1.6401919878636924 0.41532705088430255 0
          18.46774304703343 1.4038227933515237 0 2.5339987407551727 0.32801615264811534 0
          18.889708458919692 2.363548967580521 0 3.978579158842943 -0.09217338482030912 0
          15.655982897693569 1.400516726166444 0 6.7846896961815775 -1.307101652265878 0
          <InformationKey name="L2_NORM_RANGE" location="vtkDataArray" length="2">
            <Value index="0">
              0.14235766784
            </Value>
            <Value index="1">
              19.037002111
            </Value>
          </InformationKey>
        </DataArray>
      </CellData>
      <Points>
        <DataArray type="Float32" Name="Points" NumberOfComponents="3" format="ascii" RangeMin="1.4500000476837158" RangeMax="1.6286497021092299">
          1.4500000476837158 0.5 0 1.4500000476837158 0.44999998807907104 0
          1.4500000476837158 0.4000000059604645 0 1.5 0.5 0
          1.4500000476837158 0.3499999940395355 0 1.5 0.44999998807907104 0
          1.4500000476837158 0.30000001192092896 0 1.5 0.4000000059604645 0
          1.5499999523162842 0.5 0 1.4500000476837158 0.25 0
          1.5 0.3499999940395355 0 1.5499999523162842 0.44999998807907104 0
          1.5 0.30000001192092896 0 1.4500000476837158 0.20000000298023224 0
          1.5499999523162842 0.4000000059604645 0 1.5 0.25 0
          1.5499999523162842 0.3499999940395355 0 1.4500000476837158 0.15000000596046448 0
          1.5 0.20000000298023224 0 1.5499999523162842 0.30000001192092896 0
          1.4500000476837158 0.10000000149011612 0 1.5499999523162842 0.25 0
          1.5 0.15000000596046448 0 1.4500000476837158 0.05000000074505806 0
          1.5499999523162842 0.20000000298023224 0 1.5 0.10000000149011612 0
          1.4500000476837158 0 0 1.5499999523162842 0.15000000596046448 0
          1.5 0.05000000074505806 0 1.5499999523162842 0.10000000149011612 0
          1.5 0 0 1.5499999523162842 0.05000000074505806 0
          1.5499999523162842 0 0
          <InformationKey name="L2_NORM_RANGE" location="vtkDataArray" length="2">
            <Value index="0">
              1.4500000477
            </Value>
            <Value index="1">
              1.6286497021
            </Value>
          </InformationKey>
        </DataArray>
      </Points>
      <Cells>
        <DataArray type="Int64" Name="connectivity" format="ascii" RangeMin="0" RangeMax="32">
          30 28 23 26 32 31
          28 30 28 25 20 23
          31 29 25 28 25 22
          17 20 29 27 22 25
          22 18 13 17 27 24
          18 22 18 15 9 13
          24 21 15 18 15 12
          6 9 21 19 12 15
          12 10 4 6 19 16
          10 12 10 7 2 4
          16 14 7 10 7 5
          1 2 14 11 5 7
          5 3 0 1 11 8
          3 5
        </DataArray>
        <DataArray type="Int64" Name="offsets" format="ascii" RangeMin="4" RangeMax="80">
          4 8 12 16 20 24
          28 32 36 40 44 48
          52 56 60 64 68 72
          76 80
        </DataArray>
        <DataArray type="UInt8" Name="types" format="ascii" RangeMin="9" RangeMax="9">
          9 9 9 9 9 9
          9 9 9 9 9 9
          9 9 9 9 9 9
          9 9
        </DataArray>
      </Cells>
    </Piece>
  </UnstructuredGrid>
</VTKFile>
