<?xml version="1.0"?>
<VTKFile type="UnstructuredGrid" version="0.1" byte_order="LittleEndian" header_type="UInt32" compressor="vtkZLibDataCompressor">
  <UnstructuredGrid>
    <Piece NumberOfPoints="33" NumberOfCells="20">
      <PointData>
        <DataArray type="Float64" Name="sld_BC" NumberOfComponents="3" format="ascii" RangeMin="0" RangeMax="0">
          0 0 0 0 0 0
          0 0 0 0 0 0
          0 0 0 0 0 0
          0 0 0 0 0 0
          0 0 0 0 0 0
          0 0 0 0 0 0
          0 0 0 0 0 0
          0 0 0 0 0 0
          0 0 0 0 0 0
          0 0 0 0 0 0
          0 0 0 0 0 0
          0 0 0 0 0 0
          0 0 0 0 0 0
          0 0 0 0 0 0
          0 0 0 0 0 0
          0 0 0 0 0 0
          0 0 0
          <InformationKey name="L2_NORM_RANGE" location="vtkDataArray" length="2">
            <Value index="0">
              0
            </Value>
            <Value index="1">
              0
            </Value>
          </InformationKey>
        </DataArray>
        <DataArray type="Float64" Name="sld_FIXNO" NumberOfComponents="3" format="ascii" RangeMin="1.4142135623730951" RangeMax="1.4142135623730951">
          -1 -1 0 -1 -1 0
          -1 -1 0 -1 -1 0
          -1 -1 0 -1 -1 0
          -1 -1 0 -1 -1 0
          -1 -1 0 -1 -1 0
          -1 -1 0 -1 -1 0
          -1 -1 0 -1 -1 0
          -1 -1 0 -1 -1 0
          -1 -1 0 -1 -1 0
          -1 -1 0 -1 -1 0
          -1 -1 0 -1 -1 0
          -1 -1 0 -1 -1 0
          -1 -1 0 -1 -1 0
          1 1 0 -1 -1 0
          -1 -1 0 -1 -1 0
          1 1 0 -1 -1 0
          1 1 0
          <InformationKey name="L2_NORM_RANGE" location="vtkDataArray" length="2">
            <Value index="0">
              1.4142135624
            </Value>
            <Value index="1">
              1.4142135624
            </Value>
          </InformationKey>
        </DataArray>
        <DataArray type="Float64" Name="Disp" NumberOfComponents="3" format="ascii" RangeMin="0" RangeMax="0.00001295326412175033">
          0.000012837431379192396 0.000001728411696428472 0 0.000011128190797302226 0.0000017186581767233099 0
          0.000009425195083527219 0.0000016917403216712856 0 0.000012832007141773479 2.802450245205146e-8 0
          0.000007748686225362137 0.000001639927571928487 0 0.00001111899202078352 2.6640827120602524e-8 0
          0.0000061275057784152975 0.00000155582317576084 0 0.000009408551705356747 2.4717243186953436e-8 0
          0.000012832742291403171 -0.0000016714523133310212 0 0.000004597395428987836 0.0000014318659979177596 0
          0.000007722428888565328 2.223552192629032e-8 0 0.00001112264143879094 -0.0000016642635961228263 0
          0.000006089105964038325 1.9362904085128805e-8 0 0.0000032016650557692518 0.0000012604343215977365 0
          0.000009418416714460892 -0.0000016413993966480761 0 0.000004544370079833685 1.6199476202435214e-8 0
          0.000007741192238341876 -0.0000015947476390454978 0 0.000001991914694157393 0.0000010334659283642443 0
          0.000003131552106432052 1.2837099028456614e-8 0 0.000006119453256790743 -0.0000015165594774442854 0
          0.0000010243792869705383 7.446302906524411e-7 0 0.000004588984252579458 -0.0000013990707040323555 0
          0.0000019015259882372507 9.335448738558422e-9 0 3.8721910051767383e-7 3.7389283329525025e-7 0
          0.0000031930306355867215 -0.0000012344793261905993 0 9.150091128858379e-7 5.687839413965253e-9 0
          0 0 0 0.0000019831495448887047 -0.000001014577388092284 0
          2.271760617043334e-7 1.7997028024611104e-9 0 0.0000010154813766966974 -7.32867906175202e-7 0
          0 0 0 3.7846228908736584e-7 -3.6887108625494703e-7 0
          0 0 0
          <InformationKey name="L2_NORM_RANGE" location="vtkDataArray" length="2">
            <Value index="0">
              0
            </Value>
            <Value index="1">
              1.2953264122e-05
            </Value>
          </InformationKey>
        </DataArray>
        <DataArray type="Float64" Name="Sld_traction" NumberOfComponents="3" format="ascii" RangeMin="0" RangeMax="1657.382401990717">
          7.787218843189048 6.237517131583345 0 -21.097456059011922 -24.10009602643491 0
          -79.58931796971126 -38.25933769974869 0 17.097366013919142 -1.4109454200918354 0
          -160.03918254140058 -52.0893737922387 0 0 0 0
          -262.11690846235354 -65.3835364865372 0 0 0 0
          -4.7360269921161615 -6.624072554738496 0 -386.2409237285169 -78.74179414615523 0
          0 0 0 -49.45687375454972 27.089675682702275 0
          0 0 0 -532.9915272944087 -91.94176005690963 0
          -109.82593864657522 40.956725943602095 0 0 0 0
          -191.64066207474733 54.03845475648558 0 -700.9684099163189 -106.82988098485096 0
          0 0 0 -294.78076475701306 66.84395266099719 0
          -901.8397015704033 -109.997479462466 0 -419.5323828676428 79.76972002553562 0
          0 0 0 -1056.7584986415807 -201.36725170630578 0
          -566.6785139920845 92.65655968553918 0 0 0 0
          -1078.1094903254855 -1258.8075124095187 0 -735.2428338380176 107.43702261406095 0
          0 0 0 -937.942382930751 110.7999906036496 0
          -398.6632550334068 -17.453803964150424 0 -1085.8657207810838 196.4964807007233 0
          -1072.1062620673392 1233.441230062193 0
          <InformationKey name="L2_NORM_RANGE" location="vtkDataArray" length="2">
            <Value index="0">
              0
            </Value>
            <Value index="1">
              1657.382402
            </Value>
          </InformationKey>
        </DataArray>
        <DataArray type="Float64" Name="Fld_traction" NumberOfComponents="3" format="ascii" RangeMin="0" RangeMax="38.50312982967709">
          24.462707915048494 -0.3398882108285923 0 38.03293720802733 5.9988910651236695 0
          37.3911503797169 3.5120625715745266 0 14.857129857778077 -3.6379398303904784 0
          36.37939651400976 2.1672693981331403 0 0 0 0
          35.918528503421854 1.356553328658758 0 0 0 0
          12.301430646110996 -1.5761490998372996 0 35.49142971171755 0.777924671813676 0
          0 0 0 9.84068776202338 -0.9361191018315149 0
          0 0 0 35.00804914579403 0.39608081085615165 0
          6.1872392593512995 0.4627545679541797 0 0 0 0
          4.043954272170467 0.7516450932363316 0 34.59383519042804 0.17537180392340007 0
          0 0 0 2.6011897372025556 0.8208166427121751 0
          34.367789944065606 0.05127921496597998 0 1.677853961080577 0.7635204896167073 0
          0 0 0 34.18459870938231 0.002697698573773552 0
          0.9621935008450218 0.6310448425147376 0 0 0 0
          17.329829617858675 -16.787773896450656 0 0.5177496518712327 0.4372565393265522 0
          0 0 0 0.30217322053408785 0.24248114669882032 0
          0 0 0 0.3031495100737395 0.06490372174644621 0
          0.19802208164124063 0.20076065911727792 0
          <InformationKey name="L2_NORM_RANGE" location="vtkDataArray" length="2">
            <Value index="0">
              0
            </Value>
            <Value index="1">
              38.50312983
            </Value>
          </InformationKey>
        </DataArray>
        <DataArray type="Float64" Name="Velocity" NumberOfComponents="3" format="ascii" RangeMin="0" RangeMax="0.00002959429604707477">
          -0.000028979844136053966 -0.000003181786419882359 0 -0.000024882082617218944 -0.0000033864300613907837 0
          -0.000020293183059290332 -0.0000036767711456466672 0 -0.000029157414043753878 9.781043867031992e-7 0
          -0.000015379794301811488 -0.000003828820881082504 0 -0.000025112223860291536 9.296093811959355e-7 0
          -0.0000104547362643004 -0.000003695881596352843 0 -0.0000205277613044167 8.601160876003274e-7 0
          -0.000029140678923503038 0.000005161704214618582 0 -0.000005951137466867328 -0.0000032276916332614436 0
          -0.000015542293693230063 7.708197414741858e-7 0 -0.00002508304817635176 0.000005278484987923122 0
          -0.000010514265431215854 6.684434457832683e-7 0 -0.0000023001034320349384 -0.000002464418291404632 0
          -0.000020543270268001077 0.000005425115052934681 0 -0.0000059039343627183825 5.567248628939527e-7 0
          -0.000015656460497524892 0.000005392782610016016 0 1.6532482242683893e-7 -0.0000015336247794785027 0
          -0.00000217297082218516 4.3898633890473245e-7 0 -0.000010751991641003841 0.000005049745225973106 0
          0.0000012916762066767752 -6.38722979710758e-7 0 -0.00000626134168619541 0.000004353818502838593 0
          3.165140801482711e-7 3.173351672539195e-7 0 0.0000011982785043040941 -5.726192002825808e-8 0
          -0.000002619124566486361 0.0000033516114152779503 0 0.000001388934749032156 1.911703825199537e-7 0
          0 0 0 -1.5863352972652348e-7 0.0000021759707088472117 0
          0.0000011168969801063102 5.636764058264936e-8 0 9.607602192331602e-7 0.0000010354510390040239 0
          0 0 0 8.710633667459992e-7 2.2341400278105758e-7 0
          0 0 0
          <InformationKey name="L2_NORM_RANGE" location="vtkDataArray" length="2">
            <Value index="0">
              0
            </Value>
            <Value index="1">
              2.9594296047e-05
            </Value>
          </InformationKey>
        </DataArray>
      </PointData>
      <CellData>
        <DataArray type="UInt8" Name="vtkGhostType" format="ascii" RangeMin="0" RangeMax="0">
          0 0 0 0 0 0
          0 0 0 0 0 0
          0 0 0 0 0 0
          0 0
        </DataArray>
        <DataArray type="Float64" Name="Gauss Stress" NumberOfComponents="6" format="ascii" RangeMin="26.383330570553458" RangeMax="1228.4849891826311">
          387.51235750890874 1152.8463605135441 0 173.07458067437994 0 0
          -400.4020434695041 -1140.915353618228 0 167.8323463234703 0 0
          -84.21900889157692 835.8322224667821 0 152.8324198550769 0 0
          50.13331352922859 -823.9668723944807 0 154.0130530419683 0 0
          -20.320014877958783 682.8776268213846 0 136.4202940624699 0 0
          -13.928674250077222 -671.3022119889454 0 136.93428700594808 0 0
          -29.179164673395576 529.3459824366031 0 120.04137789036835 0 0
          -4.792566986373515 -518.3732505724882 0 120.47824302808905 0 0
          -28.05486755668423 397.5569895208176 0 103.78051132035658 0 0
          -5.702115617970577 -387.5960802085841 0 104.41265147438688 0 0
          -28.29400491253496 283.9088978371072 0 87.66143148013573 0 0
          -5.05401063248425 -275.469131847845 0 88.57617668383455 0 0
          -28.22760314918056 188.38801474947428 0 71.68278382042463 0 0
          -4.344373374420925 -182.10076699861543 0 72.96599304381883 0 0
          -28.336889087044508 110.50966896927874 0 55.65698028235423 0 0
          -3.1109146888899204 -107.11243984135763 0 57.317913569385325 0 0
          -27.937184076201916 50.17960282326633 0 38.85532282381625 0 0
          -1.5005713798463738 -50.72485085062902 0 41.173437256364345 0 0
          -30.43414707309789 6.3646990190900645 0 21.32288394430062 0 0
          2.620457069314421 -11.937721172758845 0 23.381705454146108 0 0
          <InformationKey name="L2_NORM_RANGE" location="vtkDataArray" length="2">
            <Value index="0">
              26.383330571
            </Value>
            <Value index="1">
              1228.4849892
            </Value>
          </InformationKey>
        </DataArray>
        <DataArray type="Float64" Name="Gauss Strain" NumberOfComponents="6" format="ascii" RangeMin="3.3530826882213613e-7" RangeMax="0.00000508632907798226">
          -0.0000016004218798271186 0.0000037569008268234505 0 0.0000024230349341118827 0 0
          0.0000015128709856399025 -0.0000036707371878219597 0 0.000002349661657235486 0 0
          -0.000002694059895697043 0.0000037462875465965606 0 0.0000021396528658032892 0 0
          0.0000025176584560054893 -0.0000036010538995712156 0 0.0000021561838322918554 0 0
          -0.0000019974070655515153 0.000002924969161377522 0 0.0000019098827061970066 0 0
          0.0000018211409587715055 -0.0000027804809223097578 0 0.0000019170814986160897 0 0
          -0.000001604725054393796 0.000002304946586817458 0 0.0000016805784157355289 0 0
          0.0000014313131674742463 -0.0000021637559008969016 0 0.0000016866963377558706 0 0
          -0.0000012309924010689424 0.0000017482881254360372 0 0.0000014529265983438717 0 0
          0.00000106131823618405 -0.0000016119419187221597 0 0.0000014617777366947257 0 0
          -9.137811604331691e-7 0.0000012716378975236031 0 0.0000012272597193128997 0 0
          7.500856332026684e-7 -0.0000011428214371500543 0 0.0000012400668458335568 0 0
          -6.460431688226631e-7 8.702656014436537e-7 0 0.000001003558814220825 0 0
          4.916351957900966e-7 -7.526600989127273e-7 0 0.0000010215241066550553 0 0
          -4.284424089673333e-7 5.434833075662615e-7 0 7.791976659305055e-7 0 0
          2.86848704275644e-7 -4.411621619682115e-7 0 8.024508846527749e-7 0 0
          -2.5783923035538336e-7 2.8897824193296895e-7 0 5.43974514999262e-7 0 0
          1.3572706189513006e-7 -2.088429388036328e-7 0 5.764281534636352e-7 0 0
          -1.4564462591515337e-7 1.1194730355212901e-7 0 2.985203873856766e-7 0 0
          4.4431504461761584e-8 -5.7475746689794605e-8 0 3.2734387896249556e-7 0 0
          <InformationKey name="L2_NORM_RANGE" location="vtkDataArray" length="2">
            <Value index="0">
              3.3530826882e-07
            </Value>
            <Value index="1">
              5.086329078e-06
            </Value>
          </InformationKey>
        </DataArray>
        <DataArray type="Float64" Name="Btraction" NumberOfComponents="3" format="ascii" RangeMin="0.1418076442760211" RangeMax="19.005346661405465">
          12.878607081810244 -4.196269049469221 0 0.12529289792874504 0.06641609521593103 0
          17.138097163361977 0.01349422838493838 0 0.15133068265195682 0.07684621711131662 0
          17.240406283623408 0.056662754722345006 0 0.20498071810133012 0.1699344215063431 0
          17.400471084055514 0.14286315369488792 0 0.3699857881790636 0.2670753454603224 0
          17.624869714377894 0.2935013706674569 0 0.6600118654813996 0.34864133303286127 0
          17.85248955378485 0.5336195001181084 0 1.069760924570783 0.3960842830822206 0
          18.074481254357906 0.8809556816979747 0 1.6612860023432556 0.3931154339871267 0
          18.442636723431665 1.4198329924269166 0 2.5577983828804416 0.30359991529762786 0
          18.856021896936053 2.3777384091745493 0 4.00698175534367 -0.11834113346933384 0
          15.623911280768953 1.4147507135737691 0 6.789640125972268 -1.3035222325569444 0
          <InformationKey name="L2_NORM_RANGE" location="vtkDataArray" length="2">
            <Value index="0">
              0.14180764428
            </Value>
            <Value index="1">
              19.005346661
            </Value>
          </InformationKey>
        </DataArray>
      </CellData>
      <Points>
        <DataArray type="Float32" Name="Points" NumberOfComponents="3" format="ascii" RangeMin="1.4500000476837158" RangeMax="1.6286497021092299">
          1.4500000476837158 0.5 0 1.4500000476837158 0.44999998807907104 0
          1.4500000476837158 0.4000000059604645 0 1.5 0.5 0
          1.4500000476837158 0.3499999940395355 0 1.5 0.44999998807907104 0
          1.4500000476837158 0.30000001192092896 0 1.5 0.4000000059604645 0
          1.5499999523162842 0.5 0 1.4500000476837158 0.25 0
          1.5 0.3499999940395355 0 1.5499999523162842 0.44999998807907104 0
          1.5 0.30000001192092896 0 1.4500000476837158 0.20000000298023224 0
          1.5499999523162842 0.4000000059604645 0 1.5 0.25 0
          1.5499999523162842 0.3499999940395355 0 1.4500000476837158 0.15000000596046448 0
          1.5 0.20000000298023224 0 1.5499999523162842 0.30000001192092896 0
          1.4500000476837158 0.10000000149011612 0 1.5499999523162842 0.25 0
          1.5 0.15000000596046448 0 1.4500000476837158 0.05000000074505806 0
          1.5499999523162842 0.20000000298023224 0 1.5 0.10000000149011612 0
          1.4500000476837158 0 0 1.5499999523162842 0.15000000596046448 0
          1.5 0.05000000074505806 0 1.5499999523162842 0.10000000149011612 0
          1.5 0 0 1.5499999523162842 0.05000000074505806 0
          1.5499999523162842 0 0
          <InformationKey name="L2_NORM_RANGE" location="vtkDataArray" length="2">
            <Value index="0">
              1.4500000477
            </Value>
            <Value index="1">
              1.6286497021
            </Value>
          </InformationKey>
        </DataArray>
      </Points>
      <Cells>
        <DataArray type="Int64" Name="connectivity" format="ascii" RangeMin="0" RangeMax="32">
          30 28 23 26 32 31
          28 30 28 25 20 23
          31 29 25 28 25 22
          17 20 29 27 22 25
          22 18 13 17 27 24
          18 22 18 15 9 13
          24 21 15 18 15 12
          6 9 21 19 12 15
          12 10 4 6 19 16
          10 12 10 7 2 4
          16 14 7 10 7 5
          1 2 14 11 5 7
          5 3 0 1 11 8
          3 5
        </DataArray>
        <DataArray type="Int64" Name="offsets" format="ascii" RangeMin="4" RangeMax="80">
          4 8 12 16 20 24
          28 32 36 40 44 48
          52 56 60 64 68 72
          76 80
        </DataArray>
        <DataArray type="UInt8" Name="types" format="ascii" RangeMin="9" RangeMax="9">
          9 9 9 9 9 9
          9 9 9 9 9 9
          9 9 9 9 9 9
          9 9
        </DataArray>
      </Cells>
    </Piece>
  </UnstructuredGrid>
</VTKFile>
