<?xml version="1.0"?>
<VTKFile type="UnstructuredGrid" version="0.1" byte_order="LittleEndian" header_type="UInt32" compressor="vtkZLibDataCompressor">
  <UnstructuredGrid>
    <Piece NumberOfPoints="33" NumberOfCells="20">
      <PointData>
        <DataArray type="Float64" Name="sld_BC" NumberOfComponents="3" format="ascii" RangeMin="0" RangeMax="0">
          0 0 0 0 0 0
          0 0 0 0 0 0
          0 0 0 0 0 0
          0 0 0 0 0 0
          0 0 0 0 0 0
          0 0 0 0 0 0
          0 0 0 0 0 0
          0 0 0 0 0 0
          0 0 0 0 0 0
          0 0 0 0 0 0
          0 0 0 0 0 0
          0 0 0 0 0 0
          0 0 0 0 0 0
          0 0 0 0 0 0
          0 0 0 0 0 0
          0 0 0 0 0 0
          0 0 0
          <InformationKey name="L2_NORM_RANGE" location="vtkDataArray" length="2">
            <Value index="0">
              0
            </Value>
            <Value index="1">
              0
            </Value>
          </InformationKey>
        </DataArray>
        <DataArray type="Float64" Name="sld_FIXNO" NumberOfComponents="3" format="ascii" RangeMin="1.4142135623730951" RangeMax="1.4142135623730951">
          -1 -1 0 -1 -1 0
          -1 -1 0 -1 -1 0
          -1 -1 0 -1 -1 0
          -1 -1 0 -1 -1 0
          -1 -1 0 -1 -1 0
          -1 -1 0 -1 -1 0
          -1 -1 0 -1 -1 0
          -1 -1 0 -1 -1 0
          -1 -1 0 -1 -1 0
          -1 -1 0 -1 -1 0
          -1 -1 0 -1 -1 0
          -1 -1 0 -1 -1 0
          -1 -1 0 -1 -1 0
          1 1 0 -1 -1 0
          -1 -1 0 -1 -1 0
          1 1 0 -1 -1 0
          1 1 0
          <InformationKey name="L2_NORM_RANGE" location="vtkDataArray" length="2">
            <Value index="0">
              1.4142135624
            </Value>
            <Value index="1">
              1.4142135624
            </Value>
          </InformationKey>
        </DataArray>
        <DataArray type="Float64" Name="Disp" NumberOfComponents="3" format="ascii" RangeMin="0" RangeMax="0.000013779238482703984">
          0.000013656171431008501 0.0000018374969415315017 0 0.00001183737268925332 0.000001827447182998789 0
          0.000010024493996466896 0.0000017993098530555987 0 0.000013650668056920393 2.801365370375845e-8 0
          0.000008239268687033933 0.000001744559099517732 0 0.00001182794452986083 2.6625352238774295e-8 0
          0.000006512762212793548 0.0000016551401637425397 0 0.000010007177303765127 2.4700205164926585e-8 0
          0.000013651421917932587 -0.0000017805362855896867 0 0.0000048835255903839564 0.0000015229691665877246 0
          0.000008211651841036837 2.2217863636576468e-8 0 0.000011831778522543608 -0.0000017730635931282446 0
          0.000006472119852652011 1.934570047130887e-8 0 0.000003398119716042037 0.0000013400337882399249 0
          0.00001001767897088606 -0.0000017489893088726128 0 0.000004827221616977469 1.6183582078308196e-8 0
          0.000008231745136009138 -0.0000016994044625931298 0 0.0000021117353395062813 0.000001097983806809607 0
          0.0000033235858386473127 1.282323123021212e-8 0 0.000006504686293759521 -0.0000016159033417306885 0
          0.0000010841977990117611 7.904137352104383e-7 0 0.0000048750960713387555 -0.0000014902003565116576 0
          0.00000201567595716496 9.324039408367548e-9 0 4.0877445622355327e-7 3.9648836975494023e-7 0
          0.0000033894723340813725 -0.000001314103423031148 0 9.681017606700521e-7 5.679578355907918e-9 0
          0 0 0 0.0000021029608238758887 -0.0000010791170746444797 0
          2.392196840334568e-7 1.7957333791514423e-9 0 0.000001075297209790454 -7.786680067744247e-7 0
          0 0 0 4.000193636052863e-7 -3.914753618765538e-7 0
          0 0 0
          <InformationKey name="L2_NORM_RANGE" location="vtkDataArray" length="2">
            <Value index="0">
              0
            </Value>
            <Value index="1">
              1.3779238483e-05
            </Value>
          </InformationKey>
        </DataArray>
        <DataArray type="Float64" Name="Sld_traction" NumberOfComponents="3" format="ascii" RangeMin="0" RangeMax="1755.714499422216">
          7.833020715717876 6.492481868547157 0 -23.097037326763203 -25.629079047770652 0
          -85.40400344234331 -41.11538197927862 0 17.91322193949323 -1.4846190072655154 0
          -171.7345070731933 -56.04279624222848 0 0 0 0
          -281.374863256577 -70.20337591407804 0 0 0 0
          -4.828063958251229 -6.943789008575706 0 -414.3614198684075 -84.21084899679708 0
          0 0 0 -51.680010302487396 28.62998276987368 0
          0 0 0 -570.9323864441167 -97.84962374897508 0
          -115.80840355845146 43.82350677581104 0 0 0 0
          -203.47062533018106 57.99968072750458 0 -749.2777164242684 -113.10880392051352 0
          0 0 0 -314.14555973266124 71.6707018018591 0
          -961.5049453088882 -115.82765767505971 0 -447.73812323580603 85.24441225485128 0
          0 0 0 -1123.6094057886587 -211.6662602458635 0
          -604.6862844018548 98.56907966113178 0 0 0 0
          -1142.2116465429197 -1333.3739002932055 0 -783.6108750783432 113.71732380040378 0
          0 0 0 -997.6516144983947 116.62861714148009 0
          -420.3982363770483 -17.41811862326115 0 -1152.7538173932508 206.79752394451953 0
          -1136.2323742166382 1308.0498595827798 0
          <InformationKey name="L2_NORM_RANGE" location="vtkDataArray" length="2">
            <Value index="0">
              0
            </Value>
            <Value index="1">
              1755.7144994
            </Value>
          </InformationKey>
        </DataArray>
        <DataArray type="Float64" Name="Fld_traction" NumberOfComponents="3" format="ascii" RangeMin="0" RangeMax="38.621373793994344">
          24.548134545336232 -0.3965345700332966 0 38.15947422161347 5.955253215896889 0
          37.487216814309114 3.458798265672185 0 14.875693391296995 -3.6956944185808065 0
          36.44921631813591 2.112664211722568 0 0 0 0
          35.96693887296261 1.3071060750169223 0 0 0 0
          12.24350644434878 -1.552719294266557 0 35.524218781225 0.7379349628381906 0
          0 0 0 9.730120691277643 -0.8491312693750094 0
          0 0 0 35.033576980332846 0.36790141209451027 0
          6.097657962367914 0.5424402826737376 0 0 0 0
          3.967929532588958 0.8255224666507444 0 34.62131934395303 0.15815055599141822 0
          0 0 0 2.5343148996733205 0.885433860894699 0
          34.39773906443855 0.042919027509465454 0 1.6169997587341955 0.8137574543287438 0
          0 0 0 34.221171129963814 0.0006747005356568817 0
          0.914029321602115 0.6646391520739424 0 0 0 0
          17.350862461104715 -16.80846407618483 0 0.47979570456318005 0.45234969919412 0
          0 0 0 0.2875318666144245 0.2447793414359542 0
          0 0 0 0.30761655211142375 0.06371661332070057 0
          0.20277188876192723 0.2058812416368721 0
          <InformationKey name="L2_NORM_RANGE" location="vtkDataArray" length="2">
            <Value index="0">
              0
            </Value>
            <Value index="1">
              38.621373794
            </Value>
          </InformationKey>
        </DataArray>
        <DataArray type="Float64" Name="Velocity" NumberOfComponents="3" format="ascii" RangeMin="0" RangeMax="0.0004625460792669598">
          -0.0004581792288269174 -0.00006032470233269939 0 -0.00039672617265764027 -0.00006037555050375936 0
          -0.0003346280094956317 -0.00006002896145541752 0 -0.0004583273232011898 9.646255113390249e-7 0
          -0.0002728204728238661 -0.00005865168835687391 0 -0.00039684387361746756 9.142559756332706e-7 0
          -0.00021276101563864511 -0.000055755992083943924 0 -0.0003345167723052464 8.435302129213753e-7 0
          -0.0004583343325807313 0.00006227772493445974 0 -0.00015633314275195943 -0.000051015206135878954 0
          -0.00027227950283970135 7.537692799957676e-7 0 -0.00039692097165632857 0.00006223705263328665 0
          -0.00021165675451035692 6.517027467809104e-7 0 -0.00010565717955091723 -0.00004425642660351054 0
          -0.00033487112161870386 0.00006174442734211694 0 -0.0001545801048701639 5.410905627010928e-7 0
          -0.0002730895628811251 0.00006018189923230515 0 -0.00006294854492077976 -0.00003544404885623821 0
          -0.00010322327439170982 4.2527122154705123e-7 0 -0.0002130503571123679 0.000057076760359996496 0
          -0.000030261196149236787 -0.00002472948219879806 0 -0.0001566353807079498 0.000052110477894190516 0
          -0.0000598294487946613 3.0635082918843484e-7 0 -0.000010190128376515397 -0.000011959124355662617 0
          -0.00010596846339742491 0.00004511661096057855 0 -0.00002663315015197476 1.837101633661329e-7 0
          0 0 0 -0.00006326518985561511 0.00003606480307932251 0
          -0.000005264292485026864 5.3166706083145027e-8 0 -0.00003058531877468481 0.000025111410372329055 0
          0 0 0 -0.000010511158412395728 0.000012118186925171332 0
          0 0 0
          <InformationKey name="L2_NORM_RANGE" location="vtkDataArray" length="2">
            <Value index="0">
              0
            </Value>
            <Value index="1">
              0.00046254607927
            </Value>
          </InformationKey>
        </DataArray>
      </PointData>
      <CellData>
        <DataArray type="UInt8" Name="vtkGhostType" format="ascii" RangeMin="0" RangeMax="0">
          0 0 0 0 0 0
          0 0 0 0 0 0
          0 0 0 0 0 0
          0 0
        </DataArray>
        <DataArray type="Float64" Name="Gauss Stress" NumberOfComponents="6" format="ascii" RangeMin="27.53216540872113" RangeMax="1302.4533577913558">
          411.2955292413983 1222.4911083030897 0 180.93155326779896 0 0
          -424.22468560348483 -1210.6264111060154 0 175.68956570166608 0 0
          -87.56356653338304 888.8031941231457 0 160.63380673530042 0 0
          53.43910355160722 -876.9997942087846 0 161.80926099714398 0 0
          -19.914319747202626 727.7509823784912 0 144.09146098803265 0 0
          -14.387160555091242 -716.228832249888 0 144.59965489876618 0 0
          -29.319625945146413 565.1629556452992 0 127.45306523528386 0 0
          -4.717815635345772 -554.2366073338928 0 127.88861291297584 0 0
          -28.155358693545935 424.8860378953302 0 110.75335816334294 0 0
          -5.68134020201299 -414.97013561563153 0 111.38616273273111 0 0
          -28.448252221828497 303.37343853099173 0 93.97302662193084 0 0
          -5.000061976594637 -294.98015754733746 0 94.89213810859356 0 0
          -28.432493166125084 200.91979806463752 0 77.07730606906048 0 0
          -4.265769598041231 -194.6835633123551 0 78.36780711849886 0 0
          -28.599930926176633 117.34815735955505 0 59.859641896663476 0 0
          -3.008111151312704 -114.00885599893618 0 61.531939360106 0 0
          -28.262525278376096 52.88780291694341 0 41.58320488016878 0 0
          -1.3792453704599907 -53.503551771310995 0 43.91928979579132 0 0
          -30.841772800426995 6.8274586194149975 0 22.29864776425795 0 0
          2.7485179461175244 -12.499313485476815 0 24.376893641004134 0 0
          <InformationKey name="L2_NORM_RANGE" location="vtkDataArray" length="2">
            <Value index="0">
              27.532165409
            </Value>
            <Value index="1">
              1302.4533578
            </Value>
          </InformationKey>
        </DataArray>
        <DataArray type="Float64" Name="Gauss Strain" NumberOfComponents="6" format="ascii" RangeMin="3.496555415203603e-7" RangeMax="0.000005389072385951562">
          -0.000001695538281221154 0.000003982813549713304 0 0.0000025330314904888886 0 0
          0.0000016080064529216953 -0.000003896822518528741 0 0.0000024596637653510635 0 0
          -0.000002856426947278612 0.000003978127735004833 0 0.0000022488721617449865 0 0
          0.000002680033837382245 -0.000003833050958745865 0 0.0000022653308683098564 0 0
          -0.0000021213492463201256 0.000003112299616553349 0 0.0000020172788607519676 0 0
          0.000001945009203765946 -0.0000029678905925645256 0 0.000002024396835624179 0 0
          -0.0000017056030058582028 0.0000024557700620819745 0 0.0000017843419170483132 0 0
          0.0000015320440775873354 -0.000002314592355029399 0 0.00000179044164165773 0 0
          -0.0000013079361110557297 0.0000018633508398202547 0 0.0000015505463713226156 0 0
          0.0000011380525695020571 -0.0000017269717483003877 0 0.0000015594069811211516 0 0
          -9.689299002857421e-7 0.0000013538204944180121 0 0.0000013156220010307082 0 0
          8.049429251061335e-7 -0.0000012249191421176418 0 0.0000013284903599392193 0 0
          -6.819928030366017e-7 9.234726038448435e-7 0 0.0000010790820995426304 0 0
          5.271970721781871e-7 -8.057280985740433e-7 0 0.0000010971495334243233 0 0
          -4.486950018200986e-7 5.729414017247025e-7 0 8.380349183212283e-7 0 0
          3.0659040156644224e-7 -4.70415026931903e-7 0 8.61447258873211e-7 0 0
          -2.667886424834176e-7 3.012636144994474e-7 0 5.82164862037097e-7 0 0
          1.4401697716326378e-7 -2.2085321677023368e-7 0 6.14870092828173e-7 0 0
          -1.4865238440187054e-7 1.1503224242592758e-7 0 3.1218108146144786e-7 0 0
          4.6541815540424025e-8 -6.019300824444684e-8 0 3.4127651381333215e-7 0 0
          <InformationKey name="L2_NORM_RANGE" location="vtkDataArray" length="2">
            <Value index="0">
              3.4965554152e-07
            </Value>
            <Value index="1">
              5.389072386e-06
            </Value>
          </InformationKey>
        </DataArray>
        <DataArray type="Float64" Name="Btraction" NumberOfComponents="3" format="ascii" RangeMin="0.1443042281030892" RangeMax="19.057554653571707">
          12.893008397767131 -4.201947343912294 0 0.12759711021833772 0.06739946373939315 0
          17.15472754860059 0.010898432011280582 0 0.14878710468146206 0.07712398868916368 0
          17.254764602097897 0.05026739587522092 0 0.19183189279440113 0.17428226015751855 0
          17.413724081071468 0.1315129920214821 0 0.34845625654132373 0.2792472128170156 0
          17.639448940389464 0.27645909373317523 0 0.6327572700840775 0.3695991516006715 0
          17.872789413546897 0.5112602594637782 0 1.037828664601879 0.42479782880586064 0
          18.104038797774628 0.8549425716848724 0 1.6255611080655696 0.42773908188636073 0
          18.484108283111254 1.392865619348688 0 2.516396873739218 0.34199068733112037 0
          18.911672758980643 2.3535128703922683 0 3.9569446634113894 -0.07667274667531795 0
          15.676902191737426 1.389679661465898 0 6.779799958911442 -1.312103428211841 0
          <InformationKey name="L2_NORM_RANGE" location="vtkDataArray" length="2">
            <Value index="0">
              0.1443042281
            </Value>
            <Value index="1">
              19.057554654
            </Value>
          </InformationKey>
        </DataArray>
      </CellData>
      <Points>
        <DataArray type="Float32" Name="Points" NumberOfComponents="3" format="ascii" RangeMin="1.4500000476837158" RangeMax="1.6286497021092299">
          1.4500000476837158 0.5 0 1.4500000476837158 0.44999998807907104 0
          1.4500000476837158 0.4000000059604645 0 1.5 0.5 0
          1.4500000476837158 0.3499999940395355 0 1.5 0.44999998807907104 0
          1.4500000476837158 0.30000001192092896 0 1.5 0.4000000059604645 0
          1.5499999523162842 0.5 0 1.4500000476837158 0.25 0
          1.5 0.3499999940395355 0 1.5499999523162842 0.44999998807907104 0
          1.5 0.30000001192092896 0 1.4500000476837158 0.20000000298023224 0
          1.5499999523162842 0.4000000059604645 0 1.5 0.25 0
          1.5499999523162842 0.3499999940395355 0 1.4500000476837158 0.15000000596046448 0
          1.5 0.20000000298023224 0 1.5499999523162842 0.30000001192092896 0
          1.4500000476837158 0.10000000149011612 0 1.5499999523162842 0.25 0
          1.5 0.15000000596046448 0 1.4500000476837158 0.05000000074505806 0
          1.5499999523162842 0.20000000298023224 0 1.5 0.10000000149011612 0
          1.4500000476837158 0 0 1.5499999523162842 0.15000000596046448 0
          1.5 0.05000000074505806 0 1.5499999523162842 0.10000000149011612 0
          1.5 0 0 1.5499999523162842 0.05000000074505806 0
          1.5499999523162842 0 0
          <InformationKey name="L2_NORM_RANGE" location="vtkDataArray" length="2">
            <Value index="0">
              1.4500000477
            </Value>
            <Value index="1">
              1.6286497021
            </Value>
          </InformationKey>
        </DataArray>
      </Points>
      <Cells>
        <DataArray type="Int64" Name="connectivity" format="ascii" RangeMin="0" RangeMax="32">
          30 28 23 26 32 31
          28 30 28 25 20 23
          31 29 25 28 25 22
          17 20 29 27 22 25
          22 18 13 17 27 24
          18 22 18 15 9 13
          24 21 15 18 15 12
          6 9 21 19 12 15
          12 10 4 6 19 16
          10 12 10 7 2 4
          16 14 7 10 7 5
          1 2 14 11 5 7
          5 3 0 1 11 8
          3 5
        </DataArray>
        <DataArray type="Int64" Name="offsets" format="ascii" RangeMin="4" RangeMax="80">
          4 8 12 16 20 24
          28 32 36 40 44 48
          52 56 60 64 68 72
          76 80
        </DataArray>
        <DataArray type="UInt8" Name="types" format="ascii" RangeMin="9" RangeMax="9">
          9 9 9 9 9 9
          9 9 9 9 9 9
          9 9 9 9 9 9
          9 9
        </DataArray>
      </Cells>
    </Piece>
  </UnstructuredGrid>
</VTKFile>
