<?xml version="1.0"?>
<VTKFile type="UnstructuredGrid" version="0.1" byte_order="LittleEndian" header_type="UInt32" compressor="vtkZLibDataCompressor">
  <UnstructuredGrid>
    <Piece NumberOfPoints="33" NumberOfCells="20">
      <PointData>
        <DataArray type="Float64" Name="sld_BC" NumberOfComponents="3" format="ascii" RangeMin="0" RangeMax="0">
          0 0 0 0 0 0
          0 0 0 0 0 0
          0 0 0 0 0 0
          0 0 0 0 0 0
          0 0 0 0 0 0
          0 0 0 0 0 0
          0 0 0 0 0 0
          0 0 0 0 0 0
          0 0 0 0 0 0
          0 0 0 0 0 0
          0 0 0 0 0 0
          0 0 0 0 0 0
          0 0 0 0 0 0
          0 0 0 0 0 0
          0 0 0 0 0 0
          0 0 0 0 0 0
          0 0 0
          <InformationKey name="L2_NORM_RANGE" location="vtkDataArray" length="2">
            <Value index="0">
              0
            </Value>
            <Value index="1">
              0
            </Value>
          </InformationKey>
        </DataArray>
        <DataArray type="Float64" Name="sld_FIXNO" NumberOfComponents="3" format="ascii" RangeMin="1.4142135623730951" RangeMax="1.4142135623730951">
          -1 -1 0 -1 -1 0
          -1 -1 0 -1 -1 0
          -1 -1 0 -1 -1 0
          -1 -1 0 -1 -1 0
          -1 -1 0 -1 -1 0
          -1 -1 0 -1 -1 0
          -1 -1 0 -1 -1 0
          -1 -1 0 -1 -1 0
          -1 -1 0 -1 -1 0
          -1 -1 0 -1 -1 0
          -1 -1 0 -1 -1 0
          -1 -1 0 -1 -1 0
          -1 -1 0 -1 -1 0
          1 1 0 -1 -1 0
          -1 -1 0 -1 -1 0
          1 1 0 -1 -1 0
          1 1 0
          <InformationKey name="L2_NORM_RANGE" location="vtkDataArray" length="2">
            <Value index="0">
              1.4142135624
            </Value>
            <Value index="1">
              1.4142135624
            </Value>
          </InformationKey>
        </DataArray>
        <DataArray type="Float64" Name="Disp" NumberOfComponents="3" format="ascii" RangeMin="0" RangeMax="0.00001602691222687087">
          0.00001588438682088253 0.000002132644098858568 0 0.000013766806922001506 0.000002121667996762675 0
          0.00001165513424114193 0.000002089905673942603 0 0.00001587884642123041 2.5377030594246664e-8 0
          0.000009575090846927929 0.0000020269487733058583 0 0.000013756783450272027 2.4185249475560168e-8 0
          0.000007563425035754928 0.000001923161005704098 0 0.000011635964642584784 2.245470445822493e-8 0
          0.000015880087633678346 -0.000002081240580292328 0 0.000005665790541552901 0.0000017690950330793825 0
          0.000009543818366349454 2.0200087272526955e-8 0 0.000013761526065338243 -0.0000020724229344052576 0
          0.00000751683250605389 1.7587125663219003e-8 0 0.000003937083965017799 0.000001555590126971585 0
          0.000011648611509232846 -0.000002044261429630941 0 0.000005600823494241485 1.4709868239481786e-8 0
          0.000009567878529229347 -0.00000198597214184128 0 0.000002441970388466961 0.000001273312260521133 0
          0.000003850837932470272 1.1651914391188968e-8 0 0.000007555684766026544 -0.0000018875533402672233 0
          0.0000012500750480871148 9.153800477040137e-7 0 0.000005657724366082165 -0.0000017393573916601592 0
          0.0000023307854511731433 8.466347849378917e-9 0 4.689941979541941e-7 4.584445471630393e-7 0
          0.000003928810394038976 -0.0000015320602097258567 0 0.000001115871681986813 5.138842309643998e-9 0
          0 0 0 0.0000024335897627996654 -0.0000012561948346334795 0
          2.734644714953344e-7 1.5692809046173198e-9 0 0.0000012415453679932696 -9.047432096503939e-7 0
          0 0 0 4.605833239678672e-7 -4.539440101512007e-7 0
          0 0 0
          <InformationKey name="L2_NORM_RANGE" location="vtkDataArray" length="2">
            <Value index="0">
              0
            </Value>
            <Value index="1">
              1.6026912227e-05
            </Value>
          </InformationKey>
        </DataArray>
        <DataArray type="Float64" Name="Sld_traction" NumberOfComponents="3" format="ascii" RangeMin="0" RangeMax="2026.302947975215">
          6.904473178310107 7.856780644592132 0 -30.16538589920517 -29.308368884331966 0
          -102.70892314619105 -47.87568792450937 0 19.6995646879556 -1.7513850607788362 0
          -204.35168898526547 -65.4867786661856 0 0 0 0
          -333.5257494678593 -81.99410255349565 0 0 0 0
          -5.18906755410726 -8.709899038394193 0 -489.64284797055507 -98.05743809622768 0
          0 0 0 -58.08127837948171 32.066271210743636 0
          0 0 0 -672.3915107649291 -113.40955547812301 0
          -132.9702058467238 50.31794346528526 0 0 0 0
          -236.09641215279615 67.21445922962302 0 -879.1360622138905 -130.3081059468962 0
          0 0 0 -366.41316437459295 83.27612429484242 0
          -1123.2701773689168 -132.40097475957054 0 -523.2043379093816 98.96017571580586 0
          0 0 0 -1306.3668771772245 -241.03857500124434 0
          -706.4077322048578 114.0440539959311 0 0 0 0
          -1318.9508625395686 -1538.2692414461048 0 -913.7232999749239 130.88744758345783 0
          0 0 0 -1159.7169569327593 133.20864655487068 0
          -481.7703449636842 -15.390417866199883 0 -1336.169187237717 236.38603774217702 0
          -1314.1098647163547 1515.3031034585206 0
          <InformationKey name="L2_NORM_RANGE" location="vtkDataArray" length="2">
            <Value index="0">
              0
            </Value>
            <Value index="1">
              2026.302948
            </Value>
          </InformationKey>
        </DataArray>
        <DataArray type="Float64" Name="Fld_traction" NumberOfComponents="3" format="ascii" RangeMin="0" RangeMax="38.933301540778835">
          24.67932429551447 -0.12163278767940118 0 38.37619781624403 6.562728855721431 0
          37.893774162151104 4.0933245934073055 0 15.181981123488933 -4.02242523773762 0
          37.021894852574185 2.7357525077660965 0 0 0 0
          36.70107190184958 1.8666836988950224 0 0 0 0
          12.988899351875784 -2.4864531306679716 0 36.38810270355228 1.1946221760886004 0
          0 0 0 10.736337898639281 -2.1265487747479543 0
          0 0 0 35.95797755595172 0.6927765275038383 0
          6.8372774191229375 -0.5894713637423052 0 0 0 0
          4.662767291891324 -0.22010977062151818 0 35.5142795356045 0.3551024931408683 0
          0 0 0 3.2580894131567204 -0.02364586806346784 0
          35.253436196124696 0.13353636631646285 0 2.404997631416134 0.10041231861230547 0
          0 0 0 34.99169680166114 0.02065363601315077 0
          1.6656876027636591 0.16380802474396142 0 0 0 0
          17.715851456168238 -17.158832486174337 0 1.200314710144021 0.186796375584788 0
          0 0 0 0.8090469374155734 0.15612282174827097 0
          0 0 0 0.6306922310262684 0.058117616679849673 0
          0.3263817572223797 0.32475143367903003 0
          <InformationKey name="L2_NORM_RANGE" location="vtkDataArray" length="2">
            <Value index="0">
              0
            </Value>
            <Value index="1">
              38.933301541
            </Value>
          </InformationKey>
        </DataArray>
        <DataArray type="Float64" Name="Velocity" NumberOfComponents="3" format="ascii" RangeMin="0" RangeMax="0.0006410764890748347">
          0.0006353754728353013 0.00008530576395434274 0 0.0005506722768800603 0.00008486671987050702 0
          0.0004662053696456772 0.00008359622695770413 0 0.0006351538568492164 0.0000010150812237698665 0
          0.00038300363387711717 0.00008107795093223435 0 0.0005502713380108811 9.674099790224067e-7 0
          0.0003025370014301972 0.00007692644022816392 0 0.0004654385857033914 8.981881783289972e-7 0
          0.0006352035053471339 -0.00008324962321169312 0 0.00022663162166211602 0.0000707638013231753 0
          0.0003817527346539782 8.080034909010782e-7 0 0.0005504610426135297 -0.00008289691737621032 0
          0.00030067330024215557 7.034850265287601e-7 0 0.00015748335860071196 0.0000622236050788634 0
          0.0004659444603693139 -0.00008177045718523765 0 0.00022403293976965943 5.883947295792714e-7 0
          0.0003827151411691739 -0.0000794388856736512 0 0.00009767881553867844 0.00005093249042084532 0
          0.00015403351729881092 4.660765756475587e-7 0 0.0003022273906410618 -0.00007550213361068894 0
          0.0000500030019234846 0.00003661520190816055 0 0.00022630897464328664 -0.00006957429566640636 0
          0.00009323141804692573 3.3865391397515667e-7 0 0.000018759767918167763 0.000018337781886521573 0
          0.00015715241576155905 -0.00006128240838903427 0 0.000044634867279472515 2.055536923857599e-7 0
          0 0 0 0.00009734359051198662 -0.000050247793385339185 0
          0.000010938578859813377 6.277123618469279e-8 0 0.000049661814719730784 -0.00003618972838601576 0
          0 0 0 0.00001842333295871469 -0.00001815776040604803 0
          0 0 0
          <InformationKey name="L2_NORM_RANGE" location="vtkDataArray" length="2">
            <Value index="0">
              0
            </Value>
            <Value index="1">
              0.00064107648907
            </Value>
          </InformationKey>
        </DataArray>
      </PointData>
      <CellData>
        <DataArray type="UInt8" Name="vtkGhostType" format="ascii" RangeMin="0" RangeMax="0">
          0 0 0 0 0 0
          0 0 0 0 0 0
          0 0 0 0 0 0
          0 0
        </DataArray>
        <DataArray type="Float64" Name="Gauss Stress" NumberOfComponents="6" format="ascii" RangeMin="30.940125939255044" RangeMax="1504.8640982866716">
          476.3462262185163 1412.8333334877066 0 203.99068328124878 0 0
          -490.55582430118307 -1404.1216622053785 0 198.95076444624456 0 0
          -97.33750497555158 1031.5679294972683 0 183.1308840879235 0 0
          62.81616323849448 -1022.9360402043412 0 184.25909085977042 0 0
          -19.3066610868577 847.3252836804953 0 165.52553936246704 0 0
          -15.261925011084543 -838.9873332674975 0 166.00132852577894 0 0
          -30.21854980837685 659.6217074718793 0 147.42564523828503 0 0
          -4.02310309746332 -651.8271235156583 0 147.7762121217668 0 0
          -28.89221968331195 496.493076616554 0 128.84368846626558 0 0
          -5.099209536973262 -489.5546605076327 0 129.36337293990485 0 0
          -29.201324787638896 354.3658221879222 0 109.78175675535539 0 0
          -4.323746942246984 -348.7204115484871 0 110.53765442762432 0 0
          -29.13750169914431 234.0920564698499 0 90.24029473505443 0 0
          -3.5386901992228275 -230.2863640510165 0 91.32902845602828 0 0
          -29.251842592633697 135.9617972748467 0 69.99626867930817 0 0
          -2.173358484014706 -134.66740340733222 0 71.41934206829227 0 0
          -28.787669674742837 60.75961620306317 0 48.25743014720158 0 0
          -0.3590597288323458 -62.96391617776736 0 50.290863619673566 0 0
          -31.29920950894512 8.31547871783164 0 24.924446933874236 0 0
          4.494502409178685 -14.950170908278668 0 26.7129787003267 0 0
          <InformationKey name="L2_NORM_RANGE" location="vtkDataArray" length="2">
            <Value index="0">
              30.940125939
            </Value>
            <Value index="1">
              1504.8640983
            </Value>
          </InformationKey>
        </DataArray>
        <DataArray type="Float64" Name="Gauss Strain" NumberOfComponents="6" format="ascii" RangeMin="3.863065980166417e-7" RangeMax="0.0000062170601887925325">
          -0.0000019552849055137766 0.000004600101823959424 0 0.0000028558560571307753 0 0
          0.0000018712011259081063 -0.000004523782451720804 0 0.000002785323772814586 0 0
          -0.0000032972223472649276 0.000004605098632523563 0 0.0000025638308775142346 0 0
          0.000003128035516913873 -0.000004472246879161368 0 0.00000257962887826204 0 0
          -0.000002453607234192967 0.000003612805173081046 0 0.000002317355408911197 0 0
          0.000002285056991388479 -0.0000034810319405609302 0 0.00000232402083787761 0 0
          -0.0000019738644397027105 0.000002855010530572466 0 0.0000020639576786743645 0 0
          0.0000018082139513486695 -0.0000027264209303268228 0 0.0000020688684073695356 0 0
          -0.0000015115315473712698 0.0000021661616580181953 0 0.0000018038107562226206 0 0
          0.0000013493333396036313 -0.000002041858625817516 0 0.0000018110881798674296 0 0
          -0.0000011148720189257944 0.0000015700960369208206 0 0.0000015369440801146712 0 0
          9.582556640963524e-7 -0.0000014525229296014075 0 0.0000015475277450947855 0 0
          -7.778364547184057e-7 0.0000010647695903309717 0 0.000001263363867120053 0 0
          6.299383829427851e-7 -9.57296186571144e-7 0 0.000001278606717312014 0 0
          -5.035513618023567e-7 6.529438265762133e-7 0 9.79947664090534e-7 0 0
          3.679401704287377e-7 -5.595184395523757e-7 0 9.998709344416243e-7 0 0
          -2.9103537788066625e-7 3.357955679489377e-7 0 6.756040101319988e-7 0 0
          1.7479073018134006e-7 -2.634433315107376e-7 0 7.040721373413886e-7 0 0
          -1.5474008449589682e-7 1.2256273948518803e-7 0 3.489422712264947e-7 0 0
          6.073734212797e-8 -7.53753760240894e-8 0 3.73981704942432e-7 0 0
          <InformationKey name="L2_NORM_RANGE" location="vtkDataArray" length="2">
            <Value index="0">
              3.8630659802e-07
            </Value>
            <Value index="1">
              6.2170601888e-06
            </Value>
          </InformationKey>
        </DataArray>
        <DataArray type="Float64" Name="Btraction" NumberOfComponents="3" format="ascii" RangeMin="0.25770372144005843" RangeMax="19.252694780042912">
          13.176887064457343 -4.2845447125402965 0 0.23926849706216202 0.09571726258971992 0
          17.56128324944646 0.0385475005824034 0 0.35993479211046037 0.05356010960703016 0
          17.691928932932296 0.12215971486433276 0 0.5023404118898986 0.08572979933326474 0
          17.86806427288905 0.2619697551611766 0 0.71650057822692 0.08765110008218735 0
          18.086520064875998 0.47184967589810967 0 1.0176713085449482 0.06605508583906672 0
          18.272293651350466 0.7653264687459056 0 1.4157717611432135 0.019191612637209404 0
          18.43074168860594 1.1506090516652794 0 1.9802141762620111 -0.06093890967124651 0
          18.728917253681324 1.7072692752933505 0 2.8750111777535654 -0.20239528359095582 0
          19.06749299459878 2.664013362282184 0 4.393403829440555 -0.6790050346225649 0
          15.763880527939623 1.6102740170105072 0 7.042720118841178 -1.6272195921013979 0
          <InformationKey name="L2_NORM_RANGE" location="vtkDataArray" length="2">
            <Value index="0">
              0.25770372144
            </Value>
            <Value index="1">
              19.25269478
            </Value>
          </InformationKey>
        </DataArray>
      </CellData>
      <Points>
        <DataArray type="Float32" Name="Points" NumberOfComponents="3" format="ascii" RangeMin="1.4500000476837158" RangeMax="1.6286497021092299">
          1.4500000476837158 0.5 0 1.4500000476837158 0.44999998807907104 0
          1.4500000476837158 0.4000000059604645 0 1.5 0.5 0
          1.4500000476837158 0.3499999940395355 0 1.5 0.44999998807907104 0
          1.4500000476837158 0.30000001192092896 0 1.5 0.4000000059604645 0
          1.5499999523162842 0.5 0 1.4500000476837158 0.25 0
          1.5 0.3499999940395355 0 1.5499999523162842 0.44999998807907104 0
          1.5 0.30000001192092896 0 1.4500000476837158 0.20000000298023224 0
          1.5499999523162842 0.4000000059604645 0 1.5 0.25 0
          1.5499999523162842 0.3499999940395355 0 1.4500000476837158 0.15000000596046448 0
          1.5 0.20000000298023224 0 1.5499999523162842 0.30000001192092896 0
          1.4500000476837158 0.10000000149011612 0 1.5499999523162842 0.25 0
          1.5 0.15000000596046448 0 1.4500000476837158 0.05000000074505806 0
          1.5499999523162842 0.20000000298023224 0 1.5 0.10000000149011612 0
          1.4500000476837158 0 0 1.5499999523162842 0.15000000596046448 0
          1.5 0.05000000074505806 0 1.5499999523162842 0.10000000149011612 0
          1.5 0 0 1.5499999523162842 0.05000000074505806 0
          1.5499999523162842 0 0
          <InformationKey name="L2_NORM_RANGE" location="vtkDataArray" length="2">
            <Value index="0">
              1.4500000477
            </Value>
            <Value index="1">
              1.6286497021
            </Value>
          </InformationKey>
        </DataArray>
      </Points>
      <Cells>
        <DataArray type="Int64" Name="connectivity" format="ascii" RangeMin="0" RangeMax="32">
          30 28 23 26 32 31
          28 30 28 25 20 23
          31 29 25 28 25 22
          17 20 29 27 22 25
          22 18 13 17 27 24
          18 22 18 15 9 13
          24 21 15 18 15 12
          6 9 21 19 12 15
          12 10 4 6 19 16
          10 12 10 7 2 4
          16 14 7 10 7 5
          1 2 14 11 5 7
          5 3 0 1 11 8
          3 5
        </DataArray>
        <DataArray type="Int64" Name="offsets" format="ascii" RangeMin="4" RangeMax="80">
          4 8 12 16 20 24
          28 32 36 40 44 48
          52 56 60 64 68 72
          76 80
        </DataArray>
        <DataArray type="UInt8" Name="types" format="ascii" RangeMin="9" RangeMax="9">
          9 9 9 9 9 9
          9 9 9 9 9 9
          9 9 9 9 9 9
          9 9
        </DataArray>
      </Cells>
    </Piece>
  </UnstructuredGrid>
</VTKFile>
