<?xml version="1.0"?>
<VTKFile type="UnstructuredGrid" version="0.1" byte_order="LittleEndian" header_type="UInt32" compressor="vtkZLibDataCompressor">
  <UnstructuredGrid>
    <Piece NumberOfPoints="33" NumberOfCells="20">
      <PointData>
        <DataArray type="Float64" Name="sld_BC" NumberOfComponents="3" format="ascii" RangeMin="0" RangeMax="0">
          0 0 0 0 0 0
          0 0 0 0 0 0
          0 0 0 0 0 0
          0 0 0 0 0 0
          0 0 0 0 0 0
          0 0 0 0 0 0
          0 0 0 0 0 0
          0 0 0 0 0 0
          0 0 0 0 0 0
          0 0 0 0 0 0
          0 0 0 0 0 0
          0 0 0 0 0 0
          0 0 0 0 0 0
          0 0 0 0 0 0
          0 0 0 0 0 0
          0 0 0 0 0 0
          0 0 0
          <InformationKey name="L2_NORM_RANGE" location="vtkDataArray" length="2">
            <Value index="0">
              0
            </Value>
            <Value index="1">
              0
            </Value>
          </InformationKey>
        </DataArray>
        <DataArray type="Float64" Name="sld_FIXNO" NumberOfComponents="3" format="ascii" RangeMin="1.4142135623730951" RangeMax="1.4142135623730951">
          -1 -1 0 -1 -1 0
          -1 -1 0 -1 -1 0
          -1 -1 0 -1 -1 0
          -1 -1 0 -1 -1 0
          -1 -1 0 -1 -1 0
          -1 -1 0 -1 -1 0
          -1 -1 0 -1 -1 0
          -1 -1 0 -1 -1 0
          -1 -1 0 -1 -1 0
          -1 -1 0 -1 -1 0
          -1 -1 0 -1 -1 0
          -1 -1 0 -1 -1 0
          -1 -1 0 -1 -1 0
          1 1 0 -1 -1 0
          -1 -1 0 -1 -1 0
          1 1 0 -1 -1 0
          1 1 0
          <InformationKey name="L2_NORM_RANGE" location="vtkDataArray" length="2">
            <Value index="0">
              1.4142135624
            </Value>
            <Value index="1">
              1.4142135624
            </Value>
          </InformationKey>
        </DataArray>
        <DataArray type="Float64" Name="Disp" NumberOfComponents="3" format="ascii" RangeMin="0" RangeMax="0.000013647124320543635">
          0.00001352527139064954 0.000001819625244288114 0 0.000011724025118145324 0.000001809632990295751 0
          0.00000992885479979932 0.0000017816882077240452 0 0.000013519857374720552 2.7530280027817295e-8 0
          0.000008161231955198832 0.0000017274261425584106 0 0.000011714683190622237 2.6183890615106925e-8 0
          0.000006451798148016681 0.0000016389209428315291 0 0.000009911687664589668 2.4297420104325115e-8 0
          0.000013520702838475539 -0.000001763722511853199 0 0.00000483857269026711 0.000001508172956277045 0
          0.000008133880917143864 2.185931562647474e-8 0 0.000011718564546708195 -0.0000017562125986426682 0
          0.00000641157453999867 1.9035898954432318e-8 0 0.0000033675302318341056 0.000001327211377465312 0
          0.000009922159967940001 -0.0000017322311568219926 0 0.0000047828626232741744 1.5926636774236855e-8 0
          0.000008153820874305319 -0.0000016830338127010583 0 0.000002093268432870782 0.000001087696800792173 0
          0.000003293773796238155 1.2621908763479608e-8 0 0.000006443831074939176 -0.0000016003397885978681 0
          0.0000010750800718175426 7.831955638848176e-7 0 0.0000048302514926624915 -0.0000014759453395234424 0
          0.000001998176711743121 9.180068904092649e-9 0 4.055118738351176e-7 3.92962322912343e-7 0
          0.000003358987418359812 -0.0000013017019973365346 0 9.600964428758208e-7 5.592233204498304e-9 0
          0 0 0 0.000002084598444782729 -0.0000010691277036628002 0
          2.3747262147079965e-7 1.7622863405935393e-9 0 0.0000010662696348461184 -7.716308341461611e-7 0
          0 0 0 3.968345349561606e-7 -3.8802917430600207e-7 0
          0 0 0
          <InformationKey name="L2_NORM_RANGE" location="vtkDataArray" length="2">
            <Value index="0">
              0
            </Value>
            <Value index="1">
              1.3647124321e-05
            </Value>
          </InformationKey>
        </DataArray>
        <DataArray type="Float64" Name="Sld_traction" NumberOfComponents="3" format="ascii" RangeMin="0" RangeMax="1740.4623096847308">
          7.506823311033742 6.640069645913334 0 -23.207680004828664 -25.228056537367017 0
          -84.80631096692231 -40.42264717160709 0 17.627871192316032 -1.3514099965802482 0
          -170.0499590268108 -55.13837512575821 0 0 0 0
          -278.3118867849734 -69.1798757643286 0 0 0 0
          -4.768571061899616 -7.002446404434076 0 -409.75244360721643 -83.15508106311756 0
          0 0 0 -51.17048728896327 28.160336430005035 0
          0 0 0 -564.7173853050598 -96.8284312639528 0
          -114.7639909476336 43.06059471950672 0 0 0 0
          -201.4267553284469 57.03748871902058 0 -741.4916701038704 -112.13528463981505 0
          0 0 0 -310.7921157807541 70.59786206251358 0
          -952.0903910013081 -115.00578741026499 0 -442.88861517830526 84.1518146357488 0
          0 0 0 -1113.23498629463 -210.17807493857973 0
          -598.2753509957419 97.52321830517691 0 0 0 0
          -1132.3327283790152 -1321.7532461374337 0 -775.6414607895758 112.73784300420422 0
          0 0 0 -988.0868315726806 115.81343212605896 0
          -417.19926924877973 -17.112989841472967 0 -1142.3241273872395 205.35913707364313 0
          -1126.5074744545202 1296.8046214238304 0
          <InformationKey name="L2_NORM_RANGE" location="vtkDataArray" length="2">
            <Value index="0">
              0
            </Value>
            <Value index="1">
              1740.4623097
            </Value>
          </InformationKey>
        </DataArray>
        <DataArray type="Float64" Name="Fld_traction" NumberOfComponents="3" format="ascii" RangeMin="0" RangeMax="38.28936999752352">
          24.29535209995042 -0.24801422938957907 0 37.80090354311029 6.096519181609023 0
          37.22760743715818 3.63383266041121 0 14.80647759438701 -3.5922279858631496 0
          36.27685698632193 2.2938342865565895 0 0 0 0
          35.86670011102905 1.4723632222592584 0 0 0 0
          12.396329527750511 -1.7046050796346344 0 35.478027991406904 0.871644041278931 0
          0 0 0 10.036000286865983 -1.1873533503960163 0
          0 0 0 35.012285987368095 0.4612654126626922 0
          6.345988037840455 0.22601450616585636 0 0 0 0
          4.193427277700915 0.5264201276117764 0 34.59255601002273 0.2144362879617226 0
          0 0 0 2.756584913172275 0.6200964497605844 0
          34.36062279285569 0.06983350201946059 0 1.846095962927295 0.6044355303025589 0
          0 0 0 34.162328416819285 0.007100197965684774 0
          1.1198929296997584 0.5213478588979142 0 0 0 0
          17.313076482242344 -16.770851493478368 0 0.6642021212122591 0.3831164468684846 0
          0 0 0 0.3952211368366204 0.22804295132120608 0
          0 0 0 0.34746120072271924 0.06548217359647278 0
          0.21235614060507801 0.214060274386144 0
          <InformationKey name="L2_NORM_RANGE" location="vtkDataArray" length="2">
            <Value index="0">
              0
            </Value>
            <Value index="1">
              38.289369998
            </Value>
          </InformationKey>
        </DataArray>
        <DataArray type="Float64" Name="Velocity" NumberOfComponents="3" format="ascii" RangeMin="0" RangeMax="0.0004164833626962548">
          0.0004127487833608029 0.00005564919799024198 0 0.0003577912942179727 0.00005528593947345584 0
          0.00030316532188167695 0.00005433847447416366 0 0.00041254070548268017 9.874183992485182e-7 0
          0.00024949886299563797 0.00005260827725124717 0 0.0003574452137198119 9.407233139143021e-7 0
          0.00019766145051841914 0.000049890645808272 0 0.0003025740380807323 8.725785316078919e-7 0
          0.00041258161613830246 -0.00005365011576232547 0 0.00014871692193917855 0.00004595213967603251 0
          0.00024861064816570575 7.840074799300828e-7 0 0.00035758392578783904 -0.0000533712544027892 0
          0.00019640157742645763 6.816987805198859e-7 0 0.0001039754110799587 0.00004053521522032758 0
          0.0003029083078800166 -0.0000525650398252473 0 0.00014700549008750906 5.693429416092158e-7 0
          0.0002492148767572824 -0.00005101790339544663 0 0.000065040976180573 0.00003334715447362215 0
          0.00010172579259476284 4.502286434088775e-7 0 0.00019735669982294502 -0.00004851033931597515 0
          0.00003371230582945167 0.000024134061174156638 0 0.00014839929990940803 -0.00004480094182486429 0
          0.00006213636191860052 3.264484685466236e-7 0 0.000012893707864278688 0.000012178011444271042 0
          0.00010364933228091988 -0.00003962577977417058 0 0.000030176686198266764 1.974173884669074e-7 0
          0 0 0 0.00006471048143863483 -0.00003268685283884659 0
          0.000007664286612662877 5.9078824408308665e-8 0 0.00003337552354325244 -0.0000237249350292808 0
          0 0 0 0.00001256131307274632 -0.000012005895390018187 0
          0 0 0
          <InformationKey name="L2_NORM_RANGE" location="vtkDataArray" length="2">
            <Value index="0">
              0
            </Value>
            <Value index="1">
              0.0004164833627
            </Value>
          </InformationKey>
        </DataArray>
      </PointData>
      <CellData>
        <DataArray type="UInt8" Name="vtkGhostType" format="ascii" RangeMin="0" RangeMax="0">
          0 0 0 0 0 0
          0 0 0 0 0 0
          0 0 0 0 0 0
          0 0
        </DataArray>
        <DataArray type="Float64" Name="Gauss Stress" NumberOfComponents="6" format="ascii" RangeMin="27.25495660450594" RangeMax="1290.8882211746852">
          407.62057210486194 1211.566174680417 0 179.84791668159485 0 0
          -420.63591320415776 -1200.1083025271303 0 174.65227092299511 0 0
          -87.00491466305692 880.2562748200669 0 159.56942724209804 0 0
          53.001126935675245 -868.8703965808661 0 160.74018918507795 0 0
          -19.932136889007154 720.2967963450292 0 142.97043248887135 0 0
          -14.196862276488218 -709.2084825872214 0 143.47773192116702 0 0
          -29.252709862958284 559.0330534566049 0 126.25916865549446 0 0
          -4.577201843452116 -548.537711838076 0 126.67499999048287 0 0
          -28.082345343045503 420.1009445635066 0 109.50321540263849 0 0
          -5.514949948104601 -410.58013983892374 0 110.10634893228192 0 0
          -28.33224725077619 299.9345469819482 0 92.72377634555181 0 0
          -4.828845884563023 -291.87855417000844 0 93.59819942703824 0 0
          -28.256794497917618 198.74270888677586 0 75.92404962236228 0 0
          -4.092557969172972 -192.7650824331239 0 77.15922418227943 0 0
          -28.35120608608652 116.2422891107884 0 58.91108518308059 0 0
          -2.8191174489972965 -113.06836732739525 0 60.51531337474206 0 0
          -27.92165224267513 52.561588554814335 0 40.94854794433813 0 0
          -1.156341191908684 -53.228899133585216 0 43.19552854959049 0 0
          -30.382311267485917 6.894086601344416 0 22.055235858127634 0 0
          3.108999372346082 -12.450361163540622 0 24.04485993541349 0 0
          <InformationKey name="L2_NORM_RANGE" location="vtkDataArray" length="2">
            <Value index="0">
              27.254956605
            </Value>
            <Value index="1">
              1290.8882212
            </Value>
          </InformationKey>
        </DataArray>
        <DataArray type="Float64" Name="Gauss Strain" NumberOfComponents="6" format="ascii" RangeMin="3.454493470222129e-7" RangeMax="0.0000053412755883451735">
          -0.0000016803832199319137 0.00000394721908113238 0 0.000002517860743450334 0 0
          0.0000015936286512224782 -0.000003862694672729372 0 0.000002445141482256689 0 0
          -0.000002830149041871399 0.000003940666882140675 0 0.0000022339708671883268 0 0
          0.0000026554321933547342 -0.0000037976807512885018 0 0.0000022503638452094333 0 0
          -0.0000021005522387318454 0.0000030810422081833932 0 0.0000020015844913269295 0 0
          0.000001926151577721913 -0.0000029389377003974366 0 0.000002008689884781813 0 0
          -0.0000016881581465510997 0.0000024298372998943214 0 0.0000017676273859241849 0 0
          0.0000015166778185998764 -0.000002291050541725071 0 0.0000017734510394648144 0 0
          -0.0000012942311365116144 0.0000018430491298127016 0 0.0000015330443880020706 0 0
          0.0000011264594662330205 -0.000001708999554955737 0 0.0000015414895720393816 0 0
          -9.588137467320124e-7 0.000001339052404097929 0 0.0000012981325070109297 0 0
          7.969775717570071e-7 -0.000001212371755210384 0 0.000001310375207668138 0 0
          -6.751589976261574e-7 9.138369075900599e-7 0 0.0000010629365145412353 0 0
          5.225528310059957e-7 -7.981554429603577e-7 0 0.0000010802293660454588 0 0
          -4.445539153186129e-7 5.676003404231356e-7 0 8.24755126263917e-7 0 0
          3.0475081527758796e-7 -4.6699414496531594e-7 0 8.472144921096014e-7 0 0
          -2.644435708187842e-7 2.989390747304421e-7 0 5.732796650390903e-7 0 0
          1.4418415096584258e-7 -2.2032380322944967e-7 0 6.047374343723399e-7 0 0
          -1.4690920313586986e-7 1.1402558854067825e-7 0 3.0877331443135686e-7 0 0
          4.79187717838947e-8 -6.099675570192531e-8 0 3.366280417057318e-7 0 0
          <InformationKey name="L2_NORM_RANGE" location="vtkDataArray" length="2">
            <Value index="0">
              3.4544934702e-07
            </Value>
            <Value index="1">
              5.3412755883e-06
            </Value>
          </InformationKey>
        </DataArray>
        <DataArray type="Float64" Name="Btraction" NumberOfComponents="3" format="ascii" RangeMin="0.15643278026748372" RangeMax="18.914209616855803">
          12.86885122476541 -4.190937823878171 0 0.13995433533194931 0.06988561199565418 0
          17.130737802418743 0.01923342499628634 0 0.1856705843898349 0.07338128122941971 0
          17.238294700719607 0.07106744749529578 0 0.2648558145122199 0.15278984954742267 0
          17.401210499347705 0.1689254251561037 0 0.44602376272800437 0.2261160764415997 0
          17.622578494693748 0.3332273634854057 0 0.7414972231567634 0.28144584730011823 0
          17.836182025608984 0.5860018158845475 0 1.1506702190248923 0.30613299501578584 0
          18.03588927433774 0.9415493772039619 0 1.7375030477182971 0.28662914434309017 0
          18.376116105870025 1.48191673674195 0 2.6348538288853427 0.18810865844440813 0
          18.757127745067113 2.432587960505058 0 4.095497081176609 -0.24033471105753995 0
          15.524063910765175 1.4621262380548607 0 6.80070178053438 -1.3242082663744459 0
          <InformationKey name="L2_NORM_RANGE" location="vtkDataArray" length="2">
            <Value index="0">
              0.15643278027
            </Value>
            <Value index="1">
              18.914209617
            </Value>
          </InformationKey>
        </DataArray>
      </CellData>
      <Points>
        <DataArray type="Float32" Name="Points" NumberOfComponents="3" format="ascii" RangeMin="1.4500000476837158" RangeMax="1.6286497021092299">
          1.4500000476837158 0.5 0 1.4500000476837158 0.44999998807907104 0
          1.4500000476837158 0.4000000059604645 0 1.5 0.5 0
          1.4500000476837158 0.3499999940395355 0 1.5 0.44999998807907104 0
          1.4500000476837158 0.30000001192092896 0 1.5 0.4000000059604645 0
          1.5499999523162842 0.5 0 1.4500000476837158 0.25 0
          1.5 0.3499999940395355 0 1.5499999523162842 0.44999998807907104 0
          1.5 0.30000001192092896 0 1.4500000476837158 0.20000000298023224 0
          1.5499999523162842 0.4000000059604645 0 1.5 0.25 0
          1.5499999523162842 0.3499999940395355 0 1.4500000476837158 0.15000000596046448 0
          1.5 0.20000000298023224 0 1.5499999523162842 0.30000001192092896 0
          1.4500000476837158 0.10000000149011612 0 1.5499999523162842 0.25 0
          1.5 0.15000000596046448 0 1.4500000476837158 0.05000000074505806 0
          1.5499999523162842 0.20000000298023224 0 1.5 0.10000000149011612 0
          1.4500000476837158 0 0 1.5499999523162842 0.15000000596046448 0
          1.5 0.05000000074505806 0 1.5499999523162842 0.10000000149011612 0
          1.5 0 0 1.5499999523162842 0.05000000074505806 0
          1.5499999523162842 0 0
          <InformationKey name="L2_NORM_RANGE" location="vtkDataArray" length="2">
            <Value index="0">
              1.4500000477
            </Value>
            <Value index="1">
              1.6286497021
            </Value>
          </InformationKey>
        </DataArray>
      </Points>
      <Cells>
        <DataArray type="Int64" Name="connectivity" format="ascii" RangeMin="0" RangeMax="32">
          30 28 23 26 32 31
          28 30 28 25 20 23
          31 29 25 28 25 22
          17 20 29 27 22 25
          22 18 13 17 27 24
          18 22 18 15 9 13
          24 21 15 18 15 12
          6 9 21 19 12 15
          12 10 4 6 19 16
          10 12 10 7 2 4
          16 14 7 10 7 5
          1 2 14 11 5 7
          5 3 0 1 11 8
          3 5
        </DataArray>
        <DataArray type="Int64" Name="offsets" format="ascii" RangeMin="4" RangeMax="80">
          4 8 12 16 20 24
          28 32 36 40 44 48
          52 56 60 64 68 72
          76 80
        </DataArray>
        <DataArray type="UInt8" Name="types" format="ascii" RangeMin="9" RangeMax="9">
          9 9 9 9 9 9
          9 9 9 9 9 9
          9 9 9 9 9 9
          9 9
        </DataArray>
      </Cells>
    </Piece>
  </UnstructuredGrid>
</VTKFile>
