<?xml version="1.0"?>
<VTKFile type="UnstructuredGrid" version="0.1" byte_order="LittleEndian" header_type="UInt32" compressor="vtkZLibDataCompressor">
  <UnstructuredGrid>
    <Piece NumberOfPoints="33" NumberOfCells="20">
      <PointData>
        <DataArray type="Float64" Name="sld_BC" NumberOfComponents="3" format="ascii" RangeMin="0" RangeMax="0">
          0 0 0 0 0 0
          0 0 0 0 0 0
          0 0 0 0 0 0
          0 0 0 0 0 0
          0 0 0 0 0 0
          0 0 0 0 0 0
          0 0 0 0 0 0
          0 0 0 0 0 0
          0 0 0 0 0 0
          0 0 0 0 0 0
          0 0 0 0 0 0
          0 0 0 0 0 0
          0 0 0 0 0 0
          0 0 0 0 0 0
          0 0 0 0 0 0
          0 0 0 0 0 0
          0 0 0
          <InformationKey name="L2_NORM_RANGE" location="vtkDataArray" length="2">
            <Value index="0">
              0
            </Value>
            <Value index="1">
              0
            </Value>
          </InformationKey>
        </DataArray>
        <DataArray type="Float64" Name="sld_FIXNO" NumberOfComponents="3" format="ascii" RangeMin="1.4142135623730951" RangeMax="1.4142135623730951">
          -1 -1 0 -1 -1 0
          -1 -1 0 -1 -1 0
          -1 -1 0 -1 -1 0
          -1 -1 0 -1 -1 0
          -1 -1 0 -1 -1 0
          -1 -1 0 -1 -1 0
          -1 -1 0 -1 -1 0
          -1 -1 0 -1 -1 0
          -1 -1 0 -1 -1 0
          -1 -1 0 -1 -1 0
          -1 -1 0 -1 -1 0
          -1 -1 0 -1 -1 0
          -1 -1 0 -1 -1 0
          1 1 0 -1 -1 0
          -1 -1 0 -1 -1 0
          1 1 0 -1 -1 0
          1 1 0
          <InformationKey name="L2_NORM_RANGE" location="vtkDataArray" length="2">
            <Value index="0">
              1.4142135624
            </Value>
            <Value index="1">
              1.4142135624
            </Value>
          </InformationKey>
        </DataArray>
        <DataArray type="Float64" Name="Disp" NumberOfComponents="3" format="ascii" RangeMin="0" RangeMax="0.000017644432938936626">
          0.00001748766272419727 0.000002346841746124601 0 0.000015156428303349513 0.0000023354102484923527 0
          0.000012829995117520626 0.0000023015188468775802 0 0.000017482016290057183 2.6799440617548834e-8 0
          0.000010536971037081872 0.000002233058378944474 0 0.000015146059874085492 2.5518153359184854e-8 0
          0.000008318555978283032 0.0000021189884045164625 0 0.00001280963299887047 2.3696182865288838e-8 0
          0.00001748316885118734 -0.0000022924753891898587 0 0.000006226115362446724 0.000001948779765267499 0
          0.000010503125722850061 2.1329651586638288e-8 0 0.000015151009266344351 -0.0000022833885536917272 0
          0.000008267600058222506 1.8583840383936588e-8 0 0.000004321156442435368 0.0000017125056254501462 0
          0.000012823337644702642 -0.0000022533140102263466 0 0.000006154686179784711 1.5556399856485016e-8 0
          0.000010529603006915976 -0.0000021897652557487263 0 0.0000026755924026451897 0.0000014003212299969425 0
          0.000004226152423154815 1.233501073031781e-8 0 0.000008310641555709321 -0.0000020813439931164684 0
          0.0000013662112611277404 0.0000010053020649694646 0 0.0000062178588635458125 -0.000001917318288611077 0
          0.000002553169283062198 8.975776444592449e-9 0 5.105787865682692e-7 5.027005655658228e-7 0
          0.000004312687449707384 -0.0000016875889612169914 0 0.0000012187113259463888 5.467241556056807e-9 0
          0 0 0 0.0000026670079672080942 -0.0000013821730259792977 0
          2.9639719957244836e-7 1.7119387698102314e-9 0 0.0000013574861411256734 -9.939969388574646e-7 0
          0 0 0 5.019841780366186e-7 -4.978849049289746e-7 0
          0 0 0
          <InformationKey name="L2_NORM_RANGE" location="vtkDataArray" length="2">
            <Value index="0">
              0
            </Value>
            <Value index="1">
              1.7644432939e-05
            </Value>
          </InformationKey>
        </DataArray>
        <DataArray type="Float64" Name="Sld_traction" NumberOfComponents="3" format="ascii" RangeMin="0" RangeMax="2218.4248868516297">
          7.01659791867417 8.335378640447372 0 -33.85798525409886 -32.27459950490906 0
          -113.66602516402448 -53.67099258013761 0 21.254053255812483 -1.3948628812452282 0
          -226.94065577427463 -73.59477471101822 0 0 0 0
          -371.298531840019 -91.87596022218844 0 0 0 0
          -5.106340388164657 -8.779297771093661 0 -545.2449502345918 -109.183789219075 0
          0 0 0 -61.61554895021911 35.14308720166932 0
          0 0 0 -747.6361911524953 -125.26823435549743 0
          -143.537998337981 56.24317053688799 0 0 0 0
          -258.2683902764453 75.44056210909974 0 -974.8704598094818 -142.67663039196748 0
          0 0 0 -403.7543331006545 93.25510614034059 0
          -1241.0506752294925 -143.61325182486092 0 -578.3717038971638 110.15996501608019 0
          0 0 0 -1437.7150806779905 -260.6426945513666 0
          -781.2033575881038 125.95859028580071 0 0 0 0
          -1444.012694867205 -1684.1129165424206 0 -1009.0296421304325 143.2924927579835 0
          0 0 0 -1277.075230093979 144.4433385446036 0
          -523.3694782792123 -16.65451810406863 0 -1466.926471530217 255.89320812596094 0
          -1438.4478690532314 1659.7265483343451 0
          <InformationKey name="L2_NORM_RANGE" location="vtkDataArray" length="2">
            <Value index="0">
              0
            </Value>
            <Value index="1">
              2218.4248869
            </Value>
          </InformationKey>
        </DataArray>
        <DataArray type="Float64" Name="Fld_traction" NumberOfComponents="3" format="ascii" RangeMin="0" RangeMax="38.27244390326215">
          24.261260565980077 -0.18124210307520316 0 37.76384902809067 6.218654911789522 0
          37.241181481432925 3.7690544077010775 0 14.826123269008672 -3.6517924559702526 0
          36.3376153792376 2.430634195661281 0 0 0 0
          35.97198891839369 1.597476640462529 0 0 0 0
          12.529046603587057 -1.9211427260334082 0 35.62004789806989 0.9738736528102683 0
          0 0 0 10.236024480696404 -1.4835289722915599 0
          0 0 0 35.171948767360824 0.5327623001172549 0
          6.490878570639023 -0.04172163524872922 0 0 0 0
          4.333950358059977 0.2740919352401897 0 34.745847994785954 0.25682461183936306 0
          0 0 0 2.913424464183603 0.3973327120898555 0
          34.50710902260647 0.08895495564047778 0 2.02779318678368 0.428454547688934 0
          0 0 0 34.29143031326326 0.011305497240757094 0
          1.2996866517639651 0.39829003072441127 0 0 0 0
          17.373198742286917 -16.828423791001253 0 0.840184441728951 0.31937310641945155 0
          0 0 0 0.5221641212263001 0.20793359134996242 0
          0 0 0 0.42617201154607925 0.06453965669395752 0
          0.24298747665634915 0.24360014307466632 0
          <InformationKey name="L2_NORM_RANGE" location="vtkDataArray" length="2">
            <Value index="0">
              0
            </Value>
            <Value index="1">
              38.272443903
            </Value>
          </InformationKey>
        </DataArray>
        <DataArray type="Float64" Name="Velocity" NumberOfComponents="3" format="ascii" RangeMin="0" RangeMax="0.0005763756633689554">
          -0.0005712444367027119 -0.00007673785806370141 0 -0.0004950874216261401 -0.0000763170298013199 0
          -0.0004192109345905293 -0.00007513170004030504 0 -0.0005710270620961455 -9.581848228377797e-7 0
          -0.0003445284262709595 -0.00007283356670668971 0 -0.0004947002810583423 -9.140938236774193e-7 0
          -0.00027233176372907315 -0.00006909334427566934 0 -0.0004184918514519641 -8.485290420464408e-7 0
          -0.0005710802566467744 0.00007480023085579186 0 -0.0002042186288263631 -0.00006357641203565066 0
          -0.0003433804403939539 -7.628209183366249e-7 0 -0.0004948817145732854 0.00007445829260475156 0
          -0.00027064259815541103 -6.636164377000567e-7 0 -0.00014212045950400923 -0.000055946985139720935 0
          -0.000418955414950522 0.00007340835396142145 0 -0.00020187843234793047 -5.545334648991422e-7 0
          -0.0003442461620617087 0.00007128716111735336 0 -0.0000883339349715493 -0.00004585213164181293 0
          -0.00013902093767142922 -4.3875272208240525e-7 0 -0.0002720291190537507 0.00006775050749671915 0
          -0.000045357553401859575 -0.000033018321217542516 0 -0.00020390359474474078 0.00006245585978836969 0
          -0.00008433606477136358 -3.182767701666155e-7 0 -0.000017096384373604756 -0.00001656754115041023 0
          -0.0001417973335348228 0.000055061258329388866 0 -0.00004052128152108948 -1.9241772252924754e-7 0
          0 0 0 -0.00008800686233564943 0.00004520866573150646 0
          -0.00001002126973672882 -5.706492157697634e-8 0 -0.00004502418379443464 0.000032619579217732934 0
          0 0 0 -0.000016767298795964635 0.000016400124614937085 0
          0 0 0
          <InformationKey name="L2_NORM_RANGE" location="vtkDataArray" length="2">
            <Value index="0">
              0
            </Value>
            <Value index="1">
              0.00057637566337
            </Value>
          </InformationKey>
        </DataArray>
      </PointData>
      <CellData>
        <DataArray type="UInt8" Name="vtkGhostType" format="ascii" RangeMin="0" RangeMax="0">
          0 0 0 0 0 0
          0 0 0 0 0 0
          0 0 0 0 0 0
          0 0
        </DataArray>
        <DataArray type="Float64" Name="Gauss Stress" NumberOfComponents="6" format="ascii" RangeMin="32.6725389391043" RangeMax="1650.3109353490563">
          523.2639772082928 1549.8226164018345 0 218.56543912112215 0 0
          -536.5435938870561 -1539.0620271804678 0 213.41458118551225 0 0
          -103.2391934774704 1136.8081681537442 0 197.9551290450824 0 0
          69.19362035191642 -1126.1259667397233 0 199.10111601162762 0 0
          -17.93693247013124 936.983015722022 0 180.48249095525483 0 0
          -16.195132296988675 -926.6063464895669 0 180.96494658656025 0 0
          -29.90868487294452 731.4673582489156 0 162.17720133393814 0 0
          -3.905877514233339 -721.6743925812226 0 162.55275818086804 0 0
          -28.511063087746834 551.3762390042023 0 142.93841303040972 0 0
          -5.059847552777484 -542.5216945309932 0 143.49467273886717 0 0
          -28.93730765416123 393.36845316053905 0 122.67049918565124 0 0
          -4.1813286969380385 -385.92367144574825 0 123.48792039025369 0 0
          -28.984452579863785 259.0309357007974 0 101.2973185072451 0 0
          -3.302201197552151 -253.58870407774646 0 102.46908737319055 0 0
          -29.21376019858034 149.39970175278606 0 78.56116997389825 0 0
          -1.8571556785116172 -146.67038314515935 0 80.09444197083855 0 0
          -28.89768363375986 66.01723428688737 0 53.67740934833145 0 0
          -0.009285513994818473 -67.02389853116682 0 55.842450617526445 0 0
          -31.539908752525307 9.49711526225101 0 26.61269438329233 0 0
          4.622594334360379 -15.2479169906166 0 28.52415554919184 0 0
          <InformationKey name="L2_NORM_RANGE" location="vtkDataArray" length="2">
            <Value index="0">
              32.672538939
            </Value>
            <Value index="1">
              1650.3109353
            </Value>
          </InformationKey>
        </DataArray>
        <DataArray type="Float64" Name="Gauss Strain" NumberOfComponents="6" format="ascii" RangeMin="4.1140629139496743e-7" RangeMax="0.000006811843263247376">
          -0.000002141801348665151 0.000005044081432772907 0 0.0000030599001134076016 0 0
          0.000002055884578383571 -0.000004961771757960865 0 0.000002987819666145499 0 0
          -0.0000036166849969043735 0.000005063625827528284 0 0.0000027713700140912205 0 0
          0.0000034437499056155785 -0.000004923507765319801 0 0.000002787417522266764 0 0
          -0.000002698897756753249 0.000003985528191613463 0 0.000002526752276830304 0 0
          0.0000025264691518589455 -0.000003846422852421538 0 0.0000025335119451255214 0 0
          -0.000002173732041949039 0.0000031558918712482065 0 0.0000022704791531747444 0 0
          0.000002004277540379462 -0.000003020110322132785 0 0.00000227574036422018 0 0
          -0.0000016636043214390828 0.00000239560202991429 0 0.0000020011366838551373 0 0
          0.0000014978056520342786 -0.0000022644319516706975 0 0.000002008926595602073 0 0
          -0.0000012229709807076716 0.000001733166919079543 0 0.0000017173863405679545 0 0
          0.0000010630225309171681 -0.0000016091762444769844 0 0.000001728831605463427 0 0
          -8.470227656487416e-7 0.000001169083899660306 0 0.00000141816212935029 0 0
          6.961779619868436e-7 -0.00000105582859108444 0 0.0000014345676164042298 0 0
          -5.410176696640789e-7 7.092762140809006e-7 0 0.000001099856253983295 0 0
          4.0287645709791153e-7 -6.108164853357856e-7 0 0.000001121322364630729 0 0
          -3.0621881086378977e-7 3.581855490958352e-7 0 7.514837131902305e-7 0 0
          1.8762769223024112e-7 -2.8147467426298256e-7 0 7.817943633966071e-7 0 0
          -1.5905961042728123e-7 1.2819956382581488e-7 0 3.7257773605910036e-7 0 0
          6.210901121184165e-8 -7.698457324400998e-8 0 3.99338181004629e-7 0 0
          <InformationKey name="L2_NORM_RANGE" location="vtkDataArray" length="2">
            <Value index="0">
              4.1140629139e-07
            </Value>
            <Value index="1">
              6.8118432632e-06
            </Value>
          </InformationKey>
        </DataArray>
        <DataArray type="Float64" Name="Btraction" NumberOfComponents="3" format="ascii" RangeMin="0.18417460412146666" RangeMax="18.91677321054189">
          12.916157263887545 -4.2042795734401235 0 0.16728987205060708 0.07703494994215596 0
          17.19963483396743 0.025065113220308723 0 0.2370840331930948 0.06811831201097998 0
          17.313239254348105 0.08644489186996018 0 0.3405871407388127 0.1318266744423535 0
          17.47944919053669 0.19739672798915442 0 0.534967773373229 0.1794157842859657 0
          17.697999166357675 0.37665898823188076 0 0.8318699596369112 0.20668614460333629 0
          17.898009204115894 0.6428375733181992 0 1.2353044127418207 0.20644681494469733 0
          18.077401074407824 1.0070277090309523 0 1.811843705560895 0.16785616183251129 0
          18.394699215167634 1.5499221508405894 0 2.7062072321747492 0.05809257499786512 0
          18.7512576273809 2.4969273298726495 0 4.181725762833856 -0.3813126518850722 0
          15.506277398517685 1.5093532021785796 0 6.838792468148931 -1.3932337955009149 0
          <InformationKey name="L2_NORM_RANGE" location="vtkDataArray" length="2">
            <Value index="0">
              0.18417460412
            </Value>
            <Value index="1">
              18.916773211
            </Value>
          </InformationKey>
        </DataArray>
      </CellData>
      <Points>
        <DataArray type="Float32" Name="Points" NumberOfComponents="3" format="ascii" RangeMin="1.4500000476837158" RangeMax="1.6286497021092299">
          1.4500000476837158 0.5 0 1.4500000476837158 0.44999998807907104 0
          1.4500000476837158 0.4000000059604645 0 1.5 0.5 0
          1.4500000476837158 0.3499999940395355 0 1.5 0.44999998807907104 0
          1.4500000476837158 0.30000001192092896 0 1.5 0.4000000059604645 0
          1.5499999523162842 0.5 0 1.4500000476837158 0.25 0
          1.5 0.3499999940395355 0 1.5499999523162842 0.44999998807907104 0
          1.5 0.30000001192092896 0 1.4500000476837158 0.20000000298023224 0
          1.5499999523162842 0.4000000059604645 0 1.5 0.25 0
          1.5499999523162842 0.3499999940395355 0 1.4500000476837158 0.15000000596046448 0
          1.5 0.20000000298023224 0 1.5499999523162842 0.30000001192092896 0
          1.4500000476837158 0.10000000149011612 0 1.5499999523162842 0.25 0
          1.5 0.15000000596046448 0 1.4500000476837158 0.05000000074505806 0
          1.5499999523162842 0.20000000298023224 0 1.5 0.10000000149011612 0
          1.4500000476837158 0 0 1.5499999523162842 0.15000000596046448 0
          1.5 0.05000000074505806 0 1.5499999523162842 0.10000000149011612 0
          1.5 0 0 1.5499999523162842 0.05000000074505806 0
          1.5499999523162842 0 0
          <InformationKey name="L2_NORM_RANGE" location="vtkDataArray" length="2">
            <Value index="0">
              1.4500000477
            </Value>
            <Value index="1">
              1.6286497021
            </Value>
          </InformationKey>
        </DataArray>
      </Points>
      <Cells>
        <DataArray type="Int64" Name="connectivity" format="ascii" RangeMin="0" RangeMax="32">
          30 28 23 26 32 31
          28 30 28 25 20 23
          31 29 25 28 25 22
          17 20 29 27 22 25
          22 18 13 17 27 24
          18 22 18 15 9 13
          24 21 15 18 15 12
          6 9 21 19 12 15
          12 10 4 6 19 16
          10 12 10 7 2 4
          16 14 7 10 7 5
          1 2 14 11 5 7
          5 3 0 1 11 8
          3 5
        </DataArray>
        <DataArray type="Int64" Name="offsets" format="ascii" RangeMin="4" RangeMax="80">
          4 8 12 16 20 24
          28 32 36 40 44 48
          52 56 60 64 68 72
          76 80
        </DataArray>
        <DataArray type="UInt8" Name="types" format="ascii" RangeMin="9" RangeMax="9">
          9 9 9 9 9 9
          9 9 9 9 9 9
          9 9 9 9 9 9
          9 9
        </DataArray>
      </Cells>
    </Piece>
  </UnstructuredGrid>
</VTKFile>
