<?xml version="1.0"?>
<VTKFile type="UnstructuredGrid" version="0.1" byte_order="LittleEndian" header_type="UInt32" compressor="vtkZLibDataCompressor">
  <UnstructuredGrid>
    <Piece NumberOfPoints="48" NumberOfCells="84">
      <PointData>
        <DataArray type="Float64" Name="sld_BC" NumberOfComponents="3" format="ascii" RangeMin="0" RangeMax="0">
          0 0 0 0 0 0
          0 0 0 0 0 0
          0 0 0 0 0 0
          0 0 0 0 0 0
          0 0 0 0 0 0
          0 0 0 0 0 0
          0 0 0 0 0 0
          0 0 0 0 0 0
          0 0 0 0 0 0
          0 0 0 0 0 0
          0 0 0 0 0 0
          0 0 0 0 0 0
          0 0 0 0 0 0
          0 0 0 0 0 0
          0 0 0 0 0 0
          0 0 0 0 0 0
          0 0 0 0 0 0
          0 0 0 0 0 0
          0 0 0 0 0 0
          0 0 0 0 0 0
          0 0 0 0 0 0
          0 0 0 0 0 0
          0 0 0 0 0 0
          0 0 0 0 0 0
          <InformationKey name="L2_NORM_RANGE" location="vtkDataArray" length="2">
            <Value index="0">
              0
            </Value>
            <Value index="1">
              0
            </Value>
          </InformationKey>
        </DataArray>
        <DataArray type="Float64" Name="sld_FIXNO" NumberOfComponents="3" format="ascii" RangeMin="1.7320508075688772" RangeMax="1.7320508075688772">
          1 1 1 1 1 1
          -1 -1 -1 1 1 1
          -1 -1 -1 1 1 1
          -1 -1 -1 -1 -1 -1
          -1 -1 -1 1 1 1
          -1 -1 -1 1 1 1
          -1 -1 -1 -1 -1 -1
          -1 -1 -1 -1 -1 -1
          1 1 1 1 1 1
          -1 -1 -1 -1 -1 -1
          -1 -1 -1 -1 -1 -1
          -1 -1 -1 -1 -1 -1
          -1 -1 -1 -1 -1 -1
          -1 -1 -1 -1 -1 -1
          -1 -1 -1 -1 -1 -1
          -1 -1 -1 -1 -1 -1
          -1 -1 -1 -1 -1 -1
          -1 -1 -1 -1 -1 -1
          -1 -1 -1 -1 -1 -1
          -1 -1 -1 -1 -1 -1
          -1 -1 -1 -1 -1 -1
          -1 -1 -1 -1 -1 -1
          -1 -1 -1 -1 -1 -1
          -1 -1 -1 -1 -1 -1
          <InformationKey name="L2_NORM_RANGE" location="vtkDataArray" length="2">
            <Value index="0">
              1.7320508076
            </Value>
            <Value index="1">
              1.7320508076
            </Value>
          </InformationKey>
        </DataArray>
        <DataArray type="Float64" Name="Disp" NumberOfComponents="3" format="ascii" RangeMin="0" RangeMax="0.000009077967212551273">
          0 0 0 0 0 0
          2.340868671788451e-7 5.1799336528284226e-8 -4.25826307920217e-7 0 0 0
          -1.523102954106818e-7 -3.0612815217407697e-8 -4.053735526887672e-7 0 0 0
          3.437010241569981e-7 1.1081838193583346e-8 -7.784874895103293e-7 -2.4596406338808787e-7 -1.0682856946429907e-8 -7.704713956381691e-7
          4.3936531844231113e-7 9.553627231064769e-9 -0.0000016244558763461696 0 0 0
          -3.8217265975522405e-7 -5.713068827963934e-9 -0.0000016071990159048217 0 0 0
          2.2076177656786456e-7 1.807627346939418e-8 -5.663641663094768e-7 -2.702257715054115e-7 1.2113937858321532e-8 -5.796859347935538e-7
          4.573098985514951e-7 2.7086942222298593e-8 -0.000002166725352893749 -4.296932600298557e-7 2.413367525160348e-8 -0.000002151854466629248
          0 0 0 0 0 0
          5.655471325590098e-7 2.215945444307559e-8 -0.000003486001690246001 1.8211790126534853e-7 -1.3935324234505961e-8 -4.0943669531891994e-7
          -4.5088797262236904e-7 1.465147026421692e-8 -0.0000034581904416094005 -1.6867331186584376e-7 4.657929404954068e-8 -3.887023021971947e-7
          3.6303158396700824e-7 -8.356313149306083e-9 -0.0000014775750721771197 -3.754210045638651e-7 3.059503308299211e-8 -0.0000014621718183195891
          5.465179042518306e-7 4.580166205975123e-8 -0.000004705380355391203 -5.296525157503378e-7 4.9959377294588916e-8 -0.000004687715518311794
          6.274082819604803e-7 5.0564460912588245e-8 -0.000005484997987322053 4.956178331993894e-7 4.118502085207978e-8 -0.0000032094780783720688
          -5.061791105316879e-7 5.500784708144305e-8 -0.00000549077525344454 -5.141035798342296e-7 5.8196668797565444e-8 -0.0000031821799034628216
          5.676223479416577e-7 5.0857621903376434e-8 -0.000005289748272487367 6.055358486719156e-7 6.63404054713635e-8 -0.0000070240266332002135
          -5.452522723732944e-7 6.153811567469684e-8 -0.0000052920499408906515 -5.465683808834587e-7 7.38538882051021e-8 -0.000007028021006431896
          6.374817712831372e-7 7.197777659004693e-8 -0.000007361751846310813 -5.225662773763442e-7 7.819020636602421e-8 -0.0000073646054297491615
          5.792262898580332e-7 6.305050520515117e-8 -0.000006625674403427716 -5.655683637598881e-7 6.769589386063004e-8 -0.000006630170406081678
          5.81350913494598e-7 6.475691522861037e-8 -0.000007265724232769503 -5.762508197306232e-7 7.324902406882519e-8 -0.00000726980947370214
          6.375949427851717e-7 8.955192090394031e-8 -0.00000905510584446991 -5.247901275581741e-7 9.637601711715458e-8 -0.000009056243831510807
          6.13261772529069e-7 8.743265517276262e-8 -0.000009041551624154866 -5.485897621401098e-7 9.494950526976987e-8 -0.000009043470811592035
          5.883728970160919e-7 8.266061550342094e-8 -0.00000902873462869273 -5.708396377080478e-7 8.98427998188006e-8 -0.000009030693589573736
          5.806742134699582e-7 7.914916422503956e-8 -0.000009016291532808272 -5.797601999533496e-7 8.755945086870943e-8 -0.00000901796774175093
          <InformationKey name="L2_NORM_RANGE" location="vtkDataArray" length="2">
            <Value index="0">
              0
            </Value>
            <Value index="1">
              9.0779672126e-06
            </Value>
          </InformationKey>
        </DataArray>
      </PointData>
      <CellData>
        <DataArray type="UInt8" Name="vtkGhostType" format="ascii" RangeMin="0" RangeMax="0">
          0 0 0 0 0 0
          0 0 0 0 0 0
          0 0 0 0 0 0
          0 0 0 0 0 0
          0 0 0 0 0 0
          0 0 0 0 0 0
          0 0 0 0 0 0
          0 0 0 0 0 0
          0 0 0 0 0 0
          0 0 0 0 0 0
          0 0 0 0 0 0
          0 0 0 0 0 0
          0 0 0 0 0 0
          0 0 0 0 0 0
        </DataArray>
        <DataArray type="Float64" Name="Gauss Stress" NumberOfComponents="6" format="ascii" RangeMin="5150.551723879152" RangeMax="554612.8992615698">
          -3803.9833681894866 -2775.015060321002 302.27455324085304 689.631500688442 -1751.8137420119517 -1434.632924976053
          2024.3126172569696 -66.30421478961762 6294.56939743548 1523.3706490943189 -4458.105094756721 -2006.6448182318939
          -312653.7156496932 -133994.44956415423 -133994.44956415423 0 -205857.30862848143 24668.46235963016
          313650.3757341597 120750.56116844746 88851.49482733177 -46549.706372343586 53001.12111808405 -7380.1681275489855
          -272822.7137831979 -116924.0201927991 -116924.0201927991 0 -207462.0337051929 -15667.02331792417
          395703.99904809555 156102.09504383226 124636.31776467877 63393.962881301486 79299.24400384419 26509.8589423476
          -5939.858804304894 -4464.918616406301 230.9846591025962 -569.7506094585433 -2030.3961191157719 3188.2177289445785
          1059.7521768861398 -1503.4211929488283 8037.381160455489 -763.7745060354066 -5442.275022633891 3796.5554189000804
          -24324.923097132392 -9013.908194736949 -4294.482510865528 2736.547660784668 -1869.987265658438 -85.42490834451846
          22244.356538323234 10967.449498080612 21518.07405589461 4365.283945736632 -23619.555239379435 -2363.709037842802
          -349244.71751133027 -125255.11853223157 -183818.73705651896 -44499.73082143018 -242433.365716008 20012.504812715313
          264808.35930226423 66022.0294136027 68442.60889969881 -41849.677419569 58311.77703520104 -399.31033847050776
          -2396.7875287814168 -2577.1466957365046 2346.1946069842415 519.9704021481865 -2575.950673258978 -1315.8219054535143
          -312653.7156496932 -133994.44956415423 -133994.44956415423 0 -205857.30862848143 24668.46235963016
          -4278.963252314699 -5193.384982362284 1076.2172916114775 243.85974383780075 -3115.009567736005 3126.162384820571
          -272822.7137831979 -116924.0201927991 -116924.0201927991 0 -207462.0337051929 -15667.02331792417
          343176.0598528085 147075.4542226322 147075.4542226322 0 -251547.9757121268 8028.4916845538855
          -420068.26080874866 -180029.25463232087 -180029.25463232087 0 -257464.77641106793 5380.34841790853
          -376790.0098943507 -157786.52230559534 -201278.47012288333 79306.89696724812 -243857.40336953598 2033.4384122528243
          141896.48169473305 47868.739094988545 16024.055774016939 -11143.15679452359 -2984.221645888676 -39044.12668192189
          282945.2820873214 70618.09746593166 71555.29298327993 33495.38317979295 92305.15704222009 2499.825574418518
          -42783.6012208768 -13072.259949404786 -8586.27648581018 -3459.5366840490674 35.76103640103375 4979.154855040109
          -2153.676440355502 627.6510120567063 7712.674236784656 -1209.7878514301976 -5934.6407585888355 3843.6691071398845
          22082.174418784307 6778.203548274332 13261.450196687092 -5658.989037535401 -33566.71021605222 5032.964600641939
          -5612.312050681303 -2334.89920116347 1454.2114987861867 1292.404888611187 -3455.7745762093973 -941.8141996969016
          -388011.2512177342 -121834.83009866285 -152953.82439491912 41631.14393721778 -253276.31462192902 31702.932801020484
          -70709.10508894679 -17720.540658398513 -14974.361479230138 7069.775230490507 10914.039273892704 3742.980267577272
          62329.54991311925 13511.38710976794 -32870.21616633504 13028.681417244556 -64973.79807436963 -5274.420611891587
          -215120.2589838175 -86577.00667589839 -121315.68741297603 -34689.5438554481 -160617.03062603582 10896.873656836728
          158037.0521164824 36294.85422850582 3703.222085002635 -19492.429044839806 43012.17818424223 8580.974400119938
          135630.21935572126 76992.86823975557 22318.140035192657 -6347.919006418204 7210.191161247468 28588.263487029108
          -1805.5631392711812 -337.6819466541983 5064.19335091766 2233.043023278488 -5266.441243663616 -1411.7022302067603
          46853.095069941526 21138.638022295265 25000.856734240544 1924.5187357712894 -23814.608925033623 11785.071129540647
          177312.17370755138 76801.5387106129 41720.392842753296 -11855.512643081265 32928.15300375383 -2867.665693343476
          -111758.98971910478 -49553.00675260702 -82907.31982420951 22950.25533497025 -114214.68706823401 20231.525769624965
          152155.14626779195 58707.92102813667 7636.422915577378 17988.429656208893 31451.5215901861 -1480.572088445706
          -39350.93073282191 -11649.319439051973 -10696.738244992663 -4548.1601614305655 5531.931612033328 10758.908776192571
          71191.04297095121 14601.107680473864 -28858.704623067682 -12050.050262069999 -61884.47546555802 4139.583679575706
          -24148.755723151124 -8662.926666808133 -851.4994090617109 -644.3303955777894 -10000.771848103474 7731.091275060868
          14365.800397197985 3943.9959354703415 14484.944207726565 1598.4518913001586 -15952.685767205932 6985.950544513726
          -45855.18223033768 -10596.783632415507 -7943.584450899892 1923.2175315573922 -6699.003299372041 5365.47227575652
          -32145.960742269144 -13939.566937000483 -4833.652995854822 2062.7621705857573 -6778.606680745264 -2084.3206935920343
          12548.651907756008 4358.910443337298 14064.274013254058 204.10856104733602 -16073.98217153874 -1004.2009070427791
          -4505.326628253187 -6858.617642766213 508.738480708752 321.76683219284143 -5641.4470573573 -2347.6533322458918
          -8422.241449424877 -8999.688647598088 -1388.2041547672716 46.18879928046828 -3595.7640784918603 -1011.9012183379546
          -6377.154850358745 -2074.6296885318534 1382.3864003473923 -491.73964714938967 -3927.0568736083815 3589.6014598318725
          -9259.77686903653 -6109.7743626056 -692.943607478067 -1554.5582081594334 -4019.513349077841 -1135.6902318931984
          -307005.5599160588 -99042.58172221232 -121814.44249148134 -77315.82167697404 -292812.9807877578 -16365.18393306478
          -247609.75620288658 -70022.54357719363 -95289.68993402406 37139.65484074771 -283973.31209452904 196537.33013833492
          8928.079624039146 240.58658668255882 10739.34632657899 66.92189499365406 -12016.250835639397 -2200.043524991481
          10091.61893803937 4189.7277748346205 12273.150477224677 1638.4140557106107 -11839.722537454743 -3712.4719884812134
          -10414.654039111028 -3584.2580968864227 3789.072822563246 2129.8000840759855 -8525.016164456256 -2208.5756142044975
          -73418.57188205456 -79155.20643513137 -61804.321239475976 36931.58417552943 -81898.22607433889 44626.18377030682
          408047.072971442 107300.03701948994 138571.94525295903 -53285.33561347523 158354.10779513058 10386.587462060445
          -294866.0866542129 -113531.53904362951 -138551.47545367322 -8533.189826686114 -141424.32849315563 17104.277987016314
          -150734.6063242087 -53798.79716732566 -77392.20879178084 -5034.5116334020595 -143480.28875029448 -53074.510619259665
          436255.9429165473 193415.5433393104 172869.25813243678 57022.15703326675 166873.4178276828 -27028.780236571776
          125686.68601399378 38493.96528620873 18447.687674999506 9797.802578784112 -12568.49391732771 16655.553897495298
          479.05884902736307 5923.499191204191 13475.29965704292 -425.35792467738247 -17001.26373013768 531.3625278882739
          -28239.4085379989 -6572.231177915708 -2454.7454514119 -2586.2120338171308 -2009.825966231019 -266.13443757235393
          -35021.20526942758 -11448.375425844322 -5952.127745216381 104.71270550163871 -1069.09486073974 -5204.6077600740355
          12942.320423108493 8034.41697634055 14281.767683197195 -1767.202987509833 -10430.79580617925 -4310.456804939815
          339447.74291366764 118746.94020902064 164101.94190496032 32586.324943785927 128951.79279942803 5486.904483332565
          275602.3649226513 119128.18756971598 145062.70271586388 -1490.3662322410855 125523.37586458896 -216211.08215883584
          -110460.73656225723 -66509.27688019385 -26447.46706458166 -5205.774835032089 -118338.01499239897 2986.4158566687015
          -186915.3418394168 -60777.52980387084 -47664.32452483245 47874.87975554647 -191185.1544818331 4619.188827608554
          -199924.47671494144 -42219.84282846522 -45999.758894868355 -25976.53853908041 -214222.87591155144 -16265.480792423139
          -298448.6883049168 -90988.92125418803 -90187.74589957777 35499.80523481247 93228.54819844685 -33153.19704117553
          48163.73372534425 9138.20730703773 -18139.091849102562 4455.574201602593 -50630.2018281655 -372.10925309886767
          53722.32073121679 17627.766244110273 -13924.648066219042 -246.715116257489 -47947.77610042371 -2769.621936333386
          34470.375881232714 5214.051389527267 -23424.345977589168 -5351.732710475133 -54058.777342924914 -12159.72020939056
          250267.7822531601 109293.94828902783 78126.74663365427 -20046.34021735032 82533.19425842122 -37017.873223436
          234272.6976035221 115241.62691376742 75112.52482618473 -22172.091400761296 83782.36886328975 -28606.128008294523
          269402.0654973401 74106.30527165791 73310.73870169799 41915.03986637533 101861.85505779846 -3366.632441760188
          -59309.7288374419 -27502.147607226823 -61373.23709221778 -5814.913445856135 -22702.068628569377 -793.4030325428403
          -5769.076268483441 -18452.482262066555 -37008.24008816712 -2552.8195608423393 -46121.83123602697 1416.9096950524238
          -103375.86803674069 -33663.11899659892 -70853.46863900402 12751.093462789595 -63856.85600376042 276.4104404668636
          -12543.81171623881 -8096.089769428085 -41521.644604517234 2900.9691922807506 -23321.941926130454 -7126.965783622738
          69671.64342334864 17110.256322519464 -28561.779894734776 9360.760888363164 -23665.00635421443 5605.2953128051695
          -116180.97025882358 -39312.886252214856 -76389.92948231366 28217.62647777288 -117229.62602742334 -4615.185959963004
          -116355.00249082856 -39469.22560479467 -76489.04095768908 -14685.890954740971 -116659.54408761593 -1795.5934910297024
          73963.24942916154 26319.749332904626 -25537.59764458134 -7719.224631146731 -18023.0573229213 -12420.331921920617
          91808.99163379525 50748.03385978938 7437.4334892582265 -19764.464022793516 27967.999160851286 -30550.93706178962
          85845.22377643269 41867.0577622817 2984.0103027971636 22258.003747673636 27409.624198244215 26311.62341271141
          <InformationKey name="L2_NORM_RANGE" location="vtkDataArray" length="2">
            <Value index="0">
              5150.5517239
            </Value>
            <Value index="1">
              554612.89926
            </Value>
          </InformationKey>
        </DataArray>
        <DataArray type="Float64" Name="Gauss Strain" NumberOfComponents="6" format="ascii" RangeMin="3.721709041790944e-8" RangeMax="0.0000046256454497799744">
          -1.5310806080327213e-8 -8.622512079182057e-9 1.1379870408969998e-8 8.965209508949742e-9 -2.2773578646155372e-8 -1.8650228024688686e-8
          7.791653123160555e-10 -1.2809844095986763e-8 2.8535834383476368e-8 1.980381843822614e-8 -5.795536623183736e-8 -2.608638263701462e-8
          -0.0000011612852295560033 0 0 0 -0.0000026761450121702578 3.2069001067519207e-7
          0.0000012538487946771297 0 -2.07343931217252e-7 -6.051461828404664e-7 6.890145745350927e-7 -9.59421856581368e-8
          -0.0000010133415083375923 0 0 0 -0.0000026970064381675067 -2.0367130313301417e-7
          0.0000015574123760277108 0 -2.0452755231449773e-7 8.241215174569191e-7 0.000001030890172049974 3.4462816625051884e-7
          -2.334839308556891e-8 -1.3761281864228062e-8 1.6762089426579775e-8 -7.406757922961059e-9 -2.639514954850503e-8 4.144683047627951e-8
          -4.502179066829295e-9 -2.1162805970756585e-8 4.0852409326371485e-8 -9.929068578460284e-9 -7.074957529424057e-8 4.9355220445701046e-8
          -1.0166202942725825e-7 -2.1404325616878464e-9 2.8535834383476368e-8 3.557511959020068e-8 -2.430983445355969e-8 -1.1105238084787398e-9
          6.249349736065335e-8 -1.0806398400923708e-8 5.7772661224867274e-8 5.674869129457619e-8 -3.070542181119326e-7 -3.0728217491956427e-8
          -0.0000012826128041735254 1.7331958919061593e-7 -2.07343931217252e-7 -5.784965006785922e-7 -0.000003151633754308103 2.6016256256529904e-7
          0.0000011223448390413686 -1.69766305234931e-7 -1.5403253857530627e-7 -5.440458064543969e-7 7.580531014576134e-7 -5.1910344001166e-9
          -1.1637509510778688e-8 -1.2809844095986763e-8 1.9191874371698092e-8 6.759615227926424e-9 -3.348735875236671e-8 -1.7105684770895683e-8
          -0.0000011612852295560033 0 0 0 -0.0000026761450121702578 3.2069001067519207e-7
          -1.521906472544729e-8 -2.1162805970756585e-8 1.9589608810072863e-8 3.170176669891409e-9 -4.049512438056806e-8 4.064011100266742e-8
          -0.0000010133415083375923 0 0 0 -0.0000026970064381675067 -2.0367130313301417e-7
          0.0000012746539365961456 0 0 0 -0.000003270123684257647 1.043703918992005e-7
          -0.0000015602535401467808 0 0 0 -0.0000033470420933438827 6.994452943281088e-8
          -0.0000013453525608290358 7.81701084978746e-8 -2.0452755231449773e-7 0.0000010309896605742254 -0.0000031701462438039673 2.643469935928671e-8
          6.136432161701573e-7 2.4628892718176254e-9 -2.0452755231449773e-7 -1.4486103832880664e-7 -3.8794881396552784e-8 -5.075736468649845e-7
          0.0000012014663247627895 -1.7866037527624367e-7 -1.7256860441347986e-7 4.354399813373083e-7 0.000001199967041548861 3.249773246744073e-8
          -1.8143020145156157e-7 1.1693516813006539e-8 4.0852409326371485e-8 -4.497397689263787e-8 4.6489347321343867e-10 6.47290131155214e-8
          -2.327887007503956e-8 -5.2002416343602e-9 4.0852409326371485e-8 -1.5727242068592563e-8 -7.715032986165486e-8 4.9967698392818495e-8
          8.03513914764794e-8 -1.912441918183544e-8 2.3016684032847506e-8 -7.35668574879602e-8 -4.3636723280867877e-7 6.542853980834521e-8
          -2.6740528699840587e-8 -5.437345177974677e-9 1.9191874371698092e-8 1.680126355194543e-8 -4.492506949072216e-8 -1.2243584596059719e-8
          -0.0000015278732743482983 2.0227346292566575e-7 0 5.412048711838311e-7 -0.0000032925920900850763 4.1213812641326617e-7
          -3.04503172238291e-7 3.992249656027283e-8 5.7772661224867274e-8 9.190707799637657e-8 1.418825105606051e-7 4.8658743478504536e-8
          3.406859931504469e-7 2.3367934928663392e-8 -2.78112486366006e-7 1.6937285842417918e-7 -8.44659374966805e-7 -6.856746795459063e-8
          -7.637622537857759e-7 7.176888621569837e-8 -1.5403253857530627e-7 -4.5096407012082534e-7 -0.0000020880213981384654 1.4165935753887745e-7
          7.301881461121495e-7 -6.113614015969846e-8 -2.7298174909246926e-7 -2.5340157758291747e-7 5.591583163951491e-7 1.1155266720155917e-7
          5.291845843661841e-7 1.4804180211240688e-7 -2.07343931217252e-7 -8.252294708343663e-8 9.373248509621706e-8 3.716474253313784e-7
          -1.6117582802751102e-8 -6.576355050740711e-9 2.8535834383476368e-8 2.902955930262034e-8 -6.846373616762699e-8 -1.8352128992687878e-8
          1.6505623321490398e-7 -2.08773759479679e-9 2.3016684032847506e-8 2.5018743565026762e-8 -3.0958991602543706e-7 1.532059246840284e-7
          7.087779712077074e-7 5.5458843727607555e-8 -1.7256860441347986e-7 -1.5412166436005645e-7 4.2806598904879964e-7 -3.727965401346518e-8
          -3.6010445873029913e-7 4.423443055193634e-8 -1.7256860441347986e-7 2.9835331935461314e-7 -0.0000014847909318870417 2.630098350051245e-7
          6.612592154233885e-7 5.385225136562947e-8 -2.78112486366006e-7 2.3384958553071556e-7 4.088697806724193e-7 -1.9247437149794174e-8
          -1.6323556713804258e-7 1.6824906271461986e-8 2.3016684032847506e-8 -5.912608209859734e-8 7.191511095643326e-8 1.398658140905034e-7
          3.7734161026864675e-7 9.507030880544042e-9 -2.7298174909247603e-7 -1.5665065340690997e-7 -8.04498181052254e-7 5.3814587834484174e-8
          -1.0647213950195087e-7 -5.8142506357213965e-9 4.496002653963033e-8 -8.376295142511262e-9 -1.3001003402534513e-7 1.0050418657579126e-7
          4.418559177119456e-8 -2.3556137230035113e-8 4.496002653963033e-8 2.077987458690206e-8 -2.0738491497367708e-7 9.081735707867841e-8
          -2.0146535902671533e-7 2.771423185977883e-8 4.496002653963033e-8 2.50018279102461e-8 -8.708704289183653e-8 6.975113958483475e-8
          -1.325699738120628e-7 -1.4228414077816447e-8 4.496002653963033e-8 2.6815908217614835e-8 -8.812188684968843e-8 -2.709616901669645e-8
          3.5108482853893015e-8 -1.8124836664828616e-8 4.496002653963033e-8 2.653411293615368e-9 -2.089617682300036e-7 -1.3054611791556126e-8
          -1.3001814398179746e-8 -2.8298205992514412e-8 1.9589608810072863e-8 4.182968818506937e-9 -7.333881174564487e-8 -3.051949331919658e-8
          -2.6529368043576348e-8 -3.0282774831702215e-8 1.9191874371698092e-8 6.004543906460875e-10 -4.674493302039418e-8 -1.315471583839341e-8
          -3.084740931951704e-8 -2.880995767642236e-9 1.9589608810072863e-8 -6.392615412942064e-9 -5.105173935690896e-8 4.6664818977814334e-8
          -3.609480739005716e-8 -1.56197910982561e-8 1.9589608810072863e-8 -2.020925670607263e-8 -5.225367353801192e-8 -1.4763973014611577e-8
          -0.0000012037422632597536 1.4801709500024863e-7 0 -0.0000010051056818006622 -0.000003806568750240851 -2.127473911298421e-7
          -9.900804307476063e-7 1.6423645131939784e-7 0 4.828155129297201e-7 -0.0000036916530572288772 0.0000025549852917983538
          2.81704987503034e-8 -2.8298205992514412e-8 3.994373231681241e-8 8.699846349175028e-10 -1.5621126086331214e-7 -2.8600565824889246e-8
          2.57637773121079e-8 -1.2598515248722973e-8 3.994373231681241e-8 2.129938272423794e-8 -1.5391639298691163e-7 -4.826213585025578e-8
          -5.238049228407037e-8 -7.982918659610437e-9 3.994373231681241e-8 2.7687401092987807e-8 -1.108252101379313e-7 -2.8711482984658463e-8
          -1.5565356789836173e-7 -1.929416924933611e-7 -8.016093872160099e-8 4.801105942818826e-7 -0.0000010646769389664054 5.801403890139888e-7
          0.0000016714273914485363 -2.8342834223915166e-7 -8.016093872160268e-8 -6.92709362975178e-7 0.0000020586034013366973 1.3502563700678575e-7
          -0.00000109620591152511 8.246864794368159e-8 -8.016093872160268e-8 -1.1093146774691945e-7 -0.000001838516270411023 2.2235561383121205e-7
          -5.568865226823837e-7 7.319623683735595e-8 -8.016093872160268e-8 -6.544865123422678e-8 -0.0000018652437537538281 -6.899686380503755e-7
          0.0000016318525123751158 5.3389915123075674e-8 -8.016093872160268e-8 7.412880414324677e-7 0.000002169354431759876 -3.513741430754331e-7
          5.430209506281566e-7 -2.3731734102446258e-8 -1.5403253857530627e-7 1.2737143352419345e-7 -1.6339042092526022e-7 2.1652220066743882e-7
          -2.6702904027233853e-8 8.685958196915529e-9 5.7772661224867274e-8 -5.5296530208059705e-9 -2.210164284917898e-7 6.907712862547559e-9
          -1.2765657774600308e-7 1.3180075094537662e-8 3.994373231681241e-8 -3.3620756439622695e-8 -2.612773756100324e-8 -3.4597476884406004e-9
          -1.4900527159054685e-7 4.218122392744333e-9 3.994373231682596e-8 1.3612651715213028e-9 -1.3898233189616618e-8 -6.765990088096243e-8
          3.123732512623585e-8 -6.640472777557853e-10 3.994373231681241e-8 -2.2973638837627826e-8 -1.3560034548033026e-7 -5.603593846421758e-8
          0.0000012729653913973667 -1.6158982618283874e-7 1.3321768484076918e-7 4.236222242692169e-7 0.000001676373306392564 7.132975828332335e-8
          9.817254891848873e-7 -3.5356663609192976e-8 1.3321768484076833e-7 -1.937476101913411e-8 0.0000016318038862396562 -0.000002810744068064866
          -4.1286856689412295e-7 -1.2718407896071096e-7 1.3321768484076833e-7 -6.767507285541714e-8 -0.0000015383941949011866 3.882340613669311e-8
          -7.719139277040289e-7 4.798185052701958e-8 1.3321768484076918e-7 6.223734368221039e-7 -0.0000024854070082638296 6.00494547589112e-8
          -8.67292980989707e-7 1.5778713927238865e-7 1.3321768484076833e-7 -3.376950010080453e-7 -0.0000027848973868501685 -2.1145125030150078e-7
          -0.0000012204784407939351 1.2801004503580175e-7 1.3321768484076833e-7 4.61497468052562e-7 0.000001211971126579809 -4.309915615352818e-7
          2.543199954398185e-7 6.540737208261239e-10 -1.766483707940858e-7 5.792246462083372e-8 -6.581926237661514e-7 -4.837420290285279e-9
          2.630569263892471e-7 2.844232222305476e-8 -1.766483707940858e-7 -3.207296511347357e-9 -6.23321089305508e-7 -3.6005085172334016e-8
          1.9966732128825644e-7 9.501212092171003e-9 -1.766483707940858e-7 -6.957252523617672e-8 -7.027641054580236e-7 -1.5807636272207728e-7
          9.702078688817776e-7 5.38779481149175e-8 -1.4870886264501063e-7 -2.606024228255542e-7 0.000001072931525359476 -4.812323519046679e-7
          8.858322604076822e-7 1.1213030092427694e-7 -1.4870886264501063e-7 -2.8823718820989673e-7 0.0000010891707952227668 -3.7187966410782874e-7
          0.000001125884761526667 -1.4353767994026774e-7 -1.4870886264500724e-7 5.448955182628793e-7 0.0000013242041157513798 -4.376622174288244e-8
          -1.6323556713804258e-7 4.35137108583554e-8 -1.766483707940858e-7 -7.559387479612974e-8 -2.9512689217140185e-7 -1.0314239423056921e-8
          5.4345702182933315e-8 -2.8096436775356922e-8 -1.4870886264501063e-7 -3.3186654290950405e-8 -5.995838060683505e-7 1.8419826035681507e-8
          -3.6010445873029913e-7 9.30284100306225e-8 -1.4870886264501063e-7 1.6576421501626477e-7 -8.301391280488853e-7 3.5933357260692267e-9
          1.1707542979723909e-8 4.061773563399366e-8 -1.766483707940858e-7 3.7712599499649737e-8 -3.0318524503969584e-7 -9.265055518709558e-8
          3.6553550247506623e-7 2.3886486319676487e-8 -2.7298174909247603e-7 1.2168989154872113e-7 -3.0764508260478754e-7 7.286883906646719e-8
          -4.073506276923252e-7 9.229191835063162e-8 -1.4870886264501063e-7 3.6682914421104734e-7 -0.0000015239851383565028 -5.999741747951904e-8
          -4.0783761261041715e-7 9.191993714880314e-8 -1.4870886264501063e-7 -1.909165824116326e-7 -0.0000015165740731390069 -2.334271538338613e-8
          3.686430196133229e-7 5.896026898765284e-8 -2.78112486366006e-7 -1.0034992020490748e-7 -2.3429974519797685e-7 -1.6146431498496802e-7
          3.7176675714540484e-7 1.0487053161436674e-7 -1.766483707940858e-7 -2.5693803229631566e-7 3.635839890910667e-7 -3.9716218180326497e-7
          3.6194951678454524e-7 7.609143769256369e-8 -1.766483707940858e-7 2.8935404871975725e-7 3.5632511457717473e-7 3.420511043652483e-7
          <InformationKey name="L2_NORM_RANGE" location="vtkDataArray" length="2">
            <Value index="0">
              3.7217090418e-08
            </Value>
            <Value index="1">
              4.6256454498e-06
            </Value>
          </InformationKey>
        </DataArray>
      </CellData>
      <Points>
        <DataArray type="Float32" Name="Points" NumberOfComponents="3" format="ascii" RangeMin="0" RangeMax="1.1224972161649325">
          0 0 0.10000000149011612 0 0 0
          0.15030500292778015 0 0.10000000149011612 0 0.16592560708522797 0.10000000149011612
          0.15030500292778015 0 0 0 0.16592560708522797 0
          0.20661930739879608 0.14996789395809174 0.10000000149011612 0.20661930739879608 0.14996789395809174 0
          0.3211615979671478 0 0.10000000149011612 0 0.3345595896244049 0.10000000149011612
          0.3211615979671478 0 0 0 0.3345595896244049 0
          0.17319349944591522 0.3171347975730896 0.10000000149011612 0.17319349944591522 0.3171347975730896 0
          0.3808547854423523 0.2523554861545563 0.10000000149011612 0.3808547854423523 0.2523554861545563 0
          0 0.5 0.10000000149011612 0 0.5 0
          0.5119820833206177 0 0.10000000149011612 0.14524710178375244 0.5 0.10000000149011612
          0.5119820833206177 0 0 0.14524710178375244 0.5 0