<?xml version="1.0"?>
<VTKFile type="UnstructuredGrid" version="0.1" byte_order="LittleEndian" header_type="UInt32" compressor="vtkZLibDataCompressor">
  <UnstructuredGrid>
    <Piece NumberOfPoints="91" NumberOfCells="132">
      <PointData>
        <DataArray type="Float64" Name="Velocity" NumberOfComponents="3" format="ascii" RangeMin="2.6477238186108414" RangeMax="2.941812966482449">
          2.9 0 0 2.9 0 0
          2.6193 -0.5063 0 2.8945511587852333 0.0020959099834998184 0
          2.9 0 0 2.6193 -0.5063 0
          2.9094999062498808 0 0 2.7599046060838517 -0.2593498078631477 0
          2.941812966482449 0 0 2.7596499999999997 -0.25315 0
          2.9 0 0 2.8972735042124977 0.0010487532148138632 0
          2.8986127036055978 0.009957026806962364 0 2.844701643564318 -0.12814969500243956 0
          2.6193 -0.5063 0 2.872206166388077 -0.044996316041249894 0
          2.6484314021105217 -0.40356931443915833 0 2.61704566377792 -0.4681454326759083 0
          2.6193 -0.5063 0 2.6825237268230726 -0.41575296217841745 0
          2.6174833898128553 -0.4924825906931155 0 2.89982187646271 0.003621837738067773 0
          2.897273504212497 0.0010487532148138632 0 2.8972714951436127 0 0
          2.923202386561583 0 0 2.9028159812621688 -0.015000428319460576 0
          2.888369626276729 -0.05411312868925226 0 2.916334145111207 0 0
          2.847326607911506 -0.1655526038399004 0 2.689475 -0.379725 0
          2.8744625389377436 -0.07623874993250246 0 2.8298249999999996 -0.126575 0
          2.9066546664501067 -0.01307706860363361 0 2.9 0 0
          2.899306167189241 0.004979838428298897 0 2.8959118132963564 0.0015725309270084047 0
          2.906313038667374 0.029820566585980555 0 2.897943027009277 0.005502378478249984 0
          2.827368472996278 -0.17529385820839657 0 2.916719903595201 -0.007922652933491686 0
          2.891865639244168 0.022466787265107854 0 2.7049739705612597 -0.3380813456514838 0
          2.642887046643549 -0.4279748712463256 0 2.7592508451441153 -0.2635340134765121 0
          2.6193 -0.5063 0 2.603770684493718 -0.48043692844148655 0
          2.6193 -0.5063 0 2.8230809311139833 -0.14573413499943702 0
          2.699457905138449 -0.3219683562114308 0 2.883086115902494 -0.022066747189125335 0
          2.7676018183378552 -0.20817528135976282 0 2.877811243669353 -0.046455758249038824 0
          2.632266912338594 -0.4368277323768516 0 2.6332430981597468 -0.45713024059883517 0
          2.6495224690167682 -0.4110469478442282 0 2.6172654397978237 -0.4803647737658005 0
          2.6652949314412506 -0.4616125728174405 0 2.618842700088435 -0.5140073045875585 0
          2.715245458691367 -0.34876770207476 0 2.618014198749618 -0.4958549028048821 0
          2.6278867801773966 -0.4611784936490061 0 2.6201830018108048 -0.5002054303303408 0
          2.8870991430525708 -0.030402041044523546 0 2.7568425713855462 -0.2979370260799928 0
          2.7978323610950806 -0.21406291079608714 0 2.8695325047181948 -0.06431527159074117 0
          2.8954687101666665 -0.03489275501250123 0 2.840407707227596 -0.12785626477725687 0
          2.8670130751591314 -0.11210016137760948 0 2.902630441046082 0 0
          2.862086978010932 -0.12175069512406 0 2.8808722944475176 -0.08507478969095748 0
          2.7288996133130508 -0.37584665270505097 0 2.807658569540892 -0.2352329053119771 0
          2.6543875 -0.4430125 0 2.7438625962478627 -0.2929812166129519 0
          2.7245624999999998 -0.3164375 0 2.781225331904521 -0.23238623969880381 0
          2.8107259281610215 -0.17444861091022618 0 2.8497101390388195 -0.1283016075996155 0
          2.711505840300731 -0.3580153661328862 0 2.76053557970479 -0.2641831347774112 0
          2.6586152379149124 -0.429105533884887 0 2.878634926990909 0 0
          2.6583794643369982 -0.49432265720496543 0 2.6193 -0.5063 0
          2.6228976153313233 -0.5079711851543406 0 2.7709421254231894 -0.3039239659791731 0
          2.6218002415500985 -0.5253521086731914 0 2.8308444151817422 -0.15660145676919165 0
          2.7056213724175366 -0.4312941903228111 0
          <InformationKey name="L2_NORM_RANGE" location="vtkDataArray" length="2">
            <Value index="0">
              2.6477238186
            </Value>
            <Value index="1">
              2.9418129665
            </Value>
          </InformationKey>
        </DataArray>
        <DataArray type="Float64" Name="Pressure" format="ascii" RangeMin="0.6756109576695045" RangeMax="1.5457895999999187">
          0.7212399999999602 0.7212399999999602 1.545789599999917 0.7235037310390418 0.7212399999999621 1.545789599999916
          0.7093664240351016 1.0583267529980729 0.6756109576695045 1.1006063999999411 0.7212399999999596 0.7223735994560634
          0.7178592183955473 0.882498806682628 1.5457895999999165 0.7769444993370529 1.3747901990569455 1.5009263918253115
          1.545789599999916 1.3028499391821393 1.520798071719768 0.7178505289474378 0.7223735994560642 0.7267833969445635
          0.6900354630445392 0.7192494178888577 0.7518250754688355 0.7566809933255876 0.8469105316481134 1.3149708999999274
          0.80130249576165 0.9026960999999522 0.7249020116937552 0.7212399999999602 0.719554748370961 0.7229390982366071
          0.6975109344173229 0.7201205369500344 0.9294375448534374 0.7245977027195505 0.7189265477310233 1.2199494043430905
          1.4031767578152912 1.0924602967307928 1.5457895999999165 1.5285309956490825 1.5457895999999174 0.8981023239142772
          1.2001614752268812 0.7503660671374418 1.0187327367126826 0.7862006119908113 1.4382795721270543 1.4612331675699777
          1.352460827122696 1.5109123582496504 1.3743145172825875 1.4853865357738165 1.1928785821842822 1.4748722592217527
          1.4302049992615935 1.5150025288752915 0.7481928481393063 1.0823320371366358 0.9667145138265887 0.7834610093424362
          0.7356271483467663 0.8541826877925425 0.8001400591165825 0.8112099921524073 0.8576625408589159 0.8035810142306355
          1.176069786015527 0.9562812547461567 1.4283234749999218 1.128930411026067 1.2057318749999326 1.0306938391850717
          0.9536703813075361 0.8660654732894003 1.2359293098403068 1.0774536089991487 1.3856961202230664 0.8961163770155305
          1.4096780414112144 1.5457895999999187 1.5091613698105288 1.0694583684335615 1.4889197695235794 0.9490000810052669
          1.2629646324712502
        </DataArray>
        <DataArray type="Float64" Name="Temperature" format="ascii" RangeMin="0.002372591700556445" RangeMax="0.0031164104477527012">
          0.00247 0.00247 0.003114 0.002473980788407261 0.00247 0.003114
          0.0024514015485271766 0.002804023166348922 0.002372591700556445 0.002792 0.00247 0.002471997843894672
          0.0024571137174228055 0.002603281358828981 0.003114 0.0025211387100379777 0.003016856475419026 0.0031014579224435913
          0.003114 0.0030006892407524214 0.0031164104477527012 0.0024672264228641073 0.0024719978438946747 0.0024745712971127663
          0.0024194196254968036 0.0024630313348195762 0.00248761672614362 0.0024397249536736976 0.002583097887834238 0.002953
          0.002536603421744099 0.002631 0.002459820709151891 0.00247 0.0024635727391018433 0.0024729911747530735
          0.00243053625962991 0.0024645707632614325 0.002655672604075629 0.002431277451050198 0.002435087830230328 0.002897881971887245
          0.0030273895239428385 0.0028022516370505178 0.003114 0.0031039414701648743 0.003114 0.0026490500226937675
          0.0028952867323066914 0.0024986498403949185 0.0027415220299182564 0.002488715081629756 0.0030613251420690815 0.003069485852434785
          0.003005600536701845 0.0031090685202330346 0.003052602057929998 0.0031014526235288173 0.002916031474020509 0.003091313771839799
          0.0030595198536474415 0.003113136176598834 0.002493186531445472 0.0028184469960786177 0.002712863036698913 0.0025280224778805867
          0.0024758377924003084 0.0025984563782024683 0.0025397511638090824 0.002478274422257718 0.0025679233477552007 0.0025189982290946063
          0.002902801288228754 0.0026909881337534823 0.0030334999999999997 0.00281980413050091 0.0028725 0.002747020434062311
          0.0026860328232814214 0.002601274404822563 0.002896031273776454 0.002795090030893163 0.00302098719059499 0.0025402908193086085
          0.0030802190760144425 0.003114 0.0031097497146575542 0.0027960832581993126 0.0031065089322823963 0.00264802022278787
          0.002973023603091552
        </DataArray>
        <DataArray type="Float64" Name="Density" format="ascii" RangeMin="0.9751935640084094" RangeMax="1.6999999999999085">
          0.9999999999999458 0.9999999999999458 1.6999999999999083 1.0015245531286157 0.9999999999999456 1.6999999999999083
          0.9909992388121517 1.2925737318600161 0.9751935640084094 1.3499999999999273 0.9999999999999458 1.0007622765642807
          1.000532439086798 1.1609410473513926 1.6999999999999083 1.0553837528860086 1.5606263180136122 1.657336325254488
          1.699999999999908 1.4869300024863648 1.6712216383880056 0.9964193799322562 1.0007622765642807 1.0058244185631544
          0.9767363720245757 1.0000615514523996 1.0350241586979896 1.0621579538757469 1.1228295089789515 1.524999999999918
          1.081835105084693 1.1749999999999365 1.00923661903532 0.9999999999999458 1.0002662195433718 1.0011434148464482
          0.9828020739486434 1.0006473578255393 1.1985684100175014 1.0206564375630505 1.0110835378057177 1.4417112082250625
          1.587308080948011 1.3351057901431826 1.699999999999908 1.6864671067077157 1.6999999999999083 1.1610550437963325
          1.4195975799514855 1.0284541530073121 1.2725816915178123 1.081870668586303 1.60898132163405 1.6303131590067603
          1.541028192143473 1.664278981821247 1.5418179234367104 1.6401798797165972 1.4009453122555848 1.6339112647206222
          1.6008924800403477 1.6666038780814847 1.0277226521692042 1.3151272919780082 1.2203587495778085 1.0613377341021168
          1.0175428550751946 1.12577728912861 1.0789268338384705 1.1209882112046219 1.143803799658256 1.092493731427349
          1.3874998160605874 1.217001205931444 1.6124999999999128 1.3710881532305974 1.4374999999999225 1.2849461831803097
          1.2159175525423103 1.1402017575510972 1.4615293215467864 1.320139809121282 1.5708556041124853 1.2080867587212876
          1.5673120665259574 1.6999999999999085 1.6619861177749635 1.309878254976473 1.6414053259590222 1.2273321213512696
          1.4548224035564215
        </DataArray>
        <DataArray type="Float64" Name="Momentum" NumberOfComponents="3" format="ascii" RangeMin="2.8551980937437422" RangeMax="4.535233026008451">
          2.8999999999998436 0 0 2.8999999999998436 0 0
          4.452809999999759 -0.8607099999999537 0 2.8989640558102976 0.00209910530962246 0
          2.899999999999842 0 0 4.452809999999759 -0.8607099999999532 0
          2.8833121924176583 0 0 3.567380196263452 -0.33522874900684696 0
          2.8688370714301707 0 0 3.7255274999997976 -0.34175249999998153 0
          2.8999999999998436 0 0 2.8994820279050706 0.00104955265481123 0
          2.900156038306487 0.009962328317222687 0 3.3025309054817873 -0.1487742411338937 0
          4.45280999999976 -0.8607099999999533 0 3.0312797229449844 -0.047488380889659225 0
          4.133211747587372 -0.6298208932564614 0 4.33732484342889 -0.7758744310757621 0
          4.452809999999759 -0.8607099999999535 0 3.988725011794764 -0.6181955530856678 0
          4.374394879176431 -0.823047562095718 0 2.889438716058965 0.0036088693131807355 0
          2.8994820279050697 0.00104955265481123 0 2.914146417022425 0 0
          2.8551980937437422 0 0 2.9029946538018643 -0.015001351617610254 0
          2.989532342445898 -0.056008395496109364 0 3.097607508389295 0 0
          3.1970623370639797 -0.18588734887974223 0 4.10144937499978 -0.5790806249999686 0
          3.1096944828737274 -0.08247775604475444 0 3.3250443749998193 -0.14872562499999195 0
          2.933502328271341 -0.013197856504424118 0 2.8999999999998436 0 0
          2.900078019153165 0.004981164158611343 0 2.899223041857684 0.001574328982216845 0
          2.856330481946279 0.029307714687025307 0 2.8998190331057785 0.005505940486016958 0
          3.3887945352127598 -0.2101016809186712 0 2.976968946172722 -0.008086306719146076 0
          2.923917741385787 0.022715798751133692 0 3.899791291315218 -0.4874156653175557 0
          4.195075966170128 -0.6793279715719771 0 3.683891779809379 -0.35184578729216287 0
          4.45280999999976 -0.8607099999999535 0 4.3911736128084895 -0.8102410766642557 0
          4.452809999999759 -0.8607099999999535 0 3.277752354115137 -0.16920535249439198 0
          3.832143909315449 -0.457065499298705 0 2.9651218893776408 -0.02269463779001838 0
          3.5219994034281608 -0.2649200516850035 0 3.1134195742537436 -0.0502591222365713 0
          4.235268295508131 -0.7028476621661117 0 4.293010873793565 -0.7452654466282074 0
          4.082988820472421 -0.6334349349224834 0 4.35585986130266 -0.7994609965857401 0
          4.109399496541139 -0.7117225384536634 0 4.295373104827738 -0.8430644390118741 0
          3.803910396976936 -0.48860447728778744 0 4.277602890535535 -0.8101829113598461 0
          4.206964184783437 -0.7382971824390291 0 4.366807152101073 -0.8336443100259638 0
          2.9671371883734246 -0.03124486625363474 0 3.6255989053159623 -0.3918251142885621 0
          3.41435920171432 -0.26123354615009886 0 3.0455431264899806 -0.06826022461827948 0
          2.946263498123881 -0.03550487355685981 0 3.1976664886626933 -0.14393767915905 0
          3.0932973397549386 -0.1209478721879258 0 3.2538145058963304 0 0
          3.273665960401319 -0.13925890769393373 0 3.147334922726637 -0.09294367443987112 0
          3.786347711519666 -0.5214871614952457 0 3.4169238649750184 -0.2862787294394333 0
          4.280199843749768 -0.7143576562499611 0 3.762077499807994 -0.40170307521710585 0
          3.916558593749789 -0.4548789062499754 0 3.5737248747951043 -0.29860381172460254 0
          3.4176109914367627 -0.21211512802236798 0 3.2492445090432436 -0.14628971848171282 0
          3.9629452911448766 -0.5232499551675215 0 3.644292913263989 -0.3487586731181135 0
          4.176300645657489 -0.6740628326587547 0 3.4776407384903374 0 0
          4.166510211860189 -0.7747578653945169 0 4.452809999999758 -0.8607099999999532 0
          4.3592194250257155 -0.8442410579562096 0 3.6295968358901263 -0.3981033942023282 0
          4.303436880080983 -0.8623157491799794 0 3.474386281300402 -0.19220199814323113 0
          3.936198588134104 -0.6274564506053527 0
          <InformationKey name="L2_NORM_RANGE" location="vtkDataArray" length="2">
            <Value index="0">
              2.8551980937
            </Value>
            <Value index="1">
              4.535233026
            </Value>
          </InformationKey>
        </DataArray>
        <DataArray type="Float64" Name="Energy" format="ascii" RangeMin="5.86624475066247" RangeMax="9.850459752999468">
          5.978459999999677 5.978459999999677 9.850459752999468 5.974628380834011 5.978459999999677 9.850459752999464
          5.938762292028551 7.568609275717461 5.881053608026338 7.890118905374572 5.978459999999675 5.976544190416844
          5.968411147341078 6.8768701766451 9.850459752999468 6.264730579584741 8.980829355280594 9.54773369561489
          9.850459752999464 8.682016127789288 9.667117894592463 5.954560950832114 5.976544190416844 6.008627354885053
          5.869891976711289 5.982107500103599 6.167618369865316 6.3774352765704805 6.649399183774761 8.858705824077646
          6.442820149642276 6.933702472234 6.045889945996675 5.978459999999677 5.973435573670376 5.975586285625427
          5.86624475066247 5.972477668878961 7.094497980939933 6.12324059036011 5.995815242362511 8.356548642655587
          9.13920071219397 7.815007532848407 9.850459752999468 9.669950575697163 9.850459752999468 6.8473570768540135
          8.19701788216578 6.119679480209376 7.4062869925807 6.414276257125678 9.264281525447743 9.41564455414003
          8.864742544492064 9.607425795103676 9.019958475167073 9.493546946954684 8.182653993687481 9.426848595719717
          9.214693124406478 9.654659585769274 6.12341903984417 7.717323003174386 7.181420830970353 6.2982930810095175
          6.074862934984457 6.6508932581323466 6.408508776820039 6.716998100609251 6.8021457385766775 6.513417230172621
          8.156123834952792 7.181852781328767 9.350999629470195 7.996089222913593 8.372203771239779 7.538740100902213
          7.166469527508424 6.7686590652911045 8.505472072132843 7.72552331179776 9.103504197827528 7.208893288785902
          9.195835905159358 9.850459752999468 9.642201276946086 7.718893543828881 9.528996564562762 7.266273255937427
          8.565749599030182
        </DataArray>
        <DataArray type="Float64" Name="TimeAveraDensf" format="ascii" RangeMin="0.9524793058899956" RangeMax="1.7000000000000208">
          1.0000000000000122 1.0000000000000122 1.7000000000000206 1.04592034539631 1.0000000000000122 1.7000000000000206
          0.9524793058899956 1.2459505634568278 0.9901591767393462 1.3500000000000163 1.0000000000000122 1.022960172698161
          1.0313224202873204 1.2667341515549695 1.7000000000000208 1.1212274972069973 1.5208963929847155 1.6135744043895641
          1.7000000000000206 1.34747465961496 1.6417669351960782 0.9978062268169549 1.0229601726981612 0.9817135891405826
          0.9672730091130713 1.043163713037826 1.0845795788287862 1.07348706550432 1.1567996182978058 1.5250000000000186
          1.1546596369311535 1.1750000000000143 1.109091418984406 1.0000000000000122 1.0156612101436662 1.0344402590472355
          1.1041638671186753 1.0271412964927407 1.31102259986505 1.12472670009654 1.1323074533511006 1.488688577457936
          1.5440498552494804 1.3863174746485176 1.7000000000000206 1.6308839948967901 1.7000000000000206 1.1817348385393227
          1.3910249075152163 1.0835739213016535 1.3098739073794605 1.215885124807549 1.56723539868714 1.6104481964923683
          1.4572786517120542 1.6276706697928212 1.3825203461815945 1.526996104535138 1.298318560009501 1.5197475030738063
          1.4904699323255066 1.644233779496215 1.0821956051224118 1.2536073757843047 1.210199516887396 1.1323648818133862
          1.0638716459333062 1.1598100195291816 1.120689598563296 1.1272953496700313 1.1633980466642668 1.1151433419010628
          1.291161617269032 1.2112037763093237 1.6125000000000191 1.4193461580870592 1.4375000000000175 1.3371796900007586
          1.2523298184655849 1.2328411183981018 1.5072681340500675 1.399855588661493 1.5943442887289783 1.1851593483315392
          1.41334884203151 1.7000000000000206 1.6467006237963522 1.2654221883047094 1.5448038848558296 1.2207498170823947
          1.3417136738022075
        </DataArray>
        <DataArray type="Float64" Name="TimeAveraVeloc" NumberOfComponents="3" format="ascii" RangeMin="2.6677841329462924" RangeMax="2.952735744748384">
          2.9 0 0 2.9 0 0
          2.6193000000000004 -0.5063 0 2.8845028316582364 -0.034377548010460196 0
          2.9 0 0 2.6193000000000004 -0.5063 0
          2.9426432882983753 0 0 2.7840092483924077 -0.24947317718647932 0
          2.952735744748384 0 0 2.7596499999999997 -0.25315 0
          2.9 0 0 2.8920409784892276 -0.017724111259937204 0
          2.901308852306205 -0.021947189248932013 0 2.773146897906605 -0.21904340134427935 0
          2.6193000000000004 -0.5063 0 2.846095529534212 -0.12333958727475773 0
          2.6601625881666453 -0.3958647769546491 0 2.631490798687947 -0.46382900644776226 0
          2.6193000000000004 -0.5063 0 2.74179954040767 -0.34931827091329776 0
          2.626817368893636 -0.4965161588275481 0 2.912969443300124 -0.01560538312859523 0
          2.892234698768733 -0.017209600506002037 0 2.9176571654869936 0 0
          2.946501266420715 0 0 2.890161435937755 -0.07860129424394273 0
          2.880976907434443 -0.10178214950448695 0 2.928440130940758 0 0
          2.8482968281439422 -0.19152258528698005 0 2.6894750000000003 -0.379725 0
          2.8457738025551826 -0.11840086515635137 0 2.829825 -0.126575 0
          2.8572443302646056 -0.08074169979634314 0 2.9 0 0
          2.900654467176068 -0.010973009764053073 0 2.888267788937457 -0.02605595588774196 0
          2.847901426843539 -0.08050865360372783 0 2.896673627272281 -0.019837484363130903 0
          2.781531650264043 -0.23820285286255036 0 2.8553886713343513 -0.10076791979927317 0
          2.8347843956314804 -0.09891435848385637 0 2.684398769122282 -0.37193850015320495 0
          2.662452399150161 -0.40711354840597835 0 2.7199756047939374 -0.307184898134972 0
          2.6193000000000004 -0.5063 0 2.6287844487188865 -0.4616932735627502 0
          2.6193000000000004 -0.5063 0 2.8152370990142717 -0.1870551921917032 0
          2.7202874212237536 -0.3181643322743152 0 2.8650651437329526 -0.07944028840533987 0
          2.752010172452235 -0.25458463212255317 0 2.8042768554760635 -0.164792970499652 0
          2.6456566773562513 -0.4302229735649044 0 2.639439919656313 -0.45205103300647925 0
          2.691405844795636 -0.3776361528113986 0 2.6291527953817235 -0.48020149576272214 0
          2.7287990996533993 -0.3883319197675171 0 2.671158694592416 -0.45908084418746453 0
          2.7615859315738422 -0.30195520246710406 0 2.6706866086356347 -0.4443922135059105 0
          2.6815958432134748 -0.408435879797773 0 2.627907843913731 -0.5072559867584759 0
          2.868069382111418 -0.10102835602953578 0 2.7938885562449256 -0.27146551466239754 0
          2.8131652256433592 -0.2225559255522243 0 2.8425619942244778 -0.1535838714101607 0
          2.8855513677007756 -0.09023992517145277 0 2.834827455816276 -0.1714848736464329 0
          2.8645170624646465 -0.14697766127078185 0 2.9118463433471025 0 0
          2.8701318964702125 -0.11407647707856507 0 2.8882310213767286 -0.09609106179858777 0
          2.7794572975765877 -0.3147359902693992 0 2.8272016126533517 -0.21424321470799854 0
          2.6543875 -0.44301250000000003 0 2.7334144928833384 -0.31118369821295305 0
          2.7245624999999998 -0.3164375 0 2.767517738635938 -0.24969483658694044 0
          2.8018036731238887 -0.18717489451416808 0 2.8134797897342447 -0.17866560464833367 0
          2.698718778809051 -0.37472179390621974 0 2.7321566515843867 -0.3061460772845521 0
          2.651344111629995 -0.44011134057969586 0 2.8937759668728553 0 0
          2.7174910687529157 -0.42477605611337155 0 2.6193000000000004 -0.5063 0
          2.62900129995559 -0.5180067890711578 0 2.8065298689581097 -0.23682191554948373 0
          2.6654195868646333 -0.48432731394150774 0 2.851021769782236 -0.11907659340165148 0
          2.7607135628003014 -0.33541461338951534 0
          <InformationKey name="L2_NORM_RANGE" location="vtkDataArray" length="2">
            <Value index="0">
              2.6677841329
            </Value>
            <Value index="1">
              2.9527357447
            </Value>
          </InformationKey>
        </DataArray>
        <DataArray type="Float64" Name="TimeAveraPress" format="ascii" RangeMin="0.6544046256699094" RangeMax="1.5457896000000189">
          0.7212400000000084 0.7212400000000083 1.5457896000000182 0.7723794229777584 0.721240000000009 1.5457896000000182
          0.6544046256699094 1.0171624177602108 0.6718964843870088 1.1006064000000133 0.7212400000000081 0.7469130949248485
          0.7404614347276416 1.0242300104182864 1.5457896000000189 0.864337967382445 1.3389080600898278 1.4554058492176487
          1.5457896000000177 1.1470753595996048 1.4906573391173386 0.7120946338593225 0.7468147827358198 0.6940908789165497
          0.6613013967120038 0.7683535656237258 0.8045131992605673 0.7556850137566643 0.8930837672655204 1.3196745459742543
          0.8780001110275174 0.90739974597425 0.8374969562079061 0.7212400000000084 0.7308514634452795 0.7596475081755855
          0.8408940498142715 0.7436892776035382 1.068329424801115 0.850851266043325 0.8694774520572992 1.2899131453581618
          1.3595440826823448 1.1707640658227791 1.545789600000018 1.4676335567835739 1.545789600000018 0.9384932368549974
          1.1841613226390473 0.8185123121558195 1.0837844621835255 0.9661589445304241 1.3973209778431979 1.4427410490476937
          1.2676850002444833 1.473056674077044 1.1929246091319663 1.3593638984168337 1.0842389085419402 1.3492596099018772
          1.3099099003526584 1.493701502356104 0.8163595239868042 1.021148690007285 0.9670965636546104 0.8776464817101115
          0.7864462808344921 0.903536044065385 0.8489092804863875 0.8118399847217396 0.8795111285635011 0.8246405245513125
          1.0700145005075414 0.9558868353246578 1.4324369829011536 1.1949670066331426 1.209845382901151 1.0949000404980058
          0.9896929165259906 0.973264546101144 1.3068178674994817 1.17951728770398 1.4182569138607337 0.8723532668571544
          1.233236319307158 1.5457896000000177 1.4967234420561621 1.0192360147116253 1.3828802747468794 0.940947102857997
          1.1295929045315203
        </DataArray>
        <DataArray type="Float64" Name="TimeAveraTempe" format="ascii" RangeMin="0.002324108299499026" RangeMax="0.003114">
          0.00247 0.00247 0.003114 0.002528079704379869 0.00247 0.003114
          0.0023507394503273506 0.002795630502532211 0.002324108299499026 0.0027920000000000006 0.00247 0.0025002608298637383
          0.002458767747627347 0.002763786781603778 0.003114 0.00263825048382116 0.00301473621511869 0.003088807535503308
          0.003114 0.002911974142334177 0.003109408517271199 0.0024385944417951795 0.002499096303402912 0.002418434006615203
          0.0023408900678489066 0.0025007991366295494 0.0025252521320206574 0.0024063233008333193 0.0026177130300402474 0.0029530000000000008
          0.0025898941878598303 0.0026310000000000005 0.0025663257627351914 0.00247 0.0024643790385956224 0.0025141841042916687
          0.0025869898794109794 0.0024795272942188845 0.0027413351736480956 0.0025710684733605566 0.002613271249247014 0.0029572156690013383
          0.003005477260931492 0.0028883175044969495 0.003114 0.003079473668034234 0.003114 0.0027186373174491723
          0.002897113161068857 0.002584320754563163 0.0028208332627215524 0.0026912948948793246 0.003052582920701886 0.003066064888562853
          0.0029670342788267637 0.003099175557072438 0.0029504667928272553 0.003037467549948381 0.00285786572263485 0.003029990449427821
          0.002994642126218891 0.0031111109648138606 0.002569682846175056 0.002768653266132102 0.0027141238988909835 0.002633077815072033
          0.0025130993448908034 0.0026536459607758535 0.002572112977445643 0.002461703700600894 0.002570781228647868 0.0025131066617115685
          0.0028110515540145475 0.0026838474549934527 0.0030335 0.002849386790592635 0.0028725000000000005 0.0027717654190831218
          0.0026940649049833247 0.0026663516103311684 0.0029292737543304237 0.0028519027912997487 0.0030377665469627922 0.0025204509528141818
          0.002983976044534141 0.003114 0.0031127637189762693 0.002749580857649167 0.0030586259497747594 0.002632122527269853
          0.002871781677080465
        </DataArray>
        <DataArray type="Float64" Name="RMSDensf" format="ascii" RangeMin="2.930663285873265e-14" RangeMax="0.0831526657123262">
          2.930663285873265e-14 2.930663285873265e-14 4.966149179995644e-14 0.024180703686279923 2.937883407989264e-14 4.9722669626874636e-14
          0.023954349034852943 0.025166543079659077 0.007155178303646828 3.940654110532947e-14 2.930663285873265e-14 0.01209035184315404
          0.019466716025920185 0.05728111177241779 4.9794674013517756e-14 0.028688131515592272 0.024589445227010124 0.02327339828548777
          4.9794674013517756e-14 0.07319641796161153 0.014832044678081633 0.00109454162203974 0.0120903518431541 0.017130338805886863
          0.004938054483057445 0.030879064611109397 0.02555899709528015 0.005465102116196031 0.013043659664573505 4.4559314692604955e-14
          0.045397818216997475 3.444849809951502e-14 0.06485965503642187 2.930663285873265e-14 0.009733358012973651 0.01813552776471698
          0.07408601728325791 0.015748639233596897 0.06485855682476531 0.062013795816506255 0.06542704282543993 0.02381410901550217
          0.031830888971743264 0.0248376068211031 4.9794674013517756e-14 0.03284268332295332 4.9722669626874636e-14 0.008054624804487045
          0.022109596214513097 0.02616868653681727 0.014985008909697669 0.06963802005093044 0.023877703700804668 0.0122947226134818
          0.05081167097099554 0.01904490930245223 0.08162509542551438 0.06820729068008063 0.05184200361690878 0.0674842111387388
          0.06580100037370724 0.01098213918563071 0.029490889001067555 0.04276722375543322 0.03806602785016473 0.03504321814767299
          0.02831776426506098 0.0218490858231749 0.02007454297079652 0.016243607284140343 0.011798024417183778 0.009034141001362943
          0.05559282078385824 0.00924621369887926 4.7090769144006424e-14 0.039118645424416364 4.2076955700058866e-14 0.03227190199972304
          0.028987201546587908 0.05547491336129217 0.038681969464989106 0.047255666922817643 0.01429684025227074 0.02408859773014102
          0.0831526657123262 4.9650703287947724e-14 0.0071525807679996755 0.020983712474121136 0.058325774406924706 0.018358110436047227
          0.0605855493717958
        </DataArray>
        <DataArray type="Float64" Name="RMSVeloc" NumberOfComponents="3" format="ascii" RangeMin="0" RangeMax="0.07563466695290982">
          0 0 0 0 0 0
          1.68210901433357e-16 0 0 0.004965847327009289 0.01965537047229429 0
          0 0 0 1.68210901433357e-16 0 0
          0.018998451405632697 0 0 0.012431924237380146 0.007122173673922706 0
          0.006064923078552926 0 0 0 0 0
          0 0 0 0.0026078793335210866 0.010180009300853795 0
          0.0013413742135975756 0.01924112854174204 0 0.03714632957711353 0.05062997339375407 0
          1.68210901433357e-16 0 0 0.012170194479400797 0.0351797195355568 0