<?xml version="1.0"?>
<VTKFile type="UnstructuredGrid" version="0.1" byte_order="LittleEndian" header_type="UInt32" compressor="vtkZLibDataCompressor">
  <UnstructuredGrid>
    <Piece NumberOfPoints="15" NumberOfCells="16">
      <PointData>
      </PointData>
      <CellData>
        <DataArray type="UInt8" Name="vtkGhostType" format="ascii" RangeMin="0" RangeMax="1">
          1 1 1 1 0 0
          0 0 0 0 0 0
          0 0 0 0
        </DataArray>
        <DataArray type="Float64" Name="Error" format="ascii" RangeMin="0" RangeMax="0.9326391379137653">
          0 0 0.9326391379137653 0.8876993579191097 0 0
          0 0 0 0 0.9326391379137635 0.8876993579191097
          0.9326391379137653 0.8876993579191097 0.9326391379137653 0.8876993579191097
        </DataArray>
      </CellData>
      <Points>
        <DataArray type="Float32" Name="Points" NumberOfComponents="3" format="ascii" RangeMin="1.024999976158142" RangeMax="3.2335159336633637">
          1.537500023841858 1 0 1.537500023841858 0.5 0
          1.537500023841858 0 0 2.049999952316284 1 0
          2.049999952316284 0.5 0 2.049999952316284 0 0
          2.5625 1 0 2.5625 0.5 0
          2.5625 0 0 1.024999976158142 0 0
          1.024999976158142 0.5 0 1.024999976158142 1 0
          3.075000047683716 0 0 3.075000047683716 0.5 0
          3.075000047683716 1 0
          <InformationKey name="L2_NORM_RANGE" location="vtkDataArray" length="2">
            <Value index="0">
              1.0249999762
            </Value>
            <Value index="1">
              3.2335159337
            </Value>
          </InformationKey>
        </DataArray>
      </Points>
      <Cells>
        <DataArray type="Int64" Name="connectivity" format="ascii" RangeMin="0" RangeMax="14">
          2 1 9 1 10 9
          1 0 10 0 11 10
          5 4 2 4 1 2
          8 7 5 7 4 5
          12 13 8 13 7 8
          4 3 1 3 0 1
          7 6 4 6 3 4
          13 14 7 14 6 7
        </DataArray>
        <DataArray type="Int64" Name="offsets" format="ascii" RangeMin="3" RangeMax="48">
          3 6 9 12 15 18
          21 24 27 30 33 36
          39 42 45 48
        </DataArray>
        <DataArray type="UInt8" Name="types" format="ascii" RangeMin="5" RangeMax="5">
          5 5 5 5 5 5
          5 5 5 5 5 5
          5 5 5 5
        </DataArray>
      </Cells>
    </Piece>
  </UnstructuredGrid>
</VTKFile>
