<?xml version="1.0"?>
<VTKFile type="UnstructuredGrid" version="0.1" byte_order="LittleEndian" header_type="UInt32" compressor="vtkZLibDataCompressor">
  <UnstructuredGrid>
    <Piece NumberOfPoints="68" NumberOfCells="96">
      <PointData>
        <DataArray type="Float64" Name="Velocity" NumberOfComponents="3" format="ascii" RangeMin="2.6553501410971996" RangeMax="2.946255627013462">
          2.9 0 0 2.9 0 0
          2.6193 -0.5063 0 2.8887963972414705 -0.014288945682882439 0
          2.9 0 0 2.6193 -0.5063 0
          2.921474785950563 0 0 2.7722365993502662 -0.2591751469328298 0
          2.946255627013462 0 0 2.7596499999999997 -0.25315 0
          2.9 0 0 2.894340546863902 -0.007218001226877543 0
          2.90013083143037 0.0007650215013563068 0 2.808759961868981 -0.16470764500676563 0
          2.6193 -0.5063 0 2.8550114007632414 -0.10105621564177866 0
          2.6501888581176334 -0.4063725022004973 0 2.6236026727561073 -0.46789830980537794 0
          2.6193 -0.5063 0 2.7129646895292727 -0.3810550855896425 0
          2.6218086404504217 -0.4952375003996034 0 2.9041262821635314 -0.0028814738692124605 0
          2.8943405468639027 -0.007218001226877543 0 2.9016379884861863 0 0
          2.930929263544 0 0 2.9067665995030887 -0.025365331495825854 0
          2.8846063627887997 -0.08705477011038434 0 2.9309375386978025 0 0
          2.838411593754717 -0.20234137981026543 0 2.689475 -0.379725 0
          2.86075611648549 -0.08181022136781856 0 2.8298249999999996 -0.126575 0
          2.887396270645662 -0.022820426014239895 0 2.9 0 0
          2.900065652756736 0.00038389682344975364 0 2.8915542804737004 -0.010771573230966162 0
          2.8875024925264494 -0.000012018392836955096 0 2.8972312050040503 -0.0032326721178394186 0
          2.7997853204356913 -0.19846719685085315 0 2.8955109451165275 -0.03848363226083505 0
          2.8585000877011115 -0.034968645393641085 0 2.6861261030220045 -0.35753482496868016 0
          2.6403447335614683 -0.4357570011084432 0 2.734744788561133 -0.2857663796423934 0
          2.6193 -0.5063 0 2.611468438080955 -0.48074626231717643 0
          2.6193 -0.5063 0 2.8107333574158875 -0.18563747436099245 0
          2.697083343220367 -0.3378382598293501 0 2.8712295195759836 -0.05940453472011715 0
          2.7450025694084874 -0.2442110294204438 0 2.828095411117742 -0.11133854024692688 0
          2.636536387165161 -0.43796707997578815 0 2.6340349948635655 -0.4586313176163001 0
          2.6601546027982335 -0.4133921590964763 0 2.6227006727896836 -0.481643853249545 0
          2.6988957059079204 -0.426219535473259 0 2.635976301377314 -0.510043489007237 0
          2.740978046248328 -0.3234516405715675 0 2.63567247512874 -0.4925240216472513 0
          2.6440267698766173 -0.45869609246907783 0 2.6233411686770545 -0.5041458935609413 0
          2.885369431492059 0 0 2.6855736755171997 -0.46898610554848336 0
          2.6193 -0.5063 0 2.624876606715559 -0.513071201091438 0
          2.787392209095018 -0.29169079550850524 0 2.637234302639844 -0.5242556765876515 0
          <InformationKey name="L2_NORM_RANGE" location="vtkDataArray" length="2">
            <Value index="0">
              2.6553501411
            </Value>
            <Value index="1">
              2.946255627
            </Value>
          </InformationKey>
        </DataArray>
        <DataArray type="Float64" Name="Pressure" format="ascii" RangeMin="0.6740325601208002" RangeMax="1.5457895999999924">
          0.7212399999999961 0.7212399999999964 1.545789599999991 0.7441795187053648 0.7212399999999957 1.5457895999999922
          0.6959855208078404 1.0415144398425134 0.6740325601208002 1.1006063999999935 0.7212399999999957 0.7327266920882427
          0.7224142205750274 0.9431176821227181 1.5457895999999924 0.838444006402814 1.3703261463720156 1.480922111051254
          1.5457895999999915 1.2255931312488155 1.5042135913776757 0.7148140561437916 0.7327266920882417 0.72483975349251
          0.6797520942048053 0.714906785056429 0.7752729345167731 0.7465745031302695 0.8924312690583398 1.314970899999993
          0.8165362091889933 0.9026960999999959 0.7468183588337168 0.7212399999999964 0.7218271410205898 0.7384572735656046
          0.7339072860138126 0.7275754440809769 0.9734316360950958 0.76025717213142 0.784783552359588 1.2587458739961686
          1.4109320137407981 1.1370115789914097 1.5457895999999902 1.5124606879999587 1.5457895999999902 0.941894697107657
          1.2141250404059818 0.7917796344866633 1.0705323468737604 0.8755149323434789 1.4259878260297243 1.4589598553748273
          1.3347823016233018 1.4926306603198987 1.2790930742568178 1.45403008797423 1.134806278404393 1.4398592782163564
          1.3986416788445049 1.5018110592634215 0.9051619313844926 1.3313358598639846 1.5457895999999922 1.4993534752752993
          1.0424501650359697 1.463335760414085
        </DataArray>
        <DataArray type="Float64" Name="Temperature" format="ascii" RangeMin="0.002344709764438735" RangeMax="0.003114">
          0.00247 0.00247 0.003114 0.0024966366179520927 0.00247 0.003114
          0.002428126022220405 0.0028046879958017333 0.002344709764438735 0.002792 0.00247 0.0024835127683175305
          0.0024561562242061538 0.00267425849209252 0.003114 0.002596914122154633 0.003026346040090024 0.0030984098441850976
          0.003114 0.002957752693956735 0.0031123629213186846 0.002457234519390232 0.002483512768317527 0.0024703909824143853
          0.0023948490115961595 0.0024452048939465755 0.0025038743897785364 0.0023916355004986105 0.0026381692647674364 0.002953
          0.002543773834189936 0.002631 0.0024901485379602126 0.00247 0.0024630531346956416 0.0024901223420874933
          0.0024747164798803937 0.002469872613585257 0.0026923332341051115 0.002473857874263356 0.0025229254495269 0.002938694408039132
          0.0030429102002527105 0.0028509257475536672 0.003114 0.003103810370906071 0.003114 0.0027135753237364176
          0.002923272949021326 0.0025502839936585348 0.002805597443576177 0.0026095146889693727 0.0030641335686665146 0.0030740867088370604
          0.003012051744262008 0.0031055558244763694 0.003002686513338676 0.0030978110684963234 0.0028885987322557136 0.0030863159144577
          0.00305640186881529 0.003110339055837053 0.002533771274404769 0.0030423618479763674 0.003114 0.0031081972237310376
          0.0027859619501938828 0.0031054851530506493
        </DataArray>
        <DataArray type="Float64" Name="Density" format="ascii" RangeMin="0.9720521500797348" RangeMax="1.6999999999999913">
          0.9999999999999951 0.9999999999999951 1.6999999999999913 1.0207973307933038 0.9999999999999951 1.699999999999991
          0.9816261741561049 1.2717387027620766 0.9844846131298314 1.349999999999993 0.9999999999999949 1.0103986653966495
          1.007273592354149 1.2077572475933234 1.6999999999999913 1.105690619137195 1.550681151256715 1.636856103708223
          1.699999999999991 1.4190627767588142 1.6551464398775966 0.996239196397772 1.0103986653966495 1.0048320045653272
          0.9720521500797348 1.0012702468364145 1.060374397026024 1.0690433372846466 1.1584819481426627 1.5249999999999917
          1.09929461621132 1.1749999999999938 1.0270861678751855 0.9999999999999951 1.003636796177072 1.0155979980949765
          1.0156238651658127 1.0088361288753993 1.2382085339206157 1.0524535300073157 1.0652771788579949 1.4669009235156127
          1.5879400419919814 1.3658283713140538 1.699999999999991 1.6688068120923123 1.699999999999991 1.1887146609496357
          1.4223654580513276 1.0632439749652494 1.306747222688773 1.1490024647378663 1.593768627482469 1.625340575628353
          1.5176274028297687 1.6460012717929098 1.4588455086127565 1.6074431221589096 1.3454007397604455 1.5977058285897854
          1.5671593490494569 1.653578104119962 1.223421253268925 1.4986282404666988 1.699999999999991 1.6520097683623272
          1.2814370316574393 1.6137329885836371
        </DataArray>
        <DataArray type="Float64" Name="Momentum" NumberOfComponents="3" format="ascii" RangeMin="2.849016092359559" RangeMax="4.535233026008674">
          2.8999999999999853 0 0 2.8999999999999844 0 0
          4.452809999999978 -0.8607099999999956 0 2.9488756515094057 -0.014586117612936895 0
          2.8999999999999857 0 0 4.452809999999977 -0.8607099999999954 0
          2.8677961170261765 0 0 3.525560576607258 -0.32960306514852755 0
          2.900543331141937 0 0 3.7255274999999815 -0.34175249999999835 0
          2.8999999999999853 0 0 2.924437825754695 -0.007293058806468447 0
          2.9212252008718935 0.0007705859558993315 0 3.3923002006972087 -0.19892685199094945 0
          4.452809999999978 -0.8607099999999954 0 3.1567593233536586 -0.11173690964062014 0
          4.10959790955357 -0.6301541795513391 0 4.294460048606042 -0.765882204319694 0
          4.452809999999977 -0.8607099999999956 0 3.849867205572024 -0.5407410878549057 0
          4.339477237281837 -0.8196905856802834 0 2.893204433580246 -0.0028706372119054004 0
          2.924437825754696 -0.007293058806468447 0 2.9156587164934784 0 0
          2.849016092359559 0 0 2.910458910580303 -0.025397551727913033 0
          3.0587627325996056 -0.09231064936403793 0 3.1332992477423467 0 0
          3.2882485927636846 -0.23440883587247072 0 4.1014493749999765 -0.579080624999997 0
          3.144813797146103 -0.08993353590069923 0 3.3250443749999827 -0.1487256249999992 0
          2.965604770754555 -0.02343854390424485 0 2.8999999999999853 0 0
          2.9106126004359396 0.00038529297794966577 0 2.9366567386320503 -0.010939588209702672 0
          2.9326164421356307 -0.000012206166586149453 0 2.9228315133132945 -0.003261236425284558 0
          3.466718076909139 -0.24574377684402912 0 3.0473907153627082 -0.04050223462041926 0
          3.045094909191571 -0.037251299913423595 0 3.940280861202372 -0.5244681649355499 0
          4.192709127084905 -0.6919559906384412 0 3.7351920205200484 -0.3903078288832837 0
          4.452809999999978 -0.8607099999999956 0 4.358036319033569 -0.8022726374428217 0
          4.452809999999978 -0.8607099999999954 0 3.341159949980458 -0.22066998739457383 0
          3.836238184882243 -0.480529471189437 0 3.052817487431532 -0.06316151362677852 0
          3.587024483848087 -0.3191220844451312 0 3.2494885978881345 -0.1279282571640351 0
          4.202028979079806 -0.6980181919355166 0 4.281203954776774 -0.7454320897756672 0
          4.037123520970338 -0.6273752687597759 0 4.316968642943939 -0.7927863949999887 0
          3.937271878778025 -0.6217884550081794 0 4.237181975822844 -0.8198658984066164 0
          3.6877138910896408 -0.43517207650171663 0 4.211029275766854 -0.786908500106295 0
          4.143611271549178 -0.7188498696853695 0 4.337899516160849 -0.8336446108743655 0
          3.5300222860198605 0 0 4.024676551984026 -0.7028358221614531 0
          4.452809999999977 -0.8607099999999954 0 4.336321795039862 -0.8475986360684475 0
          3.571867598487792 -0.3737833871582161 0 4.25579199279428 -0.8460086797617276 0
          <InformationKey name="L2_NORM_RANGE" location="vtkDataArray" length="2">
            <Value index="0">
              2.8490160924
            </Value>
            <Value index="1">
              4.535233026
            </Value>
          </InformationKey>
        </DataArray>
        <DataArray type="Float64" Name="Energy" format="ascii" RangeMin="5.846577536644157" RangeMax="9.850459752999953">
          5.978459999999968 5.978459999999966 9.85045975299995 6.089320965934497 5.978459999999968 9.850459752999951
          5.90045868089832 7.490540629593309 5.93025248746451 7.890118905374959 5.978459999999968 6.033890482967232
          6.012315225854889 7.099496822236876 9.850459752999953 6.57359119644225 8.943144553770846 9.454101390084375
          9.85045975299995 8.338918951915824 9.590327197786676 5.9587788736932605 6.033890482967232 6.012404495275417
          5.846577536644157 5.9882217156582085 6.322003066275052 6.427507306452231 6.88481968308243 8.858705824078074
          6.509735634340123 6.93370247223434 6.118060248074137 5.978459999999969 5.995387612927429 6.061605724450864
          6.038576284855393 6.023102854411061 7.270994280574731 6.282055406639532 6.2825608482745965 8.480938856530225
          9.155207592154671 7.958969328031497 9.85045975299995 9.602277736803291 9.85045975299995 7.03206591301778
          8.239914726116824 6.3314560811883736 7.594498665899537 6.7548608339338685 9.19862297192761 9.396802153385398
          8.781464053513552 9.522214293935527 8.590819493378092 9.368959826902692 7.914729790754567 9.283708543056493
          9.081902148070819 9.592843832244375 7.318415591208593 8.84272003484036 9.850459752999951 9.595360466702074
          7.595897539594643 9.431725055543081
        </DataArray>
        <DataArray type="Float64" Name="TimeAveraDensf" format="ascii" RangeMin="0.9460270452004746" RangeMax="1.7000000000000395">
          1.0000000000000233 1.0000000000000233 1.7000000000000393 1.0533568387517858 1.0000000000000233 1.7000000000000393
          0.9460270452004746 1.2381409746572642 0.9926659836674255 1.3500000000000312 1.000000000000023 1.0266784193759044
          1.036479879562566 1.2844549686928028 1.7000000000000395 1.1322566182595115 1.5142414532167876 1.606244087323195
          1.7000000000000393 1.3241152672564316 1.6368331409469852 0.9980385298600211 1.0266784193759044 0.9776749175990357
          0.9656878535878016 1.050383517480192 1.0928803328801704 1.0753847422670484 1.1624897632266589 1.525000000000035
          1.1668580710513599 1.1750000000000274 1.1258175436553266 1.0000000000000233 1.0182399397812947 1.040017629063845
          1.1244925091457327 1.0315791494692352 1.3298591785785068 1.1421589335651174 1.1526130002606436 1.4965574964773674
          1.5368039093716122 1.3948956603750007 1.7000000000000393 1.6215735755857377 1.7000000000000393 1.1851987964583877
          1.386238857354442 1.0928067285056484 1.3161205199817074 1.2383331443680015 1.5602427702699913 1.6071207266084135
          1.4432502298925478 1.62153861413509 1.3558372910024425 1.508037317021911 1.281128120956848 1.500624563453683
          1.471973662737056 1.640486688139277 1.181318904759915 1.387559314748454 1.7000000000000393 1.644140235331569
          1.2579755987175307 1.5286227123122322
        </DataArray>
        <DataArray type="Float64" Name="TimeAveraVeloc" NumberOfComponents="3" format="ascii" RangeMin="2.6677841329462924" RangeMax="2.954565358859293">
          2.9 0 0 2.9 0 0
          2.6193 -0.5063 0 2.8828196920160156 -0.04048701501552764 0
          2.9 0 0 2.6193 -0.5063 0
          2.9481949527195317 0 0 2.7880468835647423 -0.24781879746601698 0
          2.954565358859293 0 0 2.7596499999999997 -0.25315 0
          2.9 0 0 2.8911645070763776 -0.020868649847917742 0
          2.9017604692472103 -0.027291287835589418 0 2.761161158640419 -0.23426850284015943 0
          2.6193 -0.5063 0 2.8417218813222327 -0.1364624348739469 0
          2.662127614190557 -0.39457423253852303 0 2.6339104232579884 -0.4631059857891498 0
          2.6193 -0.5063 0 2.7517285037473562 -0.33819016361008275 0
          2.628380852049784 -0.49719179949299 0 2.915171719426599 -0.018826028440138618 0
          2.891390676367327 -0.020267956246295366 0 2.9210718562563662 0 0
          2.9504039327864313 0 0 2.888041743115198 -0.08925472315445868 0
          2.879738594032622 -0.10976692325099538 0 2.9304679375995537 0 0
          2.848459344363235 -0.19587267309053905 0 2.689475 -0.379725 0
          2.8409683111653794 -0.12546320763746774 0 2.829825 -0.126575 0
          2.8489678784216075 -0.09207582752698974 0 2.9 0 0
          2.900880313441695 -0.013645183038223133 0 2.8869873807399578 -0.030683850742751616 0
          2.8381172211559504 -0.09898929041517211 0 2.8964609971506534 -0.02408202448784264 0
          2.773853777874041 -0.24874039024727446 0 2.8451154161924936 -0.1163199163932651 0
          2.825223032557058 -0.11924624215426086 0 2.6809523310484678 -0.37760972464604 0
          2.66572968302057 -0.40361918372039607 0 2.7133968267390776 -0.31449661614117336 0
          2.6193 -0.5063 0 2.6329743658699143 -0.45855362771247254 0
          2.6193 -0.5063 0 2.8139232221283885 -0.19397665369865602 0
          2.723776458135904 -0.31752714128644277 0 2.8620465504619967 -0.08905061263295729 0
          2.7493985021765877 -0.2623584055130231 0 2.791959517249479 -0.1846149817231699 0
          2.6478995227589146 -0.42911664698504726 0 2.6404779149151074 -0.45120024306485856 0
          2.6984214971756275 -0.3720396955218281 0 2.631143980498566 -0.4801741459684518 0
          2.739436331265511 -0.37605708330993626 0 2.6799218571725123 -0.4498804169185423 0
          2.7693481676119385 -0.29411389984575487 0 2.679509472383001 -0.43577198335618983 0
          2.6905923509903444 -0.3996012565728931 0 2.6292017894440676 -0.5084369864287619 0
          2.8963121586317087 0 0 2.727392526323938 -0.4131266900249123 0
          2.6193 -0.5063 0 2.6300236943725785 -0.5196877975188864 0
          2.8124909748381004 -0.22558202260759572 0 2.6727260218899582 -0.4774554777190033 0
          <InformationKey name="L2_NORM_RANGE" location="vtkDataArray" length="2">
            <Value index="0">
              2.6677841329
            </Value>
            <Value index="1">
              2.9545653589
            </Value>
          </InformationKey>
        </DataArray>
        <DataArray type="Float64" Name="TimeAveraPress" format="ascii" RangeMin="0.6451982791341101" RangeMax="1.5457896000000357">
          0.7212400000000165 0.7212400000000164 1.545789600000035 0.7805663195231551 0.7212400000000169 1.5457896000000353
          0.6451982791341101 1.010267207880114 0.6712742935334743 1.1006064000000253 0.7212400000000161 0.7510235699423906
          0.744247406843178 1.0479706196293705 1.5457896000000357 0.8789767633411433 1.3328976416609757 1.447780955160158
          1.5457896000000348 1.1209824222547182 1.485608631880048 0.7111304957419196 0.7509087900229051 0.6886147362311538
          0.6564883123532597 0.7765787295346392 0.8133386951572766 0.7555181827335388 0.9008179903152918 1.3204624276686203
          0.8908473039071114 0.908187627668611 0.8563571119562455 0.7212400000000165 0.7327437136405757 0.7657963306800987
          0.8649113616015581 0.7476371468567748 1.091594434605029 0.8719993014044505 0.8946954004820623 1.3016323842456137
          1.352235414852941 1.1838802966369544 1.5457896000000348 1.4574329639715748 1.5457896000000348 0.9452588950483265
          1.1814812256675014 0.8299271123518407 1.0946809165436422 0.996302768434365 1.390460230491175 1.4396435366597977
          1.25348467086454 1.4667156780177977 1.1625409899236656 1.3382545441858318 1.066041278318091 1.32821893049698
          1.2897599343752846 1.4901334853417973 0.8683728398443269 1.2036815433467725 1.5457896000000342 1.4946400336434116
          1.010823546307017 1.3651181860883386
        </DataArray>
        <DataArray type="Float64" Name="TimeAveraTempe" format="ascii" RangeMin="0.002315987113427148" RangeMax="0.003114">
          0.00247 0.00247 0.003114 0.0025371415142636288 0.00247 0.003114
          0.002333878099596237 0.002794224693884144 0.002315987113427148 0.002792 0.00247 0.0025049950061590397
          0.002459044805069 0.0027906721562984235 0.003114 0.0026578672286319146 0.003014381062055078 0.0030866885392286532
          0.003114 0.002897113967389226 0.003108235662664005 0.0024337984571737243 0.002503635416318422 0.002409030759900686
          0.0023277360164438597 0.0025071254120008117 0.0025315562304822335 0.0024007283749017884 0.0026235112208566583 0.0029530000000000003
          0.002598820629035568 0.0026310000000000005 0.0025841658345717544 0.00247 0.002464514097359567 0.002521084103844763
          0.0026131965590198637 0.002482032579909371 0.0027556840363871025 0.00259448409352334 0.002643117767213937 0.0029671543280905656
          0.0030018068590766324 0.002902733921429875 0.003114 0.003075375201970818 0.003114 0.002730293499907947
          0.002897419096038373 0.0025986710150592072 0.00283411824820396 0.0027252279177680757 0.0030511185596039415 0.003065491861845601
          0.002960574258500867 0.0030975184415880214 0.0029333586800647537 0.003026749764540668 0.0028481226996679987 0.003019718519220953
          0.002983774817307459 0.0031107717328007997 0.002517127686625582 0.0029678549072020585 0.003114 0.0031132685781519844
          0.002741791498004008 0.0030506053364898035
        </DataArray>
      </PointData>
      <CellData>
        <DataArray type="UInt8" Name="vtkGhostType" format="ascii" RangeMin="0" RangeMax="0">
          0 0 0 0 0 0
          0 0 0 0 0 0
          0 0 0 0 0 0
          0 0 0 0 0 0
          0 0 0 0 0 0
          0 0 0 0 0 0
          0 0 0 0 0 0
          0 0 0 0 0 0
          0 0 0 0 0 0
          0 0 0 0 0 0
          0 0 0 0 0 0
          0 0 0 0 0 0
          0 0 0 0 0 0
          0 0 0 0 0 0
          0 0 0 0 0 0
          0 0 0 0 0 0
        </DataArray>
        <DataArray type="Float64" Name="Error" format="ascii" RangeMin="0.0014387155338108039" RangeMax="0.18170801143434984">
          0.024880842203232 0.006587865901761058 0.005442541007272116 0.07618333095035318 0.03161951052573791 0.030131905283746197
          0.048479127949160226 0.036405740903786454 0.013983248888956403 0.016988948435367742 0.004767349760949922 0.008205925487733903
          0.049892075522273795 0.1437197217077623 0.01724084960748278 0.043023323670773675 0.12317601946231643 0.06066920152270497
          0.009898356582577312 0.06893651283134865 0.1417541759330853 0.16784626389689516 0.09031944980971864 0.10428619042104521
          0.17017443117541042 0.16956001657815384 0.08425482581680992 0.18170801143434984 0.013084539566711175 0.05253982129049597
          0.0021304919886640443 0.014522315975061996 0.106945298167692 0.06056138701628773 0.09680755448206399 0.09335932753157936
          0.048723041682308954 0.01701747556558263 0.0014387155338108039 0.016038038314779082 0.1051038253875825 0.10076895230482803
          0.05571090056959266 0.1047117256562097 0.05769638645442224 0.008925956001819058 0.07213443315946445 0.04833366635520224
          0.08665846070242839 0.007602482706912076 0.031716881343980104 0.02572442546144973 0.08243648153175906 0.04989453976893827
          0.07461245105540024 0.07619510637469395 0.029422419478373634 0.06442657237235298 0.09406782191928248 0.05665535091004345
          0.05500279563444774 0.08120490468997736 0.07336159962321644 0.06760733458810238 0.025841352320105565 0.01462229774959635
          0.041537974576385604 0.029783285013826283 0.08050153649014347 0.09226770997098625 0.0387561244689917 0.05354327718298039
          0.03145348628685523 0.08776124492492056 0.07114320851474311 0.07795413475678428 0.02936478977853794 0.08358049108511911
          0.06943344963735898 0.07634140063865369 0.038833269892240736 0.011348858271728742 0.04722028815857446 0.04509727284900834
          0.0711457601545279 0.06252528472567744 0.021301284720184416 0.07157689669288644 0.012821842616419762 0.017502272988471484
          0.05765309080470702 0.01439750045172936 0.07978900402258789 0.023943478116838165 0.038642046258962434 0.030596078481419667
        </DataArray>
      </CellData>
      <Points>
        <DataArray type="Float32" Name="Points" NumberOfComponents="3" format="ascii" RangeMin="0" RangeMax="1.8340955055050197">
          0 1 0 0 0.5 0
          0.512499988079071 1 0 0.512499988079071 0.5 0
          0 0 0 1.024999976158142 1 0
          0.512499988079071 0 0 1.024999976158142 0.5 0
          1.024999976158142 0 0 0.2562499940395355 1 0
          0 0.75 0 0.2562499940395355 0.5 0
          0.2562499940395355 0.75 0 0.512499988079071 0.75 0
          0.768750011920929 1 0 0.768750011920929 0.5 0
          0.768750011920929 0.75 0 1.024999976158142 0.75 0
          1.28125 1 0 1.28125 0.5 0
          1.28125 0.75 0 0.512499988079071 0.25 0
          0.2562499940395355 0.25 0 0.2562499940395355 0 0
          0.768750011920929 0 0 0.768750011920929 0.25 0
          1.024999976158142 0.25 0 1.28125 0 0
          1.28125 0.25 0 0.3843750059604645 1 0
          0.2562499940395355 0.875 0 0.12812499701976776 1 0
          0.12812499701976776 0.875 0 0 0.875 0
          0.12812499701976776 0.75 0 0.3843750059604645 0.5 0
          0.3843750059604645 0.625 0 0.2562499940395355 0.625 0
          0.3843750059604645 0.875 0 0.3843750059604645 0.75 0
          0.512499988079071 0.625 0 0.512499988079071 0.875 0
          0.640625 0.875 0 0.640625 0.75 0
          0.8968750238418579 1 0 0.768750011920929 0.875 0
          0.640625 1 0 0.8968750238418579 0.5 0
          0.8968750238418579 0.625 0 0.640625 0.5 0
          0.768750011920929 0.625 0 0.640625 0.625 0
          0.8968750238418579 0.75 0 0.8968750238418579 0.875 0
          1.024999976158142 0.625 0 1.1531250476837158 0.75 0
          1.4093749523162842 0.5 0 1.4093749523162842 0.625 0
          1.1531250476837158 0.5 0 1.28125 0.625 0
          1.1531250476837158 0.625 0 1.4093749523162842 0.75 0
          1.537500023841858 0 0 1.537500023841858 0.5 0
          1.537500023841858 1 0 1.537500023841858 0.75 0
          1.537500023841858 0.25 0 1.537500023841858 0.625 0
          <InformationKey name="L2_NORM_RANGE" location="vtkDataArray" length="2">
            <Value index="0">
              0
            </Value>
            <Value index="1">
              1.8340955055
            </Value>
          </InformationKey>
        </DataArray>
      </Points>
      <Cells>
        <DataArray type="Int64" Name="connectivity" format="ascii" RangeMin="0" RangeMax="67">
          3 1 4 1 11 12
          1 12 10 5 16 17
          64 20 65 64 18 20
          5 17 18 18 17 20
          6 21 23 3 22 21
          4 23 22 21 22 23
          8 26 24 7 25 26
          6 24 25 26 25 24
          7 15 25 3 21 15
          6 25 21 15 21 25
          62 66 27 63 28 66
          8 27 28 66 28 27
          63 19 28 7 26 19
          8 28 26 19 26 28
          3 40 35 13 36 40
          11 35 36 40 36 35
          2 38 41 12 39 38
          13 41 39 38 39 41
          13 39 36 12 37 39
          11 36 37 39 37 36
          2 29 38 9 30 29
          12 38 30 29 30 38
          0 33 31 10 32 33
          9 31 32 33 32 31
          9 32 30 10 34 32
          12 30 34 32 34 30
          7 54 47 17 48 54
          15 47 48 54 48 47
          3 49 51 15 50 49
          16 51 50 49 50 51
          17 52 48 16 50 52
          15 48 50 52 50 48
          5 44 53 14 45 44
          16 53 45 44 45 53
          2 41 46 13 42 41
          14 46 42 41 42 46
          3 51 40 16 43 51
          13 40 43 51 43 40
          14 42 45 13 43 42
          16 45 43 42 43 45
          63 67 56 65 57 67
          19 56 57 67 57 56
          7 58 60 19 59 58
          20 60 59 58 59 60
          65 61 57 20 59 61
          19 57 59 61 59 57
          7 60 54 20 55 60
          17 54 55 60 55 54
        </DataArray>
        <DataArray type="Int64" Name="offsets" format="ascii" RangeMin="3" RangeMax="288">
          3 6 9 12 15 18
          21 24 27 30 33 36
          39 42 45 48 51 54
          57 60 63 66 69 72
          75 78 81 84 87 90
          93 96 99 102 105 108
          111 114 117 120 123 126
          129 132 135 138 141 144
          147 150 153 156 159 162
          165 168 171 174 177 180
          183 186 189 192 195 198
          201 204 207 210 213 216
          219 222 225 228 231 234
          237 240 243 246 249 252
          255 258 261 264 267 270
          273 276 279 282 285 288
        </DataArray>
        <DataArray type="UInt8" Name="types" format="ascii" RangeMin="5" RangeMax="5">
          5 5 5 5 5 5
          5 5 5 5 5 5
          5 5 5 5 5 5
          5 5 5 5 5 5
          5 5 5 5 5 5
          5 5 5 5 5 5
          5 5 5 5 5 5
          5 5 5 5 5 5
          5 5 5 5 5 5
          5 5 5 5 5 5
          5 5 5 5 5 5
          5 5 5 5 5 5
          5 5 5 5 5 5
          5 5 5 5 5 5
          5 5 5 5 5 5
          5 5 5 5 5 5
        </DataArray>
      </Cells>
    </Piece>
  </UnstructuredGrid>
</VTKFile>
