<?xml version="1.0"?>
<VTKFile type="UnstructuredGrid" version="0.1" byte_order="LittleEndian" header_type="UInt32" compressor="vtkZLibDataCompressor">
  <UnstructuredGrid>
    <Piece NumberOfPoints="30" NumberOfCells="40">
      <PointData>
        <DataArray type="Float64" Name="Velocity" NumberOfComponents="3" format="ascii" RangeMin="2.6677841329462924" RangeMax="2.832446551896563">
          2.6193 -0.5063 0 2.6922341237992793 -0.46937909691201474 0
          2.781095286717769 0 0 2.6193 -0.5063 0
          2.6916234196475415 -0.4143152327465183 0 2.805161040204468 0 0
          2.6193 -0.5063 0 2.697486467669242 -0.377064508588467 0
          2.83243518932354 -0.008022944126120557 0 2.6371400775189473 -0.579089669163742 0
          2.6193 -0.5063 0 2.6925018760273614 -0.44150564525186275 0
          2.6349818958961757 -0.5786168039218466 0 2.6307139284319576 -0.5712376830252357 0
          2.6193 -0.5063 0 2.6945934886434384 -0.3935097685240335 0
          2.6274189485860817 -0.5618567593874396 0 2.6189018447966568 -0.5467333725131729 0
          2.72915106364753 -0.26061422686035035 0 2.793184458420126 0 0
          2.738139930387016 -0.23750961642436702 0 2.7485731284831556 -0.2237557697664692 0
          2.8191086750754564 -0.0034551978775000164 0 2.7590566271367094 -0.21149280355083808 0
          2.768908026211002 -0.20694655470506626 0 2.6383146624768883 -0.5769752101338074 0
          2.6193 -0.5063 0 2.6932997125672586 -0.4967823017064822 0
          2.722878158591999 -0.2877067875035521 0 2.772584232937227 0 0
          <InformationKey name="L2_NORM_RANGE" location="vtkDataArray" length="2">
            <Value index="0">
              2.6677841329
            </Value>
            <Value index="1">
              2.8324465519
            </Value>
          </InformationKey>
        </DataArray>
        <DataArray type="Float64" Name="Pressure" format="ascii" RangeMin="1.4002252294850437" RangeMax="1.787088977842513">
          1.5457895999999907 1.5049901287556775 1.7549280256450495 1.5457895999999907 1.6006706754600355 1.787088977842513
          1.5457895999999924 1.6634489275041036 1.7679073539662709 1.4012320277443888 1.5457895999999915 1.5526279989861225
          1.4002252294850437 1.413975114973614 1.5457895999999902 1.635607584813074 1.429244356255012 1.4636231756422091
          1.683751219660621 1.7760637027428765 1.7223914144157648 1.7448539136809242 1.7807588326731816 1.757883966796866
          1.762270400366534 1.4062908787962838 1.5457895999999902 1.459760453854029 1.6231281293406128 1.7072737905962043
        </DataArray>
        <DataArray type="Float64" Name="Temperature" format="ascii" RangeMin="0.003036277361111055" RangeMax="0.0033667910966802246">
          0.003114 0.0031756737491718656 0.003228100126160838 0.003114 0.0032383426985761574 0.0032768111789578712
          0.003114 0.0032828219514101902 0.003287571092898397 0.0030387550897536036 0.003114 0.0032074886030124994
          0.003036277361111055 0.0030429523383273126 0.003114 0.003262975102402342 0.0030507103898665526 0.00306914544748605
          0.0032937266328472033 0.0032558249452557097 0.0033240068128380356 0.003344509963342003 0.0032856326182436496 0.0033585292281559727
          0.0033667910966802246 0.0030434999690653218 0.003114 0.0031465902196109847 0.0032481544355338174 0.0031825018808211386
        </DataArray>
        <DataArray type="Float64" Name="Density" format="ascii" RangeMin="1.5791795255969547" RangeMax="1.868162460565752">
          1.6999999999999906 1.6229865504143508 1.8617847186275103 1.6999999999999913 1.6927636753738247 1.8677205972801212
          1.6999999999999913 1.7353188770911514 1.8416262549238904 1.5791795255969547 1.6999999999999909 1.6577515410704915
          1.5793326206678857 1.5913428776848255 1.699999999999991 1.7166529509455806 1.604436943338378 1.633160833047738
          1.7506830235097732 1.868162460565752 1.7745453202799972 1.786667454168967 1.8561080502817517 1.7924961083419113
          1.7925592740060035 1.5824099564196725 1.699999999999991 1.5887609404393472 1.711328105703306 1.837179762633297
        </DataArray>
        <DataArray type="Float64" Name="Momentum" NumberOfComponents="3" format="ascii" RangeMin="4.260665633654007" RangeMax="5.2392570534776155">
          4.452809999999978 -0.8607099999999958 0 4.369459773492794 -0.7617959613338341 0
          5.177800705858137 0 0 4.452809999999979 -0.8607099999999956 0
          4.556282352564835 -0.7013377761473579 0 5.2392570534776155 0 0
          4.452809999999977 -0.8607099999999956 0 4.680999188044366 -0.6543271596346654 0
          5.216287010028552 -0.014775264544451027 0 4.164517616549087 -0.9144865490280957 0
          4.452809999999977 -0.8607099999999954 0 4.463499134319548 -0.7319066638075972 0
          4.1615128630581415 -0.913828393300366 0 4.186367873236463 -0.9090350183473908 0
          4.452809999999978 -0.8607099999999956 0 4.625681863878505 -0.6755197053626945 0
          4.215528026738788 -0.9014637416255902 0 4.277087918518366 -0.8929035301086127 0
          4.777878435721371 -0.4562529026495401 0 5.21812235065616 0 0
          4.858953399740077 -0.42147157834735766 0 4.910786154064233 -0.39977715152427507 0
          5.232570306426678 -0.006413220595744202 0 4.945598266837512 -0.3791000273071976 0
          4.963431761254189 -0.37096396586015723 0 4.174895390071436 -0.9130113171230696 0
          4.452809999999979 -0.8607099999999954 0 4.279009384223381 -0.7892683168528142 0
          4.659737921204152 -0.4923607116564374 0 5.093735642948436 0 0
          <InformationKey name="L2_NORM_RANGE" location="vtkDataArray" length="2">
            <Value index="0">
              4.2606656337
            </Value>
            <Value index="1">
              5.2392570535
            </Value>
          </InformationKey>
        </DataArray>
        <DataArray type="Float64" Name="Energy" format="ascii" RangeMin="9.190153330111912" RangeMax="11.754318463215007">
          9.850459752999951 9.761216315052108 11.515178303604596 9.850459752999951 10.21308130731171 11.742760314834166
          9.850459752999951 10.527089160843383 11.734571371009366 9.201488203141789 9.85045975299995 9.988323725705186
          9.190153330111912 9.243034886731657 9.85045975299995 10.386880128888754 9.3056006773645 9.443635840731611
          10.71941179970125 11.65475946356013 10.937494265540357 11.083982112513775 11.754318463215007 11.185149410575129
          11.243281807639306 9.2286707303919 9.850459752999951 9.547785616853023 10.405893492151858 11.259428105085268
        </DataArray>
        <DataArray type="Float64" Name="TimeAveraDensf" format="ascii" RangeMin="1.5051253200362567" RangeMax="1.7000000000000395">
          1.7000000000000393 1.52861292874376 1.6064704189494945 1.7000000000000395 1.569373530913219 1.617971638715219
          1.7000000000000395 1.5928797823565861 1.6017195078644055 1.5667347289932656 1.7000000000000393 1.5489521412721852
          1.5665914735070017 1.5758030782855876 1.7000000000000393 1.5819950580258888 1.5846367517597737 1.605545523364673
          1.5703006177929542 1.6133548137238476 1.5870146029955723 1.59580905109141 1.610322596568013 1.6024252864017838
          1.598658506109779 1.5690244151286645 1.7000000000000393 1.5051253200362567 1.5406662751798423 1.5817405490452305
        </DataArray>
        <DataArray type="Float64" Name="TimeAveraVeloc" NumberOfComponents="3" format="ascii" RangeMin="2.6677841329462924" RangeMax="2.854862524816778">
          2.6193 -0.5063 0 2.7277276404832156 -0.43661689089036726 0
          2.8187310646331865 0 0 2.6193 -0.5063 0
          2.73223757881733 -0.3974352053176174 0 2.8348566122257854 0 0
          2.6193 -0.5063 0 2.7401832214129094 -0.36783270174155847 0
          2.8548379362578222 -0.011848768138747188 0 2.6479205071184517 -0.5576200937297799 0
          2.6193 -0.5063 0 2.7301939071592614 -0.4168206563037002 0
          2.6458716458920457 -0.5552155816106203 0 2.6418116010800907 -0.5490587127437562 0
          2.6193 -0.5063 0 2.7362370867856636 -0.38186922861246675 0
          2.638997326309436 -0.5422316362776265 0 2.6316857940016534 -0.5321192033169566 0
          2.770731010481507 -0.22692859506578256 0 2.8268125569247347 0 0
          2.776076376973667 -0.20880986986630257 0 2.7836072456458703 -0.20423661290239004 0
          2.844950537869965 -0.0057394187388565936 0 2.7900911550403276 -0.191550905362684 0
          2.7988230516210004 -0.19462978317370017 0 2.649411339899139 -0.558678723058859 0
          2.6193 -0.5063 0 2.725829071448186 -0.455098416991946 0
          2.767650234547135 -0.235937074272623 0 2.8149060874947787 0 0
          <InformationKey name="L2_NORM_RANGE" location="vtkDataArray" length="2">
            <Value index="0">
              2.6677841329
            </Value>
            <Value index="1">
              2.8548625248
            </Value>
          </InformationKey>
        </DataArray>
        <DataArray type="Float64" Name="TimeAveraPress" format="ascii" RangeMin="1.365184272253124" RangeMax="1.5457896000000364">
          1.545789600000035 1.3974695601586191 1.4347575560697865 1.545789600000035 1.4550174101815592 1.4656772155008106
          1.5457896000000357 1.4920670313009492 1.4546579784520306 1.3950204072108081 1.5457896000000364 1.4262283047353546
          1.3937578853843307 1.4040592871521966 1.5457896000000353 1.4747602299825422 1.4139544179117947 1.4381995408572494
          1.433999848126669 1.45189827795664 1.4597146781402843 1.4772965783292926 1.461251793083755 1.4897168597265549
          1.488854779955849 1.3988235062847891 1.5457896000000342 1.365184272253124 1.3879697831966464 1.3930397325917774
        </DataArray>
        <DataArray type="Float64" Name="TimeAveraTempe" format="ascii" RangeMin="0.0030010660523891084" RangeMax="0.003204419830470663">
          0.003114 0.00312942561606563 0.0030440289688375586 0.003114 0.003172534297200275 0.0030877696207470477
          0.003114 0.003204419830470663 0.0030959241027623606 0.0030493565895205665 0.003114 0.003151357085523085
          0.003046876480347616 0.0030514523557417157 0.003114 0.0031893989091713367 0.0030558170595708914 0.003067693094035171
          0.003117264678536836 0.0030670196098336387 0.00313846845822105 0.0031590578403550896 0.0030929911803847638 0.0031722672752262982
          0.0031773027733973135 0.0030532069092591165 0.003114 0.003105096844591187 0.0030743104232521094 0.0030010660523891084
        </DataArray>
      </PointData>
      <CellData>
        <DataArray type="UInt8" Name="vtkGhostType" format="ascii" RangeMin="0" RangeMax="1">
          1 1 1 1 0 0
          0 0 0 0 0 0
          0 0 0 0 0 0
          0 0 1 1 1 1
          0 0 0 0 0 0
          0 0 0 0 0 0
          0 0 0 0
        </DataArray>
        <DataArray type="Float64" Name="Error" format="ascii" RangeMin="0.040509747297601574" RangeMax="0.1668267607374444">
          0.07136381419473094 0.07707472812869552 0.040509747297601574 0.07069828418380406 0.11420510158605393 0.07141960441904616
          0.09136425140949614 0.0883533731806465 0.07402515860221252 0.07702790994550339 0.06713152013669209 0.07777667645151598
          0.1241458704086565 0.04955192003894955 0.11845240273909317 0.11804491705808064 0.06018907827173147 0.07112443869961298
          0.11169494324821766 0.06370565094292516 0.1608071879924703 0.13765993251808437 0.1668267607374444 0.12288555687613593
          0.13600929406841006 0.1230893903072233 0.13878673384300252 0.13911456018006071 0.12792511403030293 0.13633604324231863
          0.1609532983735498 0.1339706224131171 0.11482768068361861 0.10520311502616654 0.11761433613707088 0.11768977284434225
          0.10998612730801444 0.12370814521499156 0.1362969146719214 0.1150217154321181
        </DataArray>
      </CellData>
      <Points>
        <DataArray type="Float32" Name="Points" NumberOfComponents="3" format="ascii" RangeMin="2.8187499046325684" RangeMax="4.2201894765504395">
          3.075000047683716 1 0 3.075000047683716 0.5 0
          3.075000047683716 0 0 3.5875000953674316 1 0
          3.5875000953674316 0.5 0 3.5875000953674316 0 0
          4.099999904632568 1 0 4.099999904632568 0.5 0
          4.099999904632568 0 0 3.075000047683716 0.75 0
          3.331249952316284 1 0 3.331249952316284 0.5 0
          3.331249952316284 0.75 0 3.5875000953674316 0.75 0
          3.84375 1 0 3.84375 0.5 0
          3.84375 0.75 0 4.099999904632568 0.75 0
          3.075000047683716 0.25 0 3.331249952316284 0 0
          3.331249952316284 0.25 0 3.5875000953674316 0.25 0
          3.84375 0 0 3.84375 0.25 0
          4.099999904632568 0.25 0 2.8187499046325684 0.75 0
          2.8187499046325684 1 0 2.8187499046325684 0.5 0
          2.8187499046325684 0.25 0 2.8187499046325684 0 0
          <InformationKey name="L2_NORM_RANGE" location="vtkDataArray" length="2">
            <Value index="0">
              2.8187499046
            </Value>
            <Value index="1">
              4.2201894766
            </Value>
          </InformationKey>
        </DataArray>
      </Points>
      <Cells>
        <DataArray type="Int64" Name="connectivity" format="ascii" RangeMin="0" RangeMax="29">
          1 9 27 0 25 9
          9 25 27 0 26 25
          4 13 11 3 12 13
          1 11 12 13 12 11
          3 10 12 0 9 10
          1 12 9 10 9 12
          7 17 15 6 16 17
          4 15 16 17 16 15
          6 14 16 3 13 14
          4 16 13 14 13 16
          2 18 29 1 28 18
          18 28 29 1 27 28
          5 21 19 4 20 21
          2 19 20 21 20 19
          4 11 20 1 18 11
          2 20 18 11 18 20
          8 24 22 7 23 24
          5 22 23 24 23 22
          7 15 23 4 21 15
          5 23 21 15 21 23
        </DataArray>
        <DataArray type="Int64" Name="offsets" format="ascii" RangeMin="3" RangeMax="120">
          3 6 9 12 15 18
          21 24 27 30 33 36
          39 42 45 48 51 54
          57 60 63 66 69 72
          75 78 81 84 87 90
          93 96 99 102 105 108
          111 114 117 120
        </DataArray>
        <DataArray type="UInt8" Name="types" format="ascii" RangeMin="5" RangeMax="5">
          5 5 5 5 5 5
          5 5 5 5 5 5
          5 5 5 5 5 5
          5 5 5 5 5 5
          5 5 5 5 5 5
          5 5 5 5 5 5
          5 5 5 5
        </DataArray>
      </Cells>
    </Piece>
  </UnstructuredGrid>
</VTKFile>
