<?xml version="1.0"?>
<VTKFile type="UnstructuredGrid" version="0.1" byte_order="LittleEndian" header_type="UInt32" compressor="vtkZLibDataCompressor">
  <UnstructuredGrid>
    <Piece NumberOfPoints="55" NumberOfCells="76">
      <PointData>
        <DataArray type="Float64" Name="Velocity" NumberOfComponents="3" format="ascii" RangeMin="2.6677841329462924" RangeMax="2.9309375386978025">
          2.6193 -0.5063 0 2.6855736755171997 -0.46898610554848336 0
          2.885369431492059 0 0 2.6193 -0.5063 0
          2.6840888103927614 -0.5321851570061689 0 2.796517652560376 0 0
          2.6193 -0.5063 0 2.692228527591109 -0.5186622459076273 0
          2.768303728501542 0 0 2.624876606715559 -0.513071201091438 0
          2.6193 -0.5063 0 2.678968398767674 -0.5109906672210468 0
          2.6295040526663045 -0.5297204064328311 0 2.633179705826513 -0.5445006164733317 0
          2.6193 -0.5063 0 2.689203969497328 -0.5300966292691164 0
          2.6355114354299274 -0.5596301893881888 0 2.637027119439466 -0.5682168243599999 0
          2.6193 -0.5063 0 2.6932997125672586 -0.4967823017064822 0
          2.6383146624768883 -0.5769752101338074 0 2.787392209095018 -0.29169079550850524 0
          2.8389239160260753 0 0 2.755136946006503 -0.3527264041247733 0
          2.731953595617013 -0.36796144346664333 0 2.776864495142875 0 0
          2.7238497932274126 -0.35188739014690934 0 2.7200733247795887 -0.3224766232876906 0
          2.772584232937227 0 0 2.722878158591999 -0.2877067875035521 0
          2.637234302639844 -0.5242556765876515 0 2.627181161767465 -0.5213628182573916 0
          2.6815325294571655 -0.5216041580271139 0 2.65230417416187 -0.5390950724499871 0
          2.682229439908577 -0.49025291331396725 0 2.647191704989521 -0.5368221479529357 0
          2.642809531058843 -0.531846423555214 0 2.63133396331016 -0.5370786805932798 0
          2.653398307547982 -0.5401174551586884 0 2.63433949405699 -0.5520259747194629 0
          2.65928745162696 -0.5461973199722878 0 2.781095286717769 0 0
          2.6922341237992793 -0.46937909691201474 0 2.6193 -0.5063 0
          2.6218086404504217 -0.4952375003996034 0 2.6193 -0.5063 0
          2.7129646895292727 -0.3810550855896425 0 2.6371400775189473 -0.579089669163742 0
          2.838411593754717 -0.20234137981026543 0 2.9309375386978025 0 0
          2.635976301377314 -0.510043489007237 0 2.6233411686770545 -0.5041458935609413 0
          2.72915106364753 -0.26061422686035035 0 2.6988957059079204 -0.426219535473259 0
          2.63567247512874 -0.4925240216472513 0
          <InformationKey name="L2_NORM_RANGE" location="vtkDataArray" length="2">
            <Value index="0">
              2.6677841329
            </Value>
            <Value index="1">
              2.9309375387
            </Value>
          </InformationKey>
        </DataArray>
        <DataArray type="Float64" Name="Pressure" format="ascii" RangeMin="0.7465745031302695" RangeMax="1.7549280256450495">
          1.5457895999999922 1.3313358598639846 0.9051619313844926 1.545789599999991 1.3945042813946573 1.3281489267935926
          1.5457895999999929 1.4237536072100525 1.6308590672975458 1.4993534752752993 1.5457895999999902 1.3850047924259976
          1.4819746281696622 1.463972063650206 1.5457895999999902 1.4059517124137244 1.440244496931499 1.4245694393763795
          1.5457895999999902 1.459760453854029 1.4062908787962838 1.0424501650359697 1.1077313144018215 1.1789385990906267
          1.3201911240293878 1.4995779037548362 1.4347104601910563 1.5422993058940837 1.7072737905962043 1.6231281293406128
          1.463335760414085 1.4906890298616293 1.3897917375343876 1.4340364684584033 1.3583098022134474 1.4446018056196759
          1.452266826395796 1.4729925895483398 1.4329571463376751 1.4521275367639 1.4176234949475222 1.7549280256450495
          1.5049901287556775 1.5457895999999907 1.5042135913776757 1.5457895999999915 1.2255931312488155 1.4012320277443888
          0.8924312690583398 0.7465745031302695 1.45403008797423 1.5018110592634215 1.683751219660621 1.2790930742568178
          1.4398592782163564
        </DataArray>
        <DataArray type="Float64" Name="Temperature" format="ascii" RangeMin="0.0023916355004986105" RangeMax="0.0032937266328472033">
          0.003114 0.0030423618479763674 0.002533771274404769 0.003114 0.003097925173503801 0.002888906895346895
          0.003114 0.003121890549395653 0.0031193528291945344 0.0031081972237310376 0.003114 0.0030862700436251563
          0.0030966137031137506 0.003085462590064775 0.003114 0.0031094784338776805 0.0030672622488958365 0.003056303334602638
          0.003114 0.0031465902196109847 0.0030434999690653218 0.0027859619501938828 0.002711551170606916 0.0029086616648915866
          0.0030218203831902197 0.0030195134984861045 0.0031096445926981956 0.0031892711698148935 0.0031825018808211386 0.0032481544355338174
          0.0031054851530506493 0.003102480398243976 0.003092189311190869 0.0030888223491915335 0.0030649071765502505 0.0030953209382162355
          0.00309973905202429 0.0030911025449125223 0.0030880220198131656 0.0030764506466331764 0.003082811817571709 0.003228100126160838
          0.0031756737491718656 0.003114 0.0031123629213186846 0.003114 0.002957752693956735 0.0030387550897536036
          0.0026381692647674364 0.0023916355004986105 0.0030978110684963234 0.003110339055837053 0.0032937266328472033 0.003002686513338676
          0.0030863159144577
        </DataArray>
        <DataArray type="Float64" Name="Density" format="ascii" RangeMin="1.0690433372846466" RangeMax="1.8617847186275103">
          1.699999999999991 1.4986282404666988 1.223421253268925 1.699999999999991 1.5415800338443715 1.5744554579004562
          1.699999999999991 1.5618319863220491 1.7904783773873545 1.6520097683623272 1.6999999999999909 1.5368606862988394
          1.6389695527150057 1.6249112771128855 1.6999999999999913 1.5484600479123125 1.6080607940678007 1.5962625202750143
          1.699999999999991 1.5887609404393472 1.5824099564196725 1.2814370316574393 1.399051743116451 1.3880820187934455
          1.4961850494831659 1.7007841723040797 1.5800493723600708 1.6561297728408582 1.837179762633297 1.711328105703306
          1.6137329885836371 1.6454896605386664 1.5392203600716055 1.5899534647487403 1.517744463382769 1.5983048466866343
          1.6044952317856442 1.6319404149139456 1.5891685538416926 1.6164860355903432 1.5748204139560862 1.8617847186275103
          1.6229865504143508 1.6999999999999906 1.6551464398775966 1.699999999999991 1.4190627767588142 1.5791795255969547
          1.1584819481426627 1.0690433372846466 1.6074431221589096 1.653578104119962 1.7506830235097732 1.4588455086127565
          1.5977058285897854
        </DataArray>
        <DataArray type="Float64" Name="Momentum" NumberOfComponents="3" format="ascii" RangeMin="3.1332992477423467" RangeMax="5.177800705858137">
          4.452809999999977 -0.8607099999999954 0 4.024676551984026 -0.7028358221614531 0
          3.5300222860198605 0 0 4.452809999999978 -0.8607099999999958 0
          4.137737719166572 -0.8204060123490419 0 4.402992481188655 0 0
          4.452809999999977 -0.8607099999999954 0 4.2048086288805075 -0.8100632857561647 0
          4.956587967922805 0 0 4.336321795039862 -0.8475986360684475 0
          4.452809999999978 -0.8607099999999954 0 4.11720121190299 -0.7853214675176399 0
          4.309677081060788 -0.8681956175952282 0 4.278683398662292 -0.8847651921024349 0
          4.452809999999978 -0.8607099999999954 0 4.164124907453814 -0.8208334519562114 0
          4.238062611632218 -0.8999193667318844 0 4.209387555710003 -0.9070232201155585 0
          4.452809999999979 -0.8607099999999954 0 4.279009384223381 -0.7892683168528142 0
          4.174895390071436 -0.9130113171230696 0 3.571867598487792 -0.3737833871582161 0
          3.971801453291262 0 0 3.824356054065115 -0.48961317911926805 0
          4.087508125643954 -0.5505384105010369 0 4.722847181972161 0 0
          4.303817156192082 -0.5559994499430475 0 4.504794417477698 -0.5340631368719301 0
          5.093735642948436 0 0 4.659737921204152 -0.4923607116564374 0
          4.25579199279428 -0.8460086797617276 0 4.322999438050325 -0.8578971268318378 0
          4.127469465534781 -0.8028637399333409 0 4.2170402112762115 -0.8571360782708302 0
          4.070938881943508 -0.7440786448395464 0 4.231019332193406 -0.8580054408819067 0
          4.240375291101568 -0.853345050636589 0 4.294180239861539 -0.8764804048488315 0
          4.2166971511720215 -0.8583376751191881 0 4.258373005147255 -0.8923422794171596 0
          4.187900165399395 -0.8601626895404632 0 5.177800705858137 0 0
          4.369459773492794 -0.7617959613338341 0 4.452809999999978 -0.8607099999999958 0
          4.339477237281837 -0.8196905856802834 0 4.452809999999977 -0.8607099999999956 0
          3.849867205572024 -0.5407410878549057 0 4.164517616549087 -0.9144865490280957 0
          3.2882485927636846 -0.23440883587247072 0 3.1332992477423467 0 0
          4.237181975822844 -0.8198658984066164 0 4.337899516160849 -0.8336446108743655 0
          4.777878435721371 -0.4562529026495401 0 3.937271878778025 -0.6217884550081794 0
          4.211029275766854 -0.786908500106295 0
          <InformationKey name="L2_NORM_RANGE" location="vtkDataArray" length="2">
            <Value index="0">
              3.1332992477
            </Value>
            <Value index="1">
              5.1778007059
            </Value>
          </InformationKey>
        </DataArray>
        <DataArray type="Float64" Name="Energy" format="ascii" RangeMin="6.427507306452231" RangeMax="11.515178303604596">
          9.850459752999951 8.84272003484036 7.318415591208593 9.850459752999951 9.200284015783756 9.42231395310638
          9.850459752999953 9.371101089236502 10.870796538861779 9.595360466702074 9.85045975299995 9.121165915259766
          9.540140646387163 9.47391566640718 9.850459752999948 9.273751581878262 9.377965373649362 9.3107071460741
          9.850459752999951 9.547785616853023 9.2286707303919 7.595897539594643 8.361626149030952 8.253559043917729
          8.930953094908112 10.244671597993722 9.487115779807159 10.00516310427828 11.259428105085268 10.405893492151858
          9.431725055543081 9.567750556544619 9.160724965521762 9.349633761188553 8.981942975050064 9.382595118339077
          9.401161241559084 9.507028156397173 9.349594338551915 9.42594052002827 9.289124694716559 11.515178303604596
          9.761216315052108 9.850459752999951 9.590327197786676 9.85045975299995 8.338918951915824 9.201488203141789
          6.88481968308243 6.427507306452231 9.368959826902692 9.592843832244375 10.71941179970125 8.590819493378092
          9.283708543056493
        </DataArray>
        <DataArray type="Float64" Name="TimeAveraDensf" format="ascii" RangeMin="1.0753847422670484" RangeMax="1.7000000000000395">
          1.7000000000000393 1.387559314748454 1.181318904759915 1.7000000000000393 1.4464984102937763 1.4062799458635977
          1.7000000000000393 1.484063904018299 1.5496634510187852 1.644140235331569 1.7000000000000393 1.4226005405372253
          1.6290443203463452 1.6156654659844518 1.7000000000000395 1.4642018504375693 1.5942472739471671 1.582421808699832
          1.7000000000000393 1.5051253200362567 1.5690244151286645 1.2579755987175307 1.2938371275147942 1.3157645065707373
          1.4058293436997544 1.484062322723839 1.4491306427647397 1.5102050791274388 1.5817405490452305 1.5406662751798423
          1.5286227123122322 1.6365922778389572 1.4345494754155006 1.522148009244433 1.4050799276428396 1.5292770924981258
          1.5201711161935347 1.6223548931653986 1.5330513461788553 1.6049563699658094 1.5203728421204716 1.6064704189494945
          1.52861292874376 1.7000000000000393 1.6368331409469852 1.7000000000000393 1.3241152672564316 1.5667347289932656
          1.1624897632266589 1.0753847422670484 1.508037317021911 1.640486688139277 1.5703006177929542 1.3558372910024425
          1.500624563453683
        </DataArray>
        <DataArray type="Float64" Name="TimeAveraVeloc" NumberOfComponents="3" format="ascii" RangeMin="2.6677841329462924" RangeMax="2.9304679375995537">
          2.6193 -0.5063 0 2.727392526323938 -0.4131266900249123 0
          2.8963121586317087 0 0 2.6193 -0.5063 0
          2.718431290962507 -0.4759477737811487 0 2.834693975558711 0 0
          2.6193 -0.5063 0 2.7231634626086514 -0.4719785948038668 0
          2.812487799680004 0 0 2.6300236943725785 -0.5196877975188864 0
          2.6193 -0.5063 0 2.7208587659302297 -0.44850900147743167 0
          2.6362066350711473 -0.5338495119825496 0 2.641090914786174 -0.5436890092319877 0
          2.6193 -0.5063 0 2.721161393966809 -0.4755212490055102 0
          2.645989834272321 -0.5519362113265338 0 2.6479981660625143 -0.5553781131799204 0
          2.6193 -0.5063 0 2.725829071448186 -0.455098416991946 0
          2.649411339899139 -0.558678723058859 0 2.8124909748381004 -0.22558202260759572 0
          2.8648315263328774 0 0 2.797532105127854 -0.266780282380469 0
          2.7737863168386925 -0.27184604699881154 0 2.8217467361384907 0 0
          2.7721045692608266 -0.2667649490449238 0 2.7644364477630634 -0.25698564891904274 0
          2.8149060874947787 0 0 2.767650234547135 -0.235937074272623 0
          2.6727260218899582 -0.4774554777190033 0 2.6331121163186864 -0.5267576868234881 0
          2.7196463334973315 -0.46223378951713473 0 2.6797213276599843 -0.4998727759827894 0
          2.724111814735462 -0.4309058029351661 0 2.6761903446292257 -0.49665452818510464 0
          2.6769019672122374 -0.4842923224364932 0 2.6386461428206056 -0.5387586766081245 0
          2.678020110120503 -0.5104084487888476 0 2.6435383540238293 -0.5477995001038767 0
          2.682040095577914 -0.5140383022746263 0 2.8187310646331865 0 0
          2.7277276404832156 -0.43661689089036726 0 2.6193 -0.5063 0
          2.628380852049784 -0.49719179949299 0 2.6193 -0.5063 0
          2.7517285037473562 -0.33819016361008275 0 2.6479205071184517 -0.5576200937297799 0
          2.848459344363235 -0.19587267309053905 0 2.9304679375995537 0 0
          2.6799218571725123 -0.4498804169185423 0 2.6292017894440676 -0.5084369864287619 0
          2.770731010481507 -0.22692859506578256 0 2.739436331265511 -0.37605708330993626 0
          2.679509472383001 -0.43577198335618983 0
          <InformationKey name="L2_NORM_RANGE" location="vtkDataArray" length="2">
            <Value index="0">
              2.6677841329
            </Value>
            <Value index="1">
              2.9304679376
            </Value>
          </InformationKey>
        </DataArray>
        <DataArray type="Float64" Name="TimeAveraPress" format="ascii" RangeMin="0.7555181827335388" RangeMax="1.5457896000000353">
          1.5457896000000342 1.2036815433467725 0.8683728398443269 1.545789600000035 1.2837566709681345 1.1433216926023781
          1.545789600000035 1.3358807599539366 1.3417588314929736 1.4946400336434116 1.5457896000000353 1.2512515755106355
          1.4756458398561565 1.459166750217038 1.5457896000000348 1.3087627365158212 1.4315119292155052 1.4163500582366044
          1.5457896000000342 1.365184272253124 1.3988235062847891 1.010823546307017 1.0028799312911536 1.0857425495894861
          1.199861326756829 1.2492149862855217 1.2591390978373285 1.3438050700215753 1.3930397325917774 1.3879697831966464
          1.3651181860883386 1.4851512421680173 1.2675164927253384 1.3583839577724877 1.2275129362654706 1.3671435625540596
          1.3548298841538533 1.4674126936904093 1.3726982972233817 1.445345742637698 1.3577171296297517 1.4347575560697865
          1.3974695601586191 1.545789600000035 1.485608631880048 1.5457896000000348 1.1209824222547182 1.3950204072108081
          0.9008179903152918 0.7555181827335388 1.3382545441858318 1.4901334853417973 1.433999848126669 1.1625409899236656
          1.32821893049698
        </DataArray>
        <DataArray type="Float64" Name="TimeAveraTempe" format="ascii" RangeMin="0.0024007283749017884" RangeMax="0.00312942561606563">
          0.003114 0.0029678549072020585 0.002517127686625582 0.003114 0.0030373756622470893 0.0027776584224595796
          0.003114 0.003081656692074508 0.002952267361479135 0.0031132685781519844 0.003114 0.0030090769218174703
          0.003102192594368672 0.0030929552058587928 0.003114 0.003059669363397671 0.0030751140195599425 0.0030652862629445663
          0.003114 0.003105096844591187 0.0030532069092591165 0.002741791498004008 0.0026474635746356685 0.0028081128382742688
          0.002916961700929614 0.002870078066160421 0.0029643200894509374 0.00303978849290409 0.0030010660523891084 0.0030743104232521094
          0.0030506053364898035 0.0031077555026494054 0.0030232567838419664 0.0030519989667198303 0.0029886625031594442 0.0030569245761901654
          0.003045082526651275 0.0030975953130382497 0.0030639445124629565 0.0030840639488980944 0.0030563173629047373 0.0030440289688375586
          0.00312942561606563 0.003114 0.003108235662664005 0.003114 0.002897113967389226 0.0030493565895205665
          0.0026235112208566583 0.0024007283749017884 0.003026749764540668 0.0031107717328007997 0.003117264678536836 0.0029333586800647537
          0.003019718519220953
        </DataArray>
      </PointData>
      <CellData>
        <DataArray type="UInt8" Name="vtkGhostType" format="ascii" RangeMin="0" RangeMax="1">
          1 1 0 0 0 0
          0 0 0 0 0 0
          0 0 0 0 0 0
          0 0 0 1 1 1
          1 0 0 0 0 0
          0 0 0 0 0 0
          0 0 0 0 0 0
          0 0 0 0 0 0
          0 1 1 1 1 0
          0 0 0 0 0 0
          0 0 0 0 0 0
          0 0 0 0 0 0
          0 1 1 1
        </DataArray>
        <DataArray type="Float64" Name="Error" format="ascii" RangeMin="0.00885096497867121" RangeMax="0.19996227150717738">
          0.03161951052573791 0.030131905283746197 0.04703994357019721 0.03583213201411795 0.030789553044942283 0.038622610144983215
          0.02768253907626568 0.06552211230317755 0.027821161876898478 0.02800896828269801 0.05457438458785483 0.04616980315745001
          0.0584036346185955 0.07136381419473094 0.07707472812869552 0.04458426137267549 0.040509747297601574 0.07069828418380406
          0.065083336008154 0.027027707891638466 0.07481714770353856 0.1417541759330853 0.16784626389689516 0.10428619042104521
          0.17017443117541042 0.19996227150717738 0.09994640351115015 0.16718734168410668 0.1438111701717382 0.10451516536091864
          0.15041188305407494 0.12176424065254629 0.1304453390033207 0.19325200090222044 0.1189433031771834 0.19073850792051117
          0.18090486434258707 0.0755549428208118 0.07241621030287324 0.1756434637907975 0.09622485138998912 0.1608071879924703
          0.13765993251808437 0.167458246894244 0.1668267607374444 0.12288555687613593 0.10887397908368068 0.18828016631871122
          0.1333130709827222 0.038833269892240736 0.011348858271728742 0.04509727284900834 0.012821842616419762 0.011795183130778538
          0.00885096497867121 0.01332388878388963 0.013092156217727476 0.026310623006354 0.019431951633633922 0.010502038391245791
          0.026511317905759304 0.010169422262318735 0.010656847846804625 0.017825945551066504 0.010597378951338823 0.035771010235601884
          0.010545550320824788 0.01079566584157287 0.011085309032634988 0.012083529840075172 0.010038385620762829 0.00927514055357269
          0.010825154389198286 0.04722028815857446 0.017502272988471484 0.01439750045172936
        </DataArray>
      </CellData>
      <Points>
        <DataArray type="Float32" Name="Points" NumberOfComponents="3" format="ascii" RangeMin="1.28125" RangeMax="3.2335159336633637">
          1.537500023841858 1 0 1.537500023841858 0.5 0
          1.537500023841858 0 0 2.049999952316284 1 0
          2.049999952316284 0.5 0 2.049999952316284 0 0
          2.5625 1 0 2.5625 0.5 0
          2.5625 0 0 1.537500023841858 0.75 0
          1.7937500476837158 1 0 1.7937500476837158 0.5 0
          1.7937500476837158 0.75 0 2.049999952316284 0.75 0
          2.3062500953674316 1 0 2.3062500953674316 0.5 0
          2.3062500953674316 0.75 0 2.5625 0.75 0
          2.8187499046325684 1 0 2.8187499046325684 0.5 0
          2.8187499046325684 0.75 0 1.537500023841858 0.25 0
          1.7937500476837158 0 0 1.7937500476837158 0.25 0
          2.049999952316284 0.25 0 2.3062500953674316 0 0
          2.3062500953674316 0.25 0 2.5625 0.25 0
          2.8187499046325684 0 0 2.8187499046325684 0.25 0
          1.537500023841858 0.625 0 1.665624976158142 0.75 0
          1.921875 0.5 0 1.921875 0.625 0
          1.665624976158142 0.5 0 1.7937500476837158 0.625 0
          1.665624976158142 0.625 0 1.921875 0.75 0
          2.049999952316284 0.625 0 2.1781249046325684 0.75 0
          2.1781249046325684 0.625 0 3.075000047683716 0 0
          3.075000047683716 0.5 0 3.075000047683716 1 0
          1.28125 0.75 0 1.28125 1 0
          1.28125 0.5 0 3.075000047683716 0.75 0
          1.28125 0.25 0 1.28125 0 0
          1.4093749523162842 0.625 0 1.4093749523162842 0.75 0
          3.075000047683716 0.25 0 1.4093749523162842 0.5 0
          1.28125 0.625 0
          <InformationKey name="L2_NORM_RANGE" location="vtkDataArray" length="2">
            <Value index="0">
              1.28125
            </Value>
            <Value index="1">
              3.2335159337
            </Value>
          </InformationKey>
        </DataArray>
      </Points>
      <Cells>
        <DataArray type="Int64" Name="connectivity" format="ascii" RangeMin="0" RangeMax="54">
          0 44 9 0 45 44
          3 12 13 3 10 12
          0 9 10 10 9 12
          7 17 15 6 16 17
          4 15 16 17 16 15
          6 14 16 3 13 14
          14 13 16 42 47 19
          43 20 47 7 19 20
          47 20 19 43 18 20
          6 17 18 7 20 17
          18 17 20 2 21 49
          1 48 21 21 48 49
          1 46 48 5 24 22
          4 23 24 2 22 23
          24 23 22 4 11 23
          1 21 11 2 23 21
          11 21 23 8 27 25
          7 26 27 5 25 26
          27 26 25 7 15 26
          4 24 15 5 26 24
          15 24 26 41 52 28
          42 29 52 8 28 29
          52 29 28 42 19 29
          7 27 19 8 29 27
          19 27 29 1 30 53
          9 50 30 30 50 53
          9 51 50 4 38 32
          13 33 38 11 32 33
          38 33 32 1 34 36
          11 35 34 12 36 35
          34 35 36 13 37 33
          12 35 37 11 33 35
          37 35 33 1 36 30
          12 31 36 9 30 31
          36 31 30 4 40 38
          16 39 40 13 38 39
          40 39 38 46 53 50
          44 54 51 51 54 50
        </DataArray>
        <DataArray type="Int64" Name="offsets" format="ascii" RangeMin="3" RangeMax="228">
          3 6 9 12 15 18
          21 24 27 30 33 36
          39 42 45 48 51 54
          57 60 63 66 69 72
          75 78 81 84 87 90
          93 96 99 102 105 108
          111 114 117 120 123 126
          129 132 135 138 141 144
          147 150 153 156 159 162
          165 168 171 174 177 180
          183 186 189 192 195 198
          201 204 207 210 213 216
          219 222 225 228
        </DataArray>
        <DataArray type="UInt8" Name="types" format="ascii" RangeMin="5" RangeMax="5">
          5 5 5 5 5 5
          5 5 5 5 5 5
          5 5 5 5 5 5
          5 5 5 5 5 5
          5 5 5 5 5 5
          5 5 5 5 5 5
          5 5 5 5 5 5
          5 5 5 5 5 5
          5 5 5 5 5 5
          5 5 5 5 5 5
          5 5 5 5 5 5
          5 5 5 5 5 5
          5 5 5 5
        </DataArray>
      </Cells>
    </Piece>
  </UnstructuredGrid>
</VTKFile>
