<?xml version="1.0"?>
<VTKFile type="UnstructuredGrid" version="0.1" byte_order="LittleEndian" header_type="UInt32" compressor="vtkZLibDataCompressor">
  <UnstructuredGrid>
    <Piece NumberOfPoints="44" NumberOfCells="69">
      <PointData>
        <DataArray type="Float64" Name="plcd_BC" NumberOfComponents="3" format="ascii" RangeMin="0" RangeMax="0">
          0 0 0 0 0 0
          0 0 0 0 0 0
          0 0 0 0 0 0
          0 0 0 0 0 0
          0 0 0 0 0 0
          0 0 0 0 0 0
          0 0 0 0 0 0
          0 0 0 0 0 0
          0 0 0 0 0 0
          0 0 0 0 0 0
          0 0 0 0 0 0
          0 0 0 0 0 0
          0 0 0 0 0 0
          0 0 0 0 0 0
          0 0 0 0 0 0
          0 0 0 0 0 0
          0 0 0 0 0 0
          0 0 0 0 0 0
          0 0 0 0 0 0
          0 0 0 0 0 0
          0 0 0 0 0 0
          0 0 0 0 0 0
          <InformationKey name="L2_NORM_RANGE" location="vtkDataArray" length="2">
            <Value index="0">
              0
            </Value>
            <Value index="1">
              0
            </Value>
          </InformationKey>
        </DataArray>
        <DataArray type="Float64" Name="plcd_FIXNO" NumberOfComponents="3" format="ascii" RangeMin="1.4142135623730951" RangeMax="1.4142135623730951">
          -1 -1 0 -1 -1 0
          -1 -1 0 -1 -1 0
          -1 -1 0 -1 -1 0
          -1 -1 0 -1 -1 0
          -1 -1 0 -1 -1 0
          -1 -1 0 -1 -1 0
          -1 -1 0 -1 -1 0
          -1 -1 0 -1 -1 0
          -1 -1 0 -1 -1 0
          -1 -1 0 -1 -1 0
          -1 -1 0 -1 -1 0
          -1 -1 0 -1 -1 0
          -1 -1 0 -1 -1 0
          -1 -1 0 -1 -1 0
          -1 -1 0 -1 -1 0
          -1 -1 0 -1 -1 0
          -1 -1 0 -1 -1 0
          -1 -1 0 -1 -1 0
          -1 -1 0 -1 -1 0
          -1 -1 0 -1 -1 0
          -1 -1 0 -1 -1 0
          -1 -1 0 -1 -1 0
          <InformationKey name="L2_NORM_RANGE" location="vtkDataArray" length="2">
            <Value index="0">
              1.4142135624
            </Value>
            <Value index="1">
              1.4142135624
            </Value>
          </InformationKey>
        </DataArray>
        <DataArray type="Float64" Name="proc" format="ascii" RangeMin="0" RangeMax="0">
          0 0 0 0 0 0
          0 0 0 0 0 0
          0 0 0 0 0 0
          0 0 0 0 0 0
          0 0 0 0 0 0
          0 0 0 0 0 0
          0 0 0 0 0 0
          0 0
        </DataArray>
        <DataArray type="Float64" Name="Displacement" NumberOfComponents="3" format="ascii" RangeMin="0" RangeMax="0.06819737088725233">
          0 0 0 -0.0025713463064912477 0.031771277360201834 0
          -0.013091121510252737 0 0 -0.007858897801394576 0.027290948380257907 0
          -0.00008550533396564405 0.04223795042776882 0 -0.013274263310208062 0.01943027931118594 0
          -0.003763461497145455 0.0354480742822876 0 -0.008109797172017753 0.027911210582884573 0
          0.0003702160891250711 0.04177066978321537 0 -0.004382861327726698 0.03322153561152411 0
          -0.0016004045487103126 0.037659065900481 0 -0.007863308174814008 0.02773652023992511 0
          0.003090668131553936 0.04683011191349873 0 -0.022348357929762343 0 0
          -0.0019157138619664226 0.03648952191247271 0 -0.0004148106433980482 0.03858065410998621 0
          0.0009774085894775717 0.041347132450573094 0 -0.015176776470740054 0.016771589273725147 0
          0.0032005502358737883 0.045368343555450406 0 -0.004013275620002525 0.03295576465721044 0
          -0.00046999051742328997 0.03882997570099106 0 0.0008638546590476292 0.04129340776824078 0
          0.002483171871353786 0.04361025425660687 0 -0.0008009021847305668 0.037939384437373706 0
          0.0010495240903870048 0.04092696807481107 0 -0.008106701984779164 0.025910721243387044 0
          0.006816034815915638 0.05132455812094412 0 0.005248649245775041 0.0479281231343736 0
          0.0013348334958800346 0.041040878792787276 0 0.003498508255878341 0.044750604636476024 0
          -0.0007640712290389344 0.03760734622638004 0 -0.003585846766120058 0.032792082399050376 0
          0.008373944615733308 0.052933624116454255 0 0.0016333079985875933 0.041936280951415314 0
          0.006650238740236148 0.05053093362666662 0 0.011094645732692946 0.05701361705227454 0
          0.003906035425649948 0.04606646992800339 0 -0.00020150270047071366 0.03911735153194738 0
          0.009889030414093024 0.05730534803515794 0 0.005735742239578019 0.05309722394788496 0
          0.002108087707796606 0.048866374787542875 0 0.01436791395746117 0.06666666666666667 0
          0.00922252324558025 0.06666666666666667 0 0.0018280385678591943 0.06666666666666667 0
          <InformationKey name="L2_NORM_RANGE" location="vtkDataArray" length="2">
            <Value index="0">
              0
            </Value>
            <Value index="1">
              0.068197370887
            </Value>
          </InformationKey>
        </DataArray>
        <DataArray type="Float64" Name="Pressure" format="ascii" RangeMin="-2019.9492370416629" RangeMax="-1389.8851745908976">
          -1425.4936092047653 -1493.086282947189 -1797.434757475178 -1884.914048204536 -1389.8851745908976 -2019.9492370416629
          -1762.1445171971986 -1975.9122425785038 -1585.6972430719154 -1936.6913635530564 -1791.0050535154824 -1903.1075459756107
          -1491.63954337022 -1879.0141529288135 -1919.8884257875766 -1903.714143594713 -1795.7652872766614 -1911.7069956457249
          -1612.135873859743 -1916.8207484603952 -1994.5180851786358 -1865.909877448209 -1712.6228148220457 -1952.9367204163004
          -1824.7571367063488 -1843.1745039871234 -1518.5159985459184 -1654.1215493246877 -1871.1845976535712 -1782.7385071443712
          -1933.6595375616334 -1924.0699809768626 -1662.778409771444 -1936.6700995960518 -1798.670480716771 -1557.4957473763
          -1865.0568286782388 -1989.4642626113634 -1792.889266973841 -1892.0482461669314 -1949.1331463919148 -1647.0350168330347
          -1852.5752513601867 -1831.5009894005216
        </DataArray>
      </PointData>
      <CellData>
        <DataArray type="UInt8" Name="vtkGhostType" format="ascii" RangeMin="0" RangeMax="0">
          0 0 0 0 0 0
          0 0 0 0 0 0
          0 0 0 0 0 0
          0 0 0 0 0 0
          0 0 0 0 0 0
          0 0 0 0 0 0
          0 0 0 0 0 0
          0 0 0 0 0 0
          0 0 0 0 0 0
          0 0 0 0 0 0
          0 0 0 0 0 0
          0 0 0
        </DataArray>
        <DataArray type="Float64" Name="Stress" NumberOfComponents="6" format="ascii" RangeMin="409.13442018513837" RangeMax="10808.823475732563">
          -2914.1235068338146 7591.71562778033 0 673.8021041556424 0 0
          -2790.329040296424 10441.338284103243 0 -152.26166078735457 0 0
          -2866.2087991226617 7518.099304412277 0 -652.2448640498611 0 0
          -2378.010734003906 5420.4222985264805 0 326.5372043758405 0 0
          -2535.9170306711253 6507.939139480875 0 530.3883253846607 0 0
          -2334.862472668619 7378.620977970975 0 257.122530047736 0 0
          -2202.025654850342 7479.363049378118 0 -48.05189300696661 0 0
          -2525.9657035805712 6425.846708213883 0 -844.3385227626969 0 0
          -2343.849723046594 5222.429388328947 0 -252.48708965388272 0 0
          -2416.9638375794434 7129.895722945885 0 159.40328868251808 0 0
          -2274.170385640373 6778.9708104648 0 -180.21817952362537 0 0
          -2710.37112135357 7179.14902894258 0 -44.73356303695307 0 0
          -2464.9260250719763 6825.537971574708 0 7.703218195867299 0 0
          -2300.6693833900163 6208.707144412273 0 -57.157981169225536 0 0
          -2416.714037464427 7087.224762648516 0 217.93354207478762 0 0
          -2469.976539840037 7167.357331978656 0 328.9193894798999 0 0
          -2033.6225700091113 5916.547970777167 0 -196.97831631840842 0 0
          -2388.2007416241713 6689.729398443899 0 -85.7176641234444 0 0
          -2519.970551358785 6994.326294537521 0 -186.21329170536774 0 0
          -2550.933519134046 7560.57568616927 0 223.81431060415576 0 0
          -2005.1365696762887 5936.649835409585 0 -33.24553010499234 0 0
          -2375.957110770136 6350.181771788512 0 6.109325214718527 0 0
          -2694.895593172112 7813.479169796345 0 316.451445926496 0 0
          -2649.416847436075 7534.02094303121 0 -84.41529880649504 0 0
          -2436.7230707136923 7696.420702663387 0 13.2946198341325 0 0
          -2706.1163418686883 7538.559841457427 0 67.13579127098939 0 0
          -2525.666928809932 6925.977026005803 0 -211.45177692374097 0 0
          -2149.883780134869 6127.466413629309 0 22.996707392592953 0 0
          -2649.8412972038645 7484.812515315674 0 112.25358945835924 0 0
          -2371.901016363315 6650.802778182922 0 -179.26490129059806 0 0
          -2687.6562231271582 7530.734757375891 0 246.95860725014694 0 0
          -1994.4676852344412 5256.6140302263175 0 269.3589869725394 0 0
          -2401.047498021848 7392.982231989092 0 -93.33449706521775 0 0
          -2670.7246484557477 7370.937119262295 0 71.05009276240284 0 0
          -2178.310298285134 6419.921574523693 0 4.512691464769013 0 0
          -2566.590918481761 7290.050183128276 0 216.4320764075154 0 0
          -2397.7792759490017 7647.006553605526 0 -266.9359690885178 0 0
          -2633.142994199856 7517.416296630042 0 184.06578747223523 0 0
          -2577.0025198689564 7230.224402562251 0 5.575172567628369 0 0
          -1791.327885298311 5733.71970216609 0 -203.52097918302272 0 0
          -1861.2570526415116 4893.085955685841 0 164.69515199644923 0 0
          -2488.84096595267 7399.090535521311 0 -262.812795044961 0 0
          -2399.8228992652234 7123.405956194786 0 -237.3283963440531 0 0
          -2790.709906950412 8203.03772918077 0 -8.648557003798715 0 0
          -2515.9993205150527 7623.80779228364 0 129.03882855733886 0 0
          -2241.5854891045674 6011.0405603081235 0 -331.4433259617532 0 0
          -2138.0013054156684 6424.0118532093875 0 -57.16350193910846 0 0
          -2630.5998528403566 6682.5963432466415 0 137.73768467667233 0 0
          -2110.5597834686073 5641.338846031837 0 352.24121571543276 0 0
          -2525.8029289575074 7357.062233602053 0 379.1480789861583 0 0
          -2866.511705512915 8534.632508006269 0 143.5883339417191 0 0
          -1954.9601832208896 5635.771694213106 0 -20.418474806807644 0 0
          -2897.341052821217 7017.300073428586 0 -209.81572489883 0 0
          -2448.976297773652 6947.698878251471 0 357.6583896549305 0 0
          -756.4244730606905 3169.4125643474363 0 18.690264337719924 0 0
          -625.9261626673554 1919.8299550874717 0 175.99470685924598 0 0
          -2006.1340282918366 6147.64513566949 0 7.314781426259326 0 0
          -2166.6061915442897 5762.08710572545 0 117.92990987808693 0 0
          -2466.9454450637777 6652.32708470567 0 -59.34129792277567 0 0
          -1532.740791836409 5242.064720005755 0 -120.46908568259914 0 0
          -1263.21753773681 2881.044050362899 0 -260.2490924689983 0 0
          -2487.059571318915 7895.31778005395 0 -288.0835043453855 0 0
          -2077.260728875354 7053.4569198464105 0 -27.1470661012519 0 0
          -2243.2381043272662 6968.023604793632 0 451.3327985355074 0 0
          -1766.6773230267183 6433.085190706714 0 -341.3855773080745 0 0
          -129.34661117013002 387.83259132003997 0 -15.694236808950562 0 0
          -882.9731530863136 3349.231519753216 0 -66.8761362288266 0 0
          -378.19640543026645 1578.056428302379 0 -91.06959155113293 0 0
          -1509.0933733811653 4365.466790460756 0 53.66270752603836 0 0
          <InformationKey name="L2_NORM_RANGE" location="vtkDataArray" length="2">
            <Value index="0">
              409.13442019
            </Value>
            <Value index="1">
              10808.823476
            </Value>
          </InformationKey>
        </DataArray>
        <DataArray type="Float64" Name="Damage" format="ascii" RangeMin="0" RangeMax="0.985093936888215">
          0 0 0 0 0 0
          0 0 0 0 0 0
          0 0 0 0 0 0
          0 0 0 0 0.01943601465307394 0
          0.045766696941501 0.001607541248796399 0 0 0 0
          0.0731546610897696 0.46427795121260296 0.018641194079011915 0.23672880898851598 0.33140915955856176 0.02921929619442824
          0.23935488050202308 0.05332288131815887 0 0.40075526641583187 0.5321724858877157 0.19354456759625782
          0 0.009252024663299743 0 0 0 0
          0 0.01714002994000744 0.010915788461106673 0 0.022100230023407174 0.23335458389916058
          0.8453949752060768 0.8991617932791731 0.3806688036434451 0.36968621768209353 0.2529398924316568 0.6403924527480949
          0.7330725513601635 0.025405666871191196 0.09447428477952483 0.3498097288840675 0.48048351901045816 0.985093936888215
          0.7525234520731039 0.9202721062245307 0.6921119258426418
        </DataArray>
        <DataArray type="Float64" Name="Tau" format="ascii" RangeMin="10000" RangeMax="26326.140021373336">
          10000 10000 10000 10000 10000 10000
          10000 10000 10000 10000 10000 10000
          10000 10000 10000 10000 10000 10000
          10000 10000 10000 10000 10139.389815275175 10000
          10323.417234375549 10010.896816986049 10000 10000 10000 10000
          10547.095321980867 13985.000069618563 10125.294992089639 11505.822733436966 12816.630165644041 10198.984235931583
          11545.32380537608 10326.07938682841 10000 12717.242230661694 15411.877550072526 11455.470598234228
          10000 10063.895580326933 10000 10000 10000 10000
          10000 10105.811445327534 10062.668723665452 10000 10127.406753289584 11482.839795319349
          19911.29341324634 20741.468102000304 13400.183358697323 12781.064023431454 11754.627051900834 14947.321477459987
          17175.24919407173 10169.746080452183 10459.233048458029 12316.833826235797 13436.711836244784 26326.140021373336
          16834.26362624302 21770.425852275293 15303.891762210842
        </DataArray>
        <DataArray type="Float64" Name="ComparisonRatio" format="ascii" RangeMin="0.7231674791447484" RangeMax="2.632614002137334">
          0.8907050478817491 0.8670634117123297 0.8723485561926121 0.8670113588011366 0.8301672796797086 0.8765786572664196
          0.8902603660054633 0.8519639826279473 0.8318957702381089 0.8769467298740847 0.780565740180654 0.8712458749898087
          0.9241509439084925 0.7708694604108637 0.903727730587295 0.9173047458251804 0.7862583533268965 0.8582760323010645
          0.8832603184439461 0.9256392170212784 0.7493260521059169 0.8116691783092171 0.9911588977509398 0.9276861431902966
          1.0238046706189459 0.9559818348325194 0.8207892452141686 0.7504490122755819 0.9068175779229299 0.8231012002349272
          1.0506806273526021 1.3985000069618565 0.9930851378915354 1.1505822733436966 1.281663016564404 1.0092946037588018
          1.1545323805376078 1.030284806201923 0.9526652318648559 1.2717242230661694 1.5411877550072526 1.1455470598234228
          0.8718283848411357 0.9881809350125585 0.9567826975839111 0.8731314112715345 0.7823336800021305 0.862795453843879
          0.8004362860276902 0.9352824789819192 0.9951540143947473 0.7231674791447484 0.9725412827660717 1.1482839795319348
          1.9911293413246338 2.07414681020003 1.3400183358697322 1.2781064023431454 1.1754627051900834 1.494732147745999
          1.7175249194071727 0.9736077140619828 1.0250930771243982 1.2316833826235793 1.3436711836244781 2.632614002137334
          1.683426362624302 2.177042585227529 1.5303891762210844
        </DataArray>
      </CellData>
      <Points>
        <DataArray type="Float32" Name="Points" NumberOfComponents="3" format="ascii" RangeMin="0" RangeMax="44.721359549995796">
          0 0 0 0 8.140706062316895 0
          10.05757999420166 0 0 7.691964149475098 8.589868545532227 0
          0 14.605589866638184 0 14.0803804397583 6.803778171539307 0
          7.426051139831543 14.1212797164917 0 11.903209686279297 11.110679626464844 0
          4.753245830535889 17.899110794067383 0 11.456890106201172 15.17908000946045 0
          8.750992774963379 17.343339920043945 0 14.829529762268066 12.860369682312012 0
          0 19.698619842529297 0 20 0 0
          11.149399757385254 18.009180068969727 0 9.5 19.133970260620117 0
          7.701200008392334 20 0 20 8.261746406555176 0
          4.515868186950684 21.745309829711914 0 14.387109756469727 16.92919921875 0
          11 20 0 9.5 20.866029739379883 0
          8.211783409118652 22.57975959777832 0 12.926910400390625 20.435630798339844 0
          11.149399757385254 21.990819931030273 0 20 14.984809875488281 0
          0 25.01519012451172 0 5.938395023345947 25.54166030883789 0
          13.446599960327148 23.67215919494629 0 10.465840339660645 25.334749221801758 0
          16.258020401000977 22.168529510498047 0 20 20.301380157470703 0
          4.211780071258545 29.558330535888672 0 16.787519454956055 26.278400421142578 0
          9.481986999511719 30.143190383911133 0 0 31.738250732421875 0
          14.0620698928833 28.453689575195312 0 20 25.3944091796875 0
          6.3112311363220215 34.17660140991211 0 14.231200218200684 33.61981964111328 0
          20 31.859289169311523 0 0 40 0
          9.942421913146973 40 0 20 40 0
          <InformationKey name="L2_NORM_RANGE" location="vtkDataArray" length="2">
            <Value index="0">
              0
            </Value>
            <Value index="1">
              44.72135955
            </Value>
          </InformationKey>
        </DataArray>
      </Points>
      <Cells>
        <DataArray type="Int64" Name="connectivity" format="ascii" RangeMin="0" RangeMax="43">
          20 15 14 15 21 16
          21 20 24 14 15 10
          16 21 22 24 20 23
          20 14 23 15 16 10
          21 24 22 14 10 9
          16 22 18 24 23 28
          9 10 6 18 22 27
          28 23 30 14 9 19
          16 18 8 24 28 29
          6 10 8 30 23 19
          8 18 12 27 22 29
          19 9 11 29 28 36
          9 6 7 28 30 33
          16 8 10 18 27 26
          14 19 23 24 29 22
          11 9 7 11 5 17
          36 28 33 36 33 40
          7 6 3 33 30 37
          33 37 40 19 11 25
          29 36 34 3 6 4
          7 3 5 34 36 39
          29 34 27 37 30 31
          31 30 19 12 4 8
          26 27 32 32 27 34
          26 32 35 35 32 38
          25 31 19 26 12 18
          6 8 4 25 11 17
          5 3 2 5 2 13
          7 5 11 39 36 40
          34 39 38 39 40 43
          4 1 3 34 38 32
          35 38 41 41 38 42
          42 38 39 1 0 2
          17 5 13 3 1 2
          42 39 43
        </DataArray>
        <DataArray type="Int64" Name="offsets" format="ascii" RangeMin="3" RangeMax="207">
          3 6 9 12 15 18
          21 24 27 30 33 36
          39 42 45 48 51 54
          57 60 63 66 69 72
          75 78 81 84 87 90
          93 96 99 102 105 108
          111 114 117 120 123 126
          129 132 135 138 141 144
          147 150 153 156 159 162
          165 168 171 174 177 180
          183 186 189 192 195 198
          201 204 207
        </DataArray>
        <DataArray type="UInt8" Name="types" format="ascii" RangeMin="5" RangeMax="5">
          5 5 5 5 5 5
          5 5 5 5 5 5
          5 5 5 5 5 5
          5 5 5 5 5 5
          5 5 5 5 5 5
          5 5 5 5 5 5
          5 5 5 5 5 5
          5 5 5 5 5 5
          5 5 5 5 5 5
          5 5 5 5 5 5
          5 5 5 5 5 5
          5 5 5
        </DataArray>
      </Cells>
    </Piece>
  </UnstructuredGrid>
</VTKFile>
