<?xml version="1.0"?>
<VTKFile type="UnstructuredGrid" version="0.1" byte_order="LittleEndian" header_type="UInt32" compressor="vtkZLibDataCompressor">
  <UnstructuredGrid>
    <Piece NumberOfPoints="44" NumberOfCells="69">
      <PointData>
        <DataArray type="Float64" Name="plcd_BC" NumberOfComponents="3" format="ascii" RangeMin="0" RangeMax="0">
          0 0 0 0 0 0
          0 0 0 0 0 0
          0 0 0 0 0 0
          0 0 0 0 0 0
          0 0 0 0 0 0
          0 0 0 0 0 0
          0 0 0 0 0 0
          0 0 0 0 0 0
          0 0 0 0 0 0
          0 0 0 0 0 0
          0 0 0 0 0 0
          0 0 0 0 0 0
          0 0 0 0 0 0
          0 0 0 0 0 0
          0 0 0 0 0 0
          0 0 0 0 0 0
          0 0 0 0 0 0
          0 0 0 0 0 0
          0 0 0 0 0 0
          0 0 0 0 0 0
          0 0 0 0 0 0
          0 0 0 0 0 0
          <InformationKey name="L2_NORM_RANGE" location="vtkDataArray" length="2">
            <Value index="0">
              0
            </Value>
            <Value index="1">
              0
            </Value>
          </InformationKey>
        </DataArray>
        <DataArray type="Float64" Name="plcd_FIXNO" NumberOfComponents="3" format="ascii" RangeMin="1.4142135623730951" RangeMax="1.4142135623730951">
          -1 -1 0 -1 -1 0
          -1 -1 0 -1 -1 0
          -1 -1 0 -1 -1 0
          -1 -1 0 -1 -1 0
          -1 -1 0 -1 -1 0
          -1 -1 0 -1 -1 0
          -1 -1 0 -1 -1 0
          -1 -1 0 -1 -1 0
          -1 -1 0 -1 -1 0
          -1 -1 0 -1 -1 0
          -1 -1 0 -1 -1 0
          -1 -1 0 -1 -1 0
          -1 -1 0 -1 -1 0
          -1 -1 0 -1 -1 0
          -1 -1 0 -1 -1 0
          -1 -1 0 -1 -1 0
          -1 -1 0 -1 -1 0
          -1 -1 0 -1 -1 0
          -1 -1 0 -1 -1 0
          -1 -1 0 -1 -1 0
          -1 -1 0 -1 -1 0
          -1 -1 0 -1 -1 0
          <InformationKey name="L2_NORM_RANGE" location="vtkDataArray" length="2">
            <Value index="0">
              1.4142135624
            </Value>
            <Value index="1">
              1.4142135624
            </Value>
          </InformationKey>
        </DataArray>
      </PointData>
      <CellData>
        <DataArray type="UInt8" Name="vtkGhostType" format="ascii" RangeMin="0" RangeMax="0">
          0 0 0 0 0 0
          0 0 0 0 0 0
          0 0 0 0 0 0
          0 0 0 0 0 0
          0 0 0 0 0 0
          0 0 0 0 0 0
          0 0 0 0 0 0
          0 0 0 0 0 0
          0 0 0 0 0 0
          0 0 0 0 0 0
          0 0 0 0 0 0
          0 0 0
        </DataArray>
      </CellData>
      <Points>
        <DataArray type="Float32" Name="Points" NumberOfComponents="3" format="ascii" RangeMin="0" RangeMax="44.721359549995796">
          0 0 0 0 8.140706062316895 0
          10.05757999420166 0 0 7.691964149475098 8.589868545532227 0
          0 14.605589866638184 0 14.0803804397583 6.803778171539307 0
          7.426051139831543 14.1212797164917 0 11.903209686279297 11.110679626464844 0
          4.753245830535889 17.899110794067383 0 11.456890106201172 15.17908000946045 0
          8.750992774963379 17.343339920043945 0 14.829529762268066 12.860369682312012 0
          0 19.698619842529297 0 20 0 0
          11.149399757385254 18.009180068969727 0 9.5 19.133970260620117 0
          7.701200008392334 20 0 20 8.261746406555176 0
          4.515868186950684 21.745309829711914 0 14.387109756469727 16.92919921875 0
          11 20 0 9.5 20.866029739379883 0
          8.211783409118652 22.57975959777832 0 12.926910400390625 20.435630798339844 0
          11.149399757385254 21.990819931030273 0 20 14.984809875488281 0
          0 25.01519012451172 0 5.938395023345947 25.54166030883789 0
          13.446599960327148 23.67215919494629 0 10.465840339660645 25.334749221801758 0
          16.258020401000977 22.168529510498047 0 20 20.301380157470703 0
          4.211780071258545 29.558330535888672 0 16.787519454956055 26.278400421142578 0
          9.481986999511719 30.143190383911133 0 0 31.738250732421875 0
          14.0620698928833 28.453689575195312 0 20 25.3944091796875 0
          6.3112311363220215 34.17660140991211 0 14.231200218200684 33.61981964111328 0
          20 31.859289169311523 0 0 40 0
          9.942421913146973 40 0 20 40 0
          <InformationKey name="L2_NORM_RANGE" location="vtkDataArray" length="2">
            <Value index="0">
              0
            </Value>
            <Value index="1">
              44.72135955
            </Value>
          </InformationKey>
        </DataArray>
      </Points>
      <Cells>
        <DataArray type="Int64" Name="connectivity" format="ascii" RangeMin="0" RangeMax="43">
          20 15 14 15 21 16
          21 20 24 14 15 10
          16 21 22 24 20 23
          20 14 23 15 16 10
          21 24 22 14 10 9
          16 22 18 24 23 28
          9 10 6 18 22 27
          28 23 30 14 9 19
          16 18 8 24 28 29
          6 10 8 30 23 19
          8 18 12 27 22 29
          19 9 11 29 28 36
          9 6 7 28 30 33
          16 8 10 18 27 26
          14 19 23 24 29 22
          11 9 7 11 5 17
          36 28 33 36 33 40
          7 6 3 33 30 37
          33 37 40 19 11 25
          29 36 34 3 6 4
          7 3 5 34 36 39
          29 34 27 37 30 31
          31 30 19 12 4 8
          26 27 32 32 27 34
          26 32 35 35 32 38
          25 31 19 26 12 18
          6 8 4 25 11 17
          5 3 2 5 2 13
          7 5 11 39 36 40
          34 39 38 39 40 43
          4 1 3 34 38 32
          35 38 41 41 38 42
          42 38 39 1 0 2
          17 5 13 3 1 2
          42 39 43
        </DataArray>
        <DataArray type="Int64" Name="offsets" format="ascii" RangeMin="3" RangeMax="207">
          3 6 9 12 15 18
          21 24 27 30 33 36
          39 42 45 48 51 54
          57 60 63 66 69 72
          75 78 81 84 87 90
          93 96 99 102 105 108
          111 114 117 120 123 126
          129 132 135 138 141 144
          147 150 153 156 159 162
          165 168 171 174 177 180
          183 186 189 192 195 198
          201 204 207
        </DataArray>
        <DataArray type="UInt8" Name="types" format="ascii" RangeMin="5" RangeMax="5">
          5 5 5 5 5 5
          5 5 5 5 5 5
          5 5 5 5 5 5
          5 5 5 5 5 5
          5 5 5 5 5 5
          5 5 5 5 5 5
          5 5 5 5 5 5
          5 5 5 5 5 5
          5 5 5 5 5 5
          5 5 5 5 5 5
          5 5 5 5 5 5
          5 5 5
        </DataArray>
      </Cells>
    </Piece>
  </UnstructuredGrid>
</VTKFile>
