<?xml version="1.0"?>
<VTKFile type="UnstructuredGrid" version="0.1" byte_order="LittleEndian" header_type="UInt32" compressor="vtkZLibDataCompressor">
  <UnstructuredGrid>
    <Piece NumberOfPoints="34" NumberOfCells="50">
      <PointData>
        <DataArray type="Float64" Name="nsi_BC" NumberOfComponents="3" format="ascii" RangeMin="0" RangeMax="0">
          0 0 0 0 0 0
          0 0 0 0 0 0
          0 0 0 0 0 0
          0 0 0 0 0 0
          0 0 0 0 0 0
          0 0 0 0 0 0
          0 0 0 0 0 0
          0 0 0 0 0 0
          0 0 0 0 0 0
          0 0 0 0 0 0
          0 0 0 0 0 0
          0 0 0 0 0 0
          0 0 0 0 0 0
          0 0 0 0 0 0
          0 0 0 0 0 0
          0 0 0 0 0 0
          0 0 0 0 0 0
          <InformationKey name="L2_NORM_RANGE" location="vtkDataArray" length="2">
            <Value index="0">
              0
            </Value>
            <Value index="1">
              0
            </Value>
          </InformationKey>
        </DataArray>
        <DataArray type="Float64" Name="nsi_FIXNO" NumberOfComponents="3" format="ascii" RangeMin="1" RangeMax="1.4142135623730951">
          1 1 0 1 0 0
          -1 -1 0 1 0 0
          -1 -1 0 -1 -1 0
          1 0 0 -1 -1 0
          1 0 0 -1 -1 0
          -1 -1 0 -1 -1 0
          1 0 0 -1 -1 0
          -1 -1 0 -1 -1 0
          -1 -1 0 -1 -1 0
          -1 -1 0 -1 -1 0
          1 1 0 1 1 0
          -1 -1 0 1 0 0
          1 0 0 1 0 0
          -1 -1 0 -1 -1 0
          1 0 0 1 0 0
          -1 -1 0 1 0 0
          1 0 0 1 1 0
          <InformationKey name="L2_NORM_RANGE" location="vtkDataArray" length="2">
            <Value index="0">
              1
            </Value>
            <Value index="1">
              1.4142135624
            </Value>
          </InformationKey>
        </DataArray>
        <DataArray type="Float64" Name="lev_BC" format="ascii" RangeMin="-1" RangeMax="1">
          -1 0 -1 -1 -1 0
          1 -1 -1 -1 1 0
          1 -1 -1 -1 1 0
          -1 -1 1 -1 -1 1
          -1 1 -1 0 -1 1
          -1 -1 0 -1
        </DataArray>
        <DataArray type="Float64" Name="lev_FIXNO" format="ascii" RangeMin="0" RangeMax="0">
          0 0 0 0 0 0
          0 0 0 0 0 0
          0 0 0 0 0 0
          0 0 0 0 0 0
          0 0 0 0 0 0
          0 0 0 0
        </DataArray>
        <DataArray type="Float64" Name="Velocity" NumberOfComponents="3" format="ascii" RangeMin="0" RangeMax="1.4232107786763941">
          0 0 0 -5.066729935260372e-18 -1.4232107786763941 0
          0.09987658796265096 -0.27173652220439404 0 0.22487786751814196 2.805754319443224e-17 0
          0.22725127771500003 -0.11936659432628802 0 0.07939258203919007 -0.9211775031604269 0
          1.140071267861914e-16 -1.0754282215214432 0 0.3788128734798767 -0.21884471621784937 0
          0.20787296243281606 -8.66081325733272e-18 0 0.22133257848876442 -0.11174799864233104 0
          0.38739617593101167 -0.6461100894259691 0 0.49740252596025086 -0.5091276934097725 0
          3.011481821871619e-17 -0.5563098994965873 0 0.26727299470306776 -0.22417359837746365 0
          0.12432499926111949 -0.13363185392447907 0 0.6015031291547299 -0.20167992021671757 0
          0.7386096416010451 -0.3150556747462732 0 0.9146868712428169 -0.22165243957294017 0
          0.3185521407621849 -0.3067029204441473 0 0.10160614007654578 -0.24412096401668534 0
          0 0 0 0 0 0
          0.9364848317502887 -0.0737159631966093 0 0.5303535182132046 3.0737015522916366e-17 0
          8.788769806152652e-18 -0.17701136749857088 0 0.9408145497578722 3.06930433199414e-17 0
          1.0185534180671567 0.1277093234866881 0 1.161260923156476 -0.05198398221210439 0
          -1.6763760781166702e-17 -0.19617713122344393 0 1.1204681445258484 -3.9759705262512043e-17 0
          1.1957188367011593 0.16884560991551034 0 -5.171340826299975e-19 0.01643262456621465 0
          1.265041604985443 -3.790069967545346e-17 0 0 0 0
          <InformationKey name="L2_NORM_RANGE" location="vtkDataArray" length="2">
            <Value index="0">
              0
            </Value>
            <Value index="1">
              1.4232107787
            </Value>
          </InformationKey>
        </DataArray>
        <DataArray type="Float64" Name="Pressure" format="ascii" RangeMin="-6.502112776879295" RangeMax="4.654115350769999">
          -5.251063334360932 -1.151236874700687 -3.7727730070289867 -5.979137265688793 -4.215448345555032 -0.34767472183699955
          0.4951625962967477 -2.3283551696044156 -6.410279253566324 -4.260459991985646 1.3986659492409608 -0.10146610529983009
          2.3595466122595177 -2.670119330299091 -4.287613510808234 -1.4280608037029228 1.777379534757203 0.12897519720035927
          -1.6286573048590556 -2.462923277401635 4.654115350769999 -6.502112776879295 -1.0019451533397226 4.23657519352532
          -3.6594910371526757 3.1396931582494942 -1.8784315272582301 0.41538065436616783 -1.5707291872121396 1.9071832256390204
          -0.5241514386828812 0.1273299018695563 0.9507797704606435 2.231988260688052
        </DataArray>
        <DataArray type="Float64" Name="LEVEL" format="ascii" RangeMin="-0.9667086868731419" RangeMax="0.661618924025753">
          -0.2264067515402578 -0.12805088577366522 -0.21916225365538528 -0.389930376217508 -0.2983662240325959 -0.09155007425667999
          0.051436530822214416 -0.1984407035003955 -0.582716830354189 -0.41323150808900533 0.12936869965958428 -0.03404198743951631
          0.32231563943649233 -0.3391698605158334 -0.672202519002508 -0.1348998225486959 0.18123576547543274 0.03866742494114952
          -0.3169997098121994 -0.5201127231023107 0.661618924025753 -0.9667086868731419 -0.07455576586214883 0.4690397442202237
          -0.7178508184228781 0.3427326615057821 -0.14851521551274177 0.09908266851350517 -0.4597895200587504 0.23032483745965535
          0.016733726472485982 -0.2344147859254349 0.12255664210972227 -0.05474249462766481
        </DataArray>
      </PointData>
      <CellData>
        <DataArray type="UInt8" Name="vtkGhostType" format="ascii" RangeMin="0" RangeMax="0">
          0 0 0 0 0 0
          0 0 0 0 0 0
          0 0 0 0 0 0
          0 0 0 0 0 0
          0 0 0 0 0 0
          0 0 0 0 0 0
          0 0 0 0 0 0
          0 0 0 0 0 0
          0 0
        </DataArray>
      </CellData>
      <Points>
        <DataArray type="Float32" Name="Points" NumberOfComponents="3" format="ascii" RangeMin="0" RangeMax="1.4142135623730951">
          0 1 0 0 0.7799999713897705 0
          0.19571679830551147 0.840013325214386 0 0.3338231146335602 1 0
          0.4226129949092865 0.8073133826255798 0 0.21492919325828552 0.5873047709465027 0
          0 0.512727677822113 0 0.4972974956035614 0.6009321212768555 0
          0.6673728823661804 1 0 0.630643904209137 0.7812064290046692 0
          0.20702050626277924 0.32903969287872314 0 0.40350478887557983 0.41823700070381165 0
          0 0.25636380910873413 0 0.6898214221000671 0.5965974926948547 0
          0.8102678060531616 0.7724344730377197 0 0.6222723722457886 0.4149332046508789 0
          0.3845047950744629 0.20200540125370026 0 0.5769323110580444 0.2627502977848053 0
          0.7934312224388123 0.426090806722641 0 0.8737686276435852 0.5574696063995361 0
          0 0 0 1 1 0
          0.7134407162666321 0.28491899371147156 0 0.2561560869216919 0 0
          1 0.6993336081504822 0 0.47891008853912354 0 0
          0.8612840175628662 0.26164010167121887 0 0.7288737893104553 0.12652690708637238 0
          1 0.44098520278930664 0 0.6815431714057922 0 0
          0.8920316100120544 0.1200575977563858 0 1 0.21212109923362732 0
          0.8700000047683716 0 0 1 0 0
          <InformationKey name="L2_NORM_RANGE" location="vtkDataArray" length="2">
            <Value index="0">
              0
            </Value>
            <Value index="1">
              1.4142135624
            </Value>
          </InformationKey>
        </DataArray>
      </Points>
      <Cells>
        <DataArray type="Int64" Name="connectivity" format="ascii" RangeMin="0" RangeMax="33">
          29 32 27 29 27 25
          23 25 16 27 17 25
          17 11 16 16 11 10
          17 16 25 23 10 12
          10 11 5 16 10 23
          12 10 6 6 10 5
          6 5 1 20 23 12
          32 33 30 30 33 31
          32 30 27 30 31 26
          26 31 28 30 26 27
          27 26 22 22 26 18
          27 22 17 17 22 15
          18 26 28 22 18 15
          17 15 11 18 28 19
          19 28 24 18 13 15
          19 24 14 14 24 21
          19 14 13 13 14 9
          19 13 18 9 14 8
          13 9 7 15 13 7
          7 9 4 4 9 8
          7 4 5 0 1 2
          11 15 7 2 1 5
          0 2 3 3 2 4
          3 4 8 11 7 5
          4 2 5 8 14 21
        </DataArray>
        <DataArray type="Int64" Name="offsets" format="ascii" RangeMin="3" RangeMax="150">
          3 6 9 12 15 18
          21 24 27 30 33 36
          39 42 45 48 51 54
          57 60 63 66 69 72
          75 78 81 84 87 90
          93 96 99 102 105 108
          111 114 117 120 123 126
          129 132 135 138 141 144
          147 150
        </DataArray>
        <DataArray type="UInt8" Name="types" format="ascii" RangeMin="5" RangeMax="5">
          5 5 5 5 5 5
          5 5 5 5 5 5
          5 5 5 5 5 5
          5 5 5 5 5 5
          5 5 5 5 5 5
          5 5 5 5 5 5
          5 5 5 5 5 5
          5 5 5 5 5 5
          5 5
        </DataArray>
      </Cells>
    </Piece>
  </UnstructuredGrid>
</VTKFile>
