<?xml version="1.0"?>
<VTKFile type="UnstructuredGrid" version="0.1" byte_order="LittleEndian" header_type="UInt32" compressor="vtkZLibDataCompressor">
  <UnstructuredGrid>
    <Piece NumberOfPoints="34" NumberOfCells="50">
      <PointData>
        <DataArray type="Float64" Name="nsi_BC" NumberOfComponents="3" format="ascii" RangeMin="0" RangeMax="0">
          0 0 0 0 0 0
          0 0 0 0 0 0
          0 0 0 0 0 0
          0 0 0 0 0 0
          0 0 0 0 0 0
          0 0 0 0 0 0
          0 0 0 0 0 0
          0 0 0 0 0 0
          0 0 0 0 0 0
          0 0 0 0 0 0
          0 0 0 0 0 0
          0 0 0 0 0 0
          0 0 0 0 0 0
          0 0 0 0 0 0
          0 0 0 0 0 0
          0 0 0 0 0 0
          0 0 0 0 0 0
          <InformationKey name="L2_NORM_RANGE" location="vtkDataArray" length="2">
            <Value index="0">
              0
            </Value>
            <Value index="1">
              0
            </Value>
          </InformationKey>
        </DataArray>
        <DataArray type="Float64" Name="nsi_FIXNO" NumberOfComponents="3" format="ascii" RangeMin="1" RangeMax="1.4142135623730951">
          1 1 0 1 0 0
          -1 -1 0 1 0 0
          -1 -1 0 -1 -1 0
          1 0 0 -1 -1 0
          1 0 0 -1 -1 0
          -1 -1 0 -1 -1 0
          1 0 0 -1 -1 0
          -1 -1 0 -1 -1 0
          -1 -1 0 -1 -1 0
          -1 -1 0 -1 -1 0
          1 1 0 1 1 0
          -1 -1 0 1 0 0
          1 0 0 1 0 0
          -1 -1 0 -1 -1 0
          1 0 0 1 0 0
          -1 -1 0 1 0 0
          1 0 0 1 1 0
          <InformationKey name="L2_NORM_RANGE" location="vtkDataArray" length="2">
            <Value index="0">
              1
            </Value>
            <Value index="1">
              1.4142135624
            </Value>
          </InformationKey>
        </DataArray>
        <DataArray type="Float64" Name="lev_BC" format="ascii" RangeMin="-1" RangeMax="1">
          -1 0 -1 -1 -1 0
          1 -1 -1 -1 1 0
          1 -1 -1 -1 1 0
          -1 -1 1 -1 -1 1
          -1 1 -1 0 -1 1
          -1 -1 0 -1
        </DataArray>
        <DataArray type="Float64" Name="lev_FIXNO" format="ascii" RangeMin="0" RangeMax="0">
          0 0 0 0 0 0
          0 0 0 0 0 0
          0 0 0 0 0 0
          0 0 0 0 0 0
          0 0 0 0 0 0
          0 0 0 0
        </DataArray>
      </PointData>
      <CellData>
        <DataArray type="UInt8" Name="vtkGhostType" format="ascii" RangeMin="0" RangeMax="0">
          0 0 0 0 0 0
          0 0 0 0 0 0
          0 0 0 0 0 0
          0 0 0 0 0 0
          0 0 0 0 0 0
          0 0 0 0 0 0
          0 0 0 0 0 0
          0 0 0 0 0 0
          0 0
        </DataArray>
      </CellData>
      <Points>
        <DataArray type="Float32" Name="Points" NumberOfComponents="3" format="ascii" RangeMin="0" RangeMax="1.4142135623730951">
          0 1 0 0 0.7799999713897705 0
          0.19571679830551147 0.840013325214386 0 0.3338231146335602 1 0
          0.4226129949092865 0.8073133826255798 0 0.21492919325828552 0.5873047709465027 0
          0 0.512727677822113 0 0.4972974956035614 0.6009321212768555 0
          0.6673728823661804 1 0 0.630643904209137 0.7812064290046692 0
          0.20702050626277924 0.32903969287872314 0 0.40350478887557983 0.41823700070381165 0
          0 0.25636380910873413 0 0.6898214221000671 0.5965974926948547 0
          0.8102678060531616 0.7724344730377197 0 0.6222723722457886 0.4149332046508789 0
          0.3845047950744629 0.20200540125370026 0 0.5769323110580444 0.2627502977848053 0
          0.7934312224388123 0.426090806722641 0 0.8737686276435852 0.5574696063995361 0
          0 0 0 1 1 0
          0.7134407162666321 0.28491899371147156 0 0.2561560869216919 0 0
          1 0.6993336081504822 0 0.47891008853912354 0 0
          0.8612840175628662 0.26164010167121887 0 0.7288737893104553 0.12652690708637238 0
          1 0.44098520278930664 0 0.6815431714057922 0 0
          0.8920316100120544 0.1200575977563858 0 1 0.21212109923362732 0
          0.8700000047683716 0 0 1 0 0
          <InformationKey name="L2_NORM_RANGE" location="vtkDataArray" length="2">
            <Value index="0">
              0
            </Value>
            <Value index="1">
              1.4142135624
            </Value>
          </InformationKey>
        </DataArray>
      </Points>
      <Cells>
        <DataArray type="Int64" Name="connectivity" format="ascii" RangeMin="0" RangeMax="33">
          29 32 27 29 27 25
          23 25 16 27 17 25
          17 11 16 16 11 10
          17 16 25 23 10 12
          10 11 5 16 10 23
          12 10 6 6 10 5
          6 5 1 20 23 12
          32 33 30 30 33 31
          32 30 27 30 31 26
          26 31 28 30 26 27
          27 26 22 22 26 18
          27 22 17 17 22 15
          18 26 28 22 18 15
          17 15 11 18 28 19
          19 28 24 18 13 15
          19 24 14 14 24 21
          19 14 13 13 14 9
          19 13 18 9 14 8
          13 9 7 15 13 7
          7 9 4 4 9 8
          7 4 5 0 1 2
          11 15 7 2 1 5
          0 2 3 3 2 4
          3 4 8 11 7 5
          4 2 5 8 14 21
        </DataArray>
        <DataArray type="Int64" Name="offsets" format="ascii" RangeMin="3" RangeMax="150">
          3 6 9 12 15 18
          21 24 27 30 33 36
          39 42 45 48 51 54
          57 60 63 66 69 72
          75 78 81 84 87 90
          93 96 99 102 105 108
          111 114 117 120 123 126
          129 132 135 138 141 144
          147 150
        </DataArray>
        <DataArray type="UInt8" Name="types" format="ascii" RangeMin="5" RangeMax="5">
          5 5 5 5 5 5
          5 5 5 5 5 5
          5 5 5 5 5 5
          5 5 5 5 5 5
          5 5 5 5 5 5
          5 5 5 5 5 5
          5 5 5 5 5 5
          5 5 5 5 5 5
          5 5
        </DataArray>
      </Cells>
    </Piece>
  </UnstructuredGrid>
</VTKFile>
