<?xml version="1.0"?>
<VTKFile type="UnstructuredGrid" version="0.1" byte_order="LittleEndian" header_type="UInt32" compressor="vtkZLibDataCompressor">
  <UnstructuredGrid>
    <Piece NumberOfPoints="165" NumberOfCells="32">
      <PointData>
        <DataArray type="Float64" Name="nsi_BC" NumberOfComponents="3" format="ascii" RangeMin="0" RangeMax="0">
          0 0 0 0 0 0
          0 0 0 0 0 0
          0 0 0 0 0 0
          0 0 0 0 0 0
          0 0 0 0 0 0
          0 0 0 0 0 0
          0 0 0 0 0 0
          0 0 0 0 0 0
          0 0 0 0 0 0
          0 0 0 0 0 0
          0 0 0 0 0 0
          0 0 0 0 0 0
          0 0 0 0 0 0
          0 0 0 0 0 0
          0 0 0 0 0 0
          0 0 0 0 0 0
          0 0 0 0 0 0
          0 0 0 0 0 0
          0 0 0 0 0 0
          0 0 0 0 0 0
          0 0 0 0 0 0
          0 0 0 0 0 0
          0 0 0 0 0 0
          0 0 0 0 0 0
          0 0 0 0 0 0
          0 0 0 0 0 0
          0 0 0 0 0 0
          0 0 0 0 0 0
          0 0 0 0 0 0
          0 0 0 0 0 0
          0 0 0 0 0 0
          0 0 0 0 0 0
          0 0 0 0 0 0
          0 0 0 0 0 0
          0 0 0 0 0 0
          0 0 0 0 0 0
          0 0 0 0 0 0
          0 0 0 0 0 0
          0 0 0 0 0 0
          0 0 0 0 0 0
          0 0 0 0 0 0
          0 0 0 0 0 0
          0 0 0 0 0 0
          0 0 0 0 0 0
          0 0 0 0 0 0
          0 0 0 0 0 0
          0 0 0 0 0 0
          0 0 0 0 0 0
          0 0 0 0 0 0
          0 0 0 0 0 0
          0 0 0 0 0 0
          0 0 0 0 0 0
          0 0 0 0 0 0
          0 0 0 0 0 0
          0 0 0 0 0 0
          0 0 0 0 0 0
          0 0 0 0 0 0
          0 0 0 0 0 0
          0 0 0 0 0 0
          0 0 0 0 0 0
          0 0 0 0 0 0
          0 0 0 0 0 0
          0 0 0 0 0 0
          0 0 0 0 0 0
          0 0 0 0 0 0
          0 0 0 0 0 0
          0 0 0 0 0 0
          0 0 0 0 0 0
          0 0 0 0 0 0
          0 0 0 0 0 0
          0 0 0 0 0 0
          0 0 0 0 0 0
          0 0 0 0 0 0
          0 0 0 0 0 0
          0 0 0 0 0 0
          0 0 0 0 0 0
          0 0 0 0 0 0
          0 0 0 0 0 0
          0 0 0 0 0 0
          0 0 0 0 0 0
          0 0 0 0 0 0
          0 0 0 0 0 0
          0 0 0
          <InformationKey name="L2_NORM_RANGE" location="vtkDataArray" length="2">
            <Value index="0">
              0
            </Value>
            <Value index="1">
              0
            </Value>
          </InformationKey>
        </DataArray>
        <DataArray type="Float64" Name="nsi_FIXNO" NumberOfComponents="3" format="ascii" RangeMin="1.4142135623730951" RangeMax="1.4142135623730951">
          1 1 0 1 1 0
          1 1 0 -1 -1 0
          1 1 0 1 1 0
          -1 -1 0 -1 -1 0
          -1 -1 0 1 1 0
          1 1 0 -1 -1 0
          -1 -1 0 -1 -1 0
          -1 -1 0 1 1 0
          1 1 0 1 1 0
          -1 -1 0 -1 -1 0
          1 1 0 -1 -1 0
          1 1 0 1 1 0
          -1 -1 0 -1 -1 0
          -1 -1 0 1 1 0
          -1 -1 0 1 1 0
          -1 -1 0 -1 -1 0
          1 1 0 -1 -1 0
          1 1 0 -1 -1 0
          1 1 0 -1 -1 0
          -1 -1 0 1 1 0
          1 1 0 -1 -1 0
          -1 -1 0 -1 -1 0
          1 1 0 1 1 0
          -1 -1 0 -1 -1 0
          -1 -1 0 1 1 0
          1 1 0 -1 -1 0
          -1 -1 0 -1 -1 0
          1 1 0 1 1 0
          -1 -1 0 -1 -1 0
          -1 -1 0 1 1 0
          1 1 0 -1 -1 0
          -1 -1 0 -1 -1 0
          1 1 0 1 1 0
          -1 -1 0 -1 -1 0
          -1 -1 0 1 1 0
          1 1 0 -1 -1 0
          -1 -1 0 -1 -1 0
          1 1 0 1 1 0
          -1 -1 0 -1 -1 0
          -1 -1 0 1 1 0
          1 1 0 -1 -1 0
          -1 -1 0 -1 -1 0
          1 1 0 1 1 0
          -1 -1 0 -1 -1 0
          -1 -1 0 1 1 0
          1 1 0 -1 -1 0
          -1 -1 0 -1 -1 0
          1 1 0 1 1 0
          -1 -1 0 -1 -1 0
          -1 -1 0 1 1 0
          1 1 0 -1 -1 0
          -1 -1 0 -1 -1 0
          1 1 0 1 1 0
          -1 -1 0 -1 -1 0
          -1 -1 0 1 1 0
          1 1 0 -1 -1 0
          -1 -1 0 -1 -1 0
          1 1 0 1 1 0
          -1 -1 0 -1 -1 0
          -1 -1 0 1 1 0
          1 1 0 -1 -1 0
          -1 -1 0 -1 -1 0
          1 1 0 1 1 0
          -1 -1 0 -1 -1 0
          -1 -1 0 1 1 0
          -1 -1 0 1 1 0
          -1 -1 0 -1 -1 0
          1 1 0 1 1 0
          -1 -1 0 -1 -1 0
          -1 -1 0 1 1 0
          1 1 0 -1 -1 0
          -1 -1 0 -1 -1 0
          1 1 0 1 1 0
          -1 -1 0 -1 -1 0
          -1 -1 0 1 1 0
          1 1 0 -1 -1 0
          -1 -1 0 -1 -1 0
          1 1 0 1 1 0
          -1 -1 0 -1 -1 0
          -1 -1 0 1 1 0
          1 1 0 1 1 0
          1 1 0 1 1 0
          1 1 0
          <InformationKey name="L2_NORM_RANGE" location="vtkDataArray" length="2">
            <Value index="0">
              1.4142135624
            </Value>
            <Value index="1">
              1.4142135624
            </Value>
          </InformationKey>
        </DataArray>
        <DataArray type="Float64" Name="tem_BC" format="ascii" RangeMin="0" RangeMax="1">
          1 0 1 0 0 1
          0 0 0 0 1 0
          0 0 0 0 1 0
          0 0 0 0 0 1
          0 0 0 0 0 1
          0 0 0 0 1 0
          0 0 0 1 0 0
          0 0 0 1 0 0
          0 0 1 0 0 0
          0 1 0 0 0 0
          1 0 0 0 0 1
          0 0 0 0 1 0
          0 0 0 1 0 0
          0 0 1 0 0 0
          0 1 0 0 0 0
          1 0 0 0 0 1
          0 0 0 0 1 0
          0 0 0 1 0 0
          0 0 1 0 0 0
          0 1 0 0 0 0
          1 0 0 0 0 1
          0 0 0 0 0 1
          0 0 0 1 0 0
          0 0 1 0 0 0
          0 1 0 0 0 0
          1 0 0 0 0 1
          0 0 0 0 1 0
          0 0 0
        </DataArray>
        <DataArray type="Float64" Name="tem_FIXNO" format="ascii" RangeMin="-1" RangeMax="1">
          1 -1 1 -1 -1 1
          -1 -1 -1 -1 1 -1
          -1 -1 -1 1 1 1
          -1 -1 1 -1 1 1
          -1 -1 -1 1 -1 1
          -1 -1 1 -1 1 -1
          1 -1 -1 1 1 -1
          -1 -1 1 1 -1 -1
          -1 1 1 -1 -1 -1
          1 1 -1 -1 -1 1
          1 -1 -1 -1 1 1
          -1 -1 -1 1 1 -1
          -1 -1 1 1 -1 -1
          -1 1 1 -1 -1 -1
          1 1 -1 -1 -1 1
          1 -1 -1 -1 1 1
          -1 -1 -1 1 1 -1
          -1 -1 1 1 -1 -1
          -1 1 1 -1 -1 -1
          1 1 -1 -1 -1 1
          1 -1 -1 -1 1 1
          -1 -1 -1 1 -1 1
          -1 -1 1 1 -1 -1
          -1 1 1 -1 -1 -1
          1 1 -1 -1 -1 1
          1 -1 -1 -1 1 1
          -1 -1 -1 1 1 -1
          -1 -1 1
        </DataArray>
      </PointData>
      <CellData>
        <DataArray type="UInt8" Name="vtkGhostType" format="ascii" RangeMin="0" RangeMax="0">
          0 0 0 0 0 0
          0 0 0 0 0 0
          0 0 0 0 0 0
          0 0 0 0 0 0
          0 0 0 0 0 0
          0 0
        </DataArray>
      </CellData>
      <Points>
        <DataArray type="Float32" Name="Points" NumberOfComponents="3" format="ascii" RangeMin="0" RangeMax="8.06225774829855">
          0 8 0 0.25 8 0
          0 7.75 0 0.2516412138938904 7.749100208282471 0
          0.5 8 0 0 7.5 0
          0.2532823085784912 7.498199939727783 0 0.5032823085784912 7.748199939727783 0
          0.5065646171569824 7.496399879455566 0 0.75 8 0
          0 7.25 0 0.25276580452919006 7.24924898147583 0
          0.7516412138938904 7.749100208282471 0 0.7532823085784912 7.498199939727783 0
          0.5055314898490906 7.248498916625977 0 1 8 0
          0 7 0 1 7.75 0
          0.25224921107292175 7.000298023223877 0 0.7527657747268677 7.24924898147583 0
          1 7.5 0 0.5044984221458435 7.00059700012207 0
          1 7.25 0 0 6.75 0
          0.7522491812705994 7.000298023223877 0 0.2514094114303589 6.7500810623168945 0
          0.5028188228607178 6.7501630783081055 0 1 7 0
          0.7514094114303589 6.7500810623168945 0 0 6.5 0
          0.250569611787796 6.499864101409912 0 0.501139223575592 6.499728202819824 0
          1 6.75 0 0.7505695819854736 6.499864101409912 0
          0 6.25 0 0.24966830015182495 6.24927282333374 0
          1 6.5 0 0.49933651089668274 6.248545169830322 0
          0.749668300151825 6.24927282333374 0 0 6 0
          1 6.25 0 0.24876689910888672 5.99868106842041 0
          0.49753379821777344 5.99736213684082 0 0.7487668991088867 5.99868106842041 0
          1 6 0 0 5.75 0
          0.24663250148296356 5.746769905090332 0 0.4932650029659271 5.7435407638549805 0
          0.7466325163841248 5.746769905090332 0 1 5.75 0
          0 5.5 0 0.2444981038570404 5.4948601722717285 0
          0.48899608850479126 5.489719867706299 0 0.744498074054718 5.4948601722717285 0
          1 5.5 0 0 5.25 0
          0.24734920263290405 5.2468719482421875 0 0.4946984052658081 5.243743896484375 0
          0.747349202632904 5.2468719482421875 0 1 5.25 0
          0 5 0 0.25020039081573486 4.998884201049805 0
          0.5004007816314697 4.997767925262451 0 0.7502003908157349 4.998884201049805 0
          1 5 0 0 4.75 0
          0.2502462863922119 4.7487897872924805 0 0.5004926919937134 4.747579097747803 0
          0.7502462863922119 4.7487897872924805 0 1 4.75 0
          0 4.5 0 0.2502923011779785 4.498694896697998 0
          0.500584602355957 4.497389793395996 0 0.7502923011779785 4.498694896697998 0
          1 4.5 0 0 4.25 0
          0.25063058733940125 4.24729585647583 0 0.5012611150741577 4.244592189788818 0
          0.7506306171417236 4.24729585647583 0 1 4.25 0
          0 4 0 0.2509688138961792 3.995897054672241 0
          0.5019376277923584 3.991792917251587 0 0.7509688138961792 3.995897054672241 0
          1 4 0 0 3.75 0
          0.2500407099723816 3.7450449466705322 0 0.500081479549408 3.7400898933410645 0
          0.7500407099723816 3.7450449466705322 0 1 3.75 0
          0 3.5 0 0.24911269545555115 3.4941930770874023 0
          0.4982253909111023 3.4883859157562256 0 0.7491127252578735 3.4941930770874023 0
          1 3.5 0 0 3.25 0
          0.24996420741081238 3.247406005859375 0 0.49992841482162476 3.2448110580444336 0
          0.74996417760849 3.247406005859375 0 1 3.25 0
          0 3 0 0.2508156895637512 3.0006179809570312 0
          0.501631498336792 3.0012359619140625 0 0.7508156895637512 3.0006179809570312 0
          1 3 0 0 2.75 0
          0.25134411454200745 2.7502119541168213 0 0.5026882886886597 2.750422954559326 0
          0.7513440847396851 2.7502119541168213 0 1 2.75 0
          0 2.5 0 0.25187259912490845 2.499804973602295 0
          0.5037450790405273 2.4996109008789062 0 0.7518725991249084 2.499804973602295 0
          1 2.5 0 0 2.25 0
          0.2508259117603302 2.250502109527588 0 0.5016518235206604 2.2510039806365967 0
          0.7508258819580078 2.250502109527588 0 1 2.25 0
          0 2 0 0.24977919459342957 2.0011990070343018 0
          0.49955838918685913 2.0023980140686035 0 0.749779224395752 2.0011990070343018 0
          1 2 0 0 1.75 0
          0.25333869457244873 1.7533539533615112 0 0.5066773295402527 1.7567089796066284 0
          0.7533386945724487 1.7533539533615112 0 1 1.75 0
          0.25689810514450073 1.5055090188980103 0 0 1.5 0
          0.5137962102890015 1.511018991470337 0 0.7568981051445007 1.5055090188980103 0
          1 1.5 0 0 1.25 0
          0.25599539279937744 1.2540819644927979 0 0.5119907855987549 1.2581650018692017 0
          0.7559953927993774 1.2540819644927979 0 1 1.25 0
          0 1 0 0.25509271025657654 1.0026559829711914 0
          0.5101853013038635 1.0053110122680664 0 0.7550926804542542 1.0026559829711914 0
          1 1 0 0 0.75 0
          0.25327691435813904 0.7514302134513855 0 0.5065537095069885 0.752860426902771 0
          0.7532768845558167 0.7514302134513855 0 1 0.75 0
          0 0.5 0 0.25146108865737915 0.5002049207687378 0
          0.5029221773147583 0.5004099011421204 0 0.7514610886573792 0.5002049207687378 0
          1 0.5 0 0 0.25 0
          0.2507305145263672 0.2501024901866913 0 0.5014610886573792 0.2502048909664154 0
          0.7507305145263672 0.2501024901866913 0 1 0.25 0
          0 0 0 0.25 0 0
          0.5 0 0 0.75 0 0
          1 0 0
          <InformationKey name="L2_NORM_RANGE" location="vtkDataArray" length="2">
            <Value index="0">
              0
            </Value>
            <Value index="1">
              8.0622577483
            </Value>
          </InformationKey>
        </DataArray>
      </Points>
      <Cells>
        <DataArray type="Int64" Name="connectivity" format="ascii" RangeMin="0" RangeMax="164">
          20 15 4 8 17 9
          7 13 12 4 0 5
          8 1 2 6 7 3
          5 16 21 8 10 18
          14 6 11 20 8 21
          27 13 14 24 22 19
          36 27 21 31 32 24
          26 33 28 21 16 29
          31 18 23 30 26 25
          150 160 162 152 155 161
          157 151 156 162 164 154
          152 163 159 153 157 158
          44 36 31 42 40 33
          37 43 38 31 29 39
          42 30 34 41 37 35
          140 150 152 142 145 151
          147 141 146 152 154 144
          142 153 149 143 147 148
          39 50 52 42 45 51
          47 41 46 44 42 52
          54 43 47 53 49 48
          64 54 52 62 59 53
          57 63 58 52 50 60
          62 51 55 61 57 56
          131 140 142 132 135 141
          137 130 136 142 144 134
          132 143 139 133 137 138
          74 64 62 72 69 63
          67 73 68 62 60 70
          72 61 65 71 67 66
          120 131 132 122 125 130
          127 121 126 132 134 124
          122 133 129 123 127 128
          110 120 122 112 115 121
          117 111 116 122 124 114
          112 123 119 113 117 118
          114 104 102 112 109 103
          107 113 108 110 112 102
          100 111 107 101 105 106
          90 100 102 92 95 101
          97 91 96 102 104 94
          92 103 99 93 97 98
          80 90 92 82 85 91
          87 81 86 92 94 84
          82 93 89 83 87 88
          70 80 82 72 75 81
          77 71 76 72 82 84
          74 77 83 79 73 78
        </DataArray>
        <DataArray type="Int64" Name="offsets" format="ascii" RangeMin="9" RangeMax="288">
          9 18 27 36 45 54
          63 72 81 90 99 108
          117 126 135 144 153 162
          171 180 189 198 207 216
          225 234 243 252 261 270
          279 288
        </DataArray>
        <DataArray type="UInt8" Name="types" format="ascii" RangeMin="28" RangeMax="28">
          28 28 28 28 28 28
          28 28 28 28 28 28
          28 28 28 28 28 28
          28 28 28 28 28 28
          28 28 28 28 28 28
          28 28
        </DataArray>
      </Cells>
    </Piece>
  </UnstructuredGrid>
</VTKFile>
