<?xml version="1.0"?>
<VTKFile type="UnstructuredGrid" version="0.1" byte_order="LittleEndian" header_type="UInt32" compressor="vtkZLibDataCompressor">
  <UnstructuredGrid>
    <Piece NumberOfPoints="165" NumberOfCells="32">
      <PointData>
        <DataArray type="Float64" Name="nsi_BC" NumberOfComponents="3" format="ascii" RangeMin="0" RangeMax="0">
          0 0 0 0 0 0
          0 0 0 0 0 0
          0 0 0 0 0 0
          0 0 0 0 0 0
          0 0 0 0 0 0
          0 0 0 0 0 0
          0 0 0 0 0 0
          0 0 0 0 0 0
          0 0 0 0 0 0
          0 0 0 0 0 0
          0 0 0 0 0 0
          0 0 0 0 0 0
          0 0 0 0 0 0
          0 0 0 0 0 0
          0 0 0 0 0 0
          0 0 0 0 0 0
          0 0 0 0 0 0
          0 0 0 0 0 0
          0 0 0 0 0 0
          0 0 0 0 0 0
          0 0 0 0 0 0
          0 0 0 0 0 0
          0 0 0 0 0 0
          0 0 0 0 0 0
          0 0 0 0 0 0
          0 0 0 0 0 0
          0 0 0 0 0 0
          0 0 0 0 0 0
          0 0 0 0 0 0
          0 0 0 0 0 0
          0 0 0 0 0 0
          0 0 0 0 0 0
          0 0 0 0 0 0
          0 0 0 0 0 0
          0 0 0 0 0 0
          0 0 0 0 0 0
          0 0 0 0 0 0
          0 0 0 0 0 0
          0 0 0 0 0 0
          0 0 0 0 0 0
          0 0 0 0 0 0
          0 0 0 0 0 0
          0 0 0 0 0 0
          0 0 0 0 0 0
          0 0 0 0 0 0
          0 0 0 0 0 0
          0 0 0 0 0 0
          0 0 0 0 0 0
          0 0 0 0 0 0
          0 0 0 0 0 0
          0 0 0 0 0 0
          0 0 0 0 0 0
          0 0 0 0 0 0
          0 0 0 0 0 0
          0 0 0 0 0 0
          0 0 0 0 0 0
          0 0 0 0 0 0
          0 0 0 0 0 0
          0 0 0 0 0 0
          0 0 0 0 0 0
          0 0 0 0 0 0
          0 0 0 0 0 0
          0 0 0 0 0 0
          0 0 0 0 0 0
          0 0 0 0 0 0
          0 0 0 0 0 0
          0 0 0 0 0 0
          0 0 0 0 0 0
          0 0 0 0 0 0
          0 0 0 0 0 0
          0 0 0 0 0 0
          0 0 0 0 0 0
          0 0 0 0 0 0
          0 0 0 0 0 0
          0 0 0 0 0 0
          0 0 0 0 0 0
          0 0 0 0 0 0
          0 0 0 0 0 0
          0 0 0 0 0 0
          0 0 0 0 0 0
          0 0 0 0 0 0
          0 0 0 0 0 0
          0 0 0
          <InformationKey name="L2_NORM_RANGE" location="vtkDataArray" length="2">
            <Value index="0">
              0
            </Value>
            <Value index="1">
              0
            </Value>
          </InformationKey>
        </DataArray>
        <DataArray type="Float64" Name="nsi_FIXNO" NumberOfComponents="3" format="ascii" RangeMin="1.4142135623730951" RangeMax="1.4142135623730951">
          1 1 0 1 1 0
          1 1 0 -1 -1 0
          1 1 0 1 1 0
          -1 -1 0 -1 -1 0
          -1 -1 0 1 1 0
          1 1 0 -1 -1 0
          -1 -1 0 -1 -1 0
          -1 -1 0 1 1 0
          1 1 0 1 1 0
          -1 -1 0 -1 -1 0
          1 1 0 -1 -1 0
          1 1 0 1 1 0
          -1 -1 0 -1 -1 0
          -1 -1 0 1 1 0
          -1 -1 0 1 1 0
          -1 -1 0 -1 -1 0
          1 1 0 -1 -1 0
          1 1 0 -1 -1 0
          1 1 0 -1 -1 0
          -1 -1 0 1 1 0
          1 1 0 -1 -1 0
          -1 -1 0 -1 -1 0
          1 1 0 1 1 0
          -1 -1 0 -1 -1 0
          -1 -1 0 1 1 0
          1 1 0 -1 -1 0
          -1 -1 0 -1 -1 0
          1 1 0 1 1 0
          -1 -1 0 -1 -1 0
          -1 -1 0 1 1 0
          1 1 0 -1 -1 0
          -1 -1 0 -1 -1 0
          1 1 0 1 1 0
          -1 -1 0 -1 -1 0
          -1 -1 0 1 1 0
          1 1 0 -1 -1 0
          -1 -1 0 -1 -1 0
          1 1 0 1 1 0
          -1 -1 0 -1 -1 0
          -1 -1 0 1 1 0
          1 1 0 -1 -1 0
          -1 -1 0 -1 -1 0
          1 1 0 1 1 0
          -1 -1 0 -1 -1 0
          -1 -1 0 1 1 0
          1 1 0 -1 -1 0
          -1 -1 0 -1 -1 0
          1 1 0 1 1 0
          -1 -1 0 -1 -1 0
          -1 -1 0 1 1 0
          1 1 0 -1 -1 0
          -1 -1 0 -1 -1 0
          1 1 0 1 1 0
          -1 -1 0 -1 -1 0
          -1 -1 0 1 1 0
          1 1 0 -1 -1 0
          -1 -1 0 -1 -1 0
          1 1 0 1 1 0
          -1 -1 0 -1 -1 0
          -1 -1 0 1 1 0
          1 1 0 -1 -1 0
          -1 -1 0 -1 -1 0
          1 1 0 1 1 0
          -1 -1 0 -1 -1 0
          -1 -1 0 1 1 0
          -1 -1 0 1 1 0
          -1 -1 0 -1 -1 0
          1 1 0 1 1 0
          -1 -1 0 -1 -1 0
          -1 -1 0 1 1 0
          1 1 0 -1 -1 0
          -1 -1 0 -1 -1 0
          1 1 0 1 1 0
          -1 -1 0 -1 -1 0
          -1 -1 0 1 1 0
          1 1 0 -1 -1 0
          -1 -1 0 -1 -1 0
          1 1 0 1 1 0
          -1 -1 0 -1 -1 0
          -1 -1 0 1 1 0
          1 1 0 1 1 0
          1 1 0 1 1 0
          1 1 0
          <InformationKey name="L2_NORM_RANGE" location="vtkDataArray" length="2">
            <Value index="0">
              1.4142135624
            </Value>
            <Value index="1">
              1.4142135624
            </Value>
          </InformationKey>
        </DataArray>
        <DataArray type="Float64" Name="tem_BC" format="ascii" RangeMin="0" RangeMax="1">
          1 0 1 0 0 1
          0 0 0 0 1 0
          0 0 0 0 1 0
          0 0 0 0 0 1
          0 0 0 0 0 1
          0 0 0 0 1 0
          0 0 0 1 0 0
          0 0 0 1 0 0
          0 0 1 0 0 0
          0 1 0 0 0 0
          1 0 0 0 0 1
          0 0 0 0 1 0
          0 0 0 1 0 0
          0 0 1 0 0 0
          0 1 0 0 0 0
          1 0 0 0 0 1
          0 0 0 0 1 0
          0 0 0 1 0 0
          0 0 1 0 0 0
          0 1 0 0 0 0
          1 0 0 0 0 1
          0 0 0 0 0 1
          0 0 0 1 0 0
          0 0 1 0 0 0
          0 1 0 0 0 0
          1 0 0 0 0 1
          0 0 0 0 1 0
          0 0 0
        </DataArray>
        <DataArray type="Float64" Name="tem_FIXNO" format="ascii" RangeMin="-1" RangeMax="1">
          1 -1 1 -1 -1 1
          -1 -1 -1 -1 1 -1
          -1 -1 -1 1 1 1
          -1 -1 1 -1 1 1
          -1 -1 -1 1 -1 1
          -1 -1 1 -1 1 -1
          1 -1 -1 1 1 -1
          -1 -1 1 1 -1 -1
          -1 1 1 -1 -1 -1
          1 1 -1 -1 -1 1
          1 -1 -1 -1 1 1
          -1 -1 -1 1 1 -1
          -1 -1 1 1 -1 -1
          -1 1 1 -1 -1 -1
          1 1 -1 -1 -1 1
          1 -1 -1 -1 1 1
          -1 -1 -1 1 1 -1
          -1 -1 1 1 -1 -1
          -1 1 1 -1 -1 -1
          1 1 -1 -1 -1 1
          1 -1 -1 -1 1 1
          -1 -1 -1 1 -1 1
          -1 -1 1 1 -1 -1
          -1 1 1 -1 -1 -1
          1 1 -1 -1 -1 1
          1 -1 -1 -1 1 1
          -1 -1 -1 1 1 -1
          -1 -1 1
        </DataArray>
        <DataArray type="Float64" Name="Velocity" NumberOfComponents="3" format="ascii" RangeMin="0" RangeMax="3.9983874684357628">
          0 0 0 0 0 0
          0 0 0 1.5252612631645377 0.30683985060936436 0
          0 0 0 0 0 0
          1.1953043166142194 0.42460052560954864 0 2.746516743021175 -0.785087653659323 0
          2.0034498764229483 -0.83000719258456 0 0 0 0
          0 0 0 0.21046415273923458 1.7785268489242867 0
          2.0313436366593294 -0.15741960037934888 0 2.0114365102731284 -0.7903545619369652 0
          0.9792615544787253 -0.6984215536730858 0 0 0 0
          0 0 0 0 0 0
          0.09661741797015111 2.454773480539643 0 0.9119721930280775 -1.410447322191203 0
          0 0 0 0.4899291616618271 -0.12079949227489806 0
          0 0 0 0 0 0
          0.5396867371069618 -1.7201380117246003 0 -0.06109892623555879 2.977765891096851 0
          0.1975687863789517 0.05296576289111954 0 0 0 0
          0.19392992547665244 -1.9427805512013947 0 0 0 0
          -0.08527258372225788 3.324744079336824 0 0.030227929664178532 0.20081128678640425 0
          0 0 0 0.046951400240971 -2.0514341443079047 0
          0 0 0 -0.10571418423546675 3.559885653864285 0
          0 0 0 -0.05220312605501931 0.24096519940087546 0
          -0.03425766093130278 -2.077944403189349 0 0 0 0
          0 0 0 -0.12536771141117242 3.7125563781921755 0
          -0.11496892604500886 0.2571932078380996 0 -0.06579890341885175 -2.0355333012806796 0
          0 0 0 0 0 0
          -0.17504046288695463 3.8425863384491095 0 -0.17959243110624357 0.3231118091367762 0
          -0.08176057168986972 -1.9421603594510088 0 0 0 0
          0 0 0 -0.21885102801979883 3.9868810737593776 0
          -0.18508161320164618 0.44973862760662087 0 -0.08413880661021267 -1.8545347886788477 0
          0 0 0 0 0 0
          -0.16816560078882503 3.9948495188749575 0 -0.13499856815190014 0.44771821019105573 0
          -0.06831673188264631 -1.7958252483315391 0 0 0 0
          0 0 0 -0.0737014076946707 3.7752172243926907 0
          -0.10893713614822786 0.5171542929363113 0 -0.03509933349948824 -1.7591547382537556 0
          0 0 0 0 0 0
          -0.01875632918154224 3.4334544613366234 0 -0.07652307225731647 0.6710437110544945 0
          -0.00807981745174402 -1.7293560597920532 0 0 0 0
          0 0 0 0.03272385953050616 3.089659009940533 0
          -0.04698122143378214 0.7550617803742625 0 -0.005666014354233084 -1.7036790546058 0
          0 0 0 0 0 0
          0.05807819065557851 2.772179976072721 0 -0.02633683467541914 0.7883813839850973 0
          -0.00845233758991526 -1.689361961452505 0 0 0 0
          0 0 0 0.056529126628902304 2.5120549931912137 0
          -0.025930924793840404 0.7779942779563953 0 -0.014953715048932281 -1.6758932272919083 0
          0 0 0 0 0 0
          0.02591055467428305 2.3345424383123827 0 -0.04488281282999651 0.7828310141926522 0
          -0.026172088934572457 -1.6532973941355067 0 0 0 0
          0 0 0 -0.0001932679329001985 2.261132600429846 0
          -0.040922018660467074 0.7689992522391549 0 -0.03172806304860387 -1.6384342752535304 0
          0 0 0 0 0 0
          0.01645185216648315 2.2177510800172513 0 -0.02388508998819816 0.7112558092997006 0
          -0.02646408838268144 -1.6350486755732163 0 0 0 0
          0 0 0 0.05090475477163636 2.0577921829953993 0
          -0.009460520913478376 0.7092377823419156 0 -0.013228206010580834 -1.6270998373365728 0
          0 0 0 0 0 0
          0.07753541400643371 1.8273733734072266 0 0.013834973475354673 0.7160925080581819 0
          0.0006224319361081143 -1.6219925912141662 0 0 0 0
          0 0 0 0.08639736881468707 1.6721395317485985 0
          0.027871911971203644 0.6534752088039113 0 0.004405386137023015 -1.6255710929531233 0
          0 0 0 0 0 0
          0.07807422642963502 1.5814293388211809 0 0.0216807922780049 0.5963433183160305 0
          0.0013564571506776701 -1.6253171613539052 0 0 0 0
          0 0 0 0.11637974688937902 1.4724311057516388 0
          0.04636265349842006 0.559062108881335 0 -0.003431060132015773 -1.6449139334822576 0
          0 0 0 0 0 0
          0.21772443431882493 1.2734630807599387 0 0.10050160872850711 0.4135832266742909 0
          0.013640316017244913 -1.7008656439306833 0 0 0 0
          0.2724838318292768 0.9149883496720577 0 0 0 0
          0.1132112852290561 0.2606355888856342 0 -0.007174154919312059 -1.7696029462458682 0
          0 0 0 0 0 0
          0.3692557571389443 0.4725684312656995 0 0.14232712583844886 0.053122876534189345 0
          0.0022117296500709926 -1.829134932290799 0 0 0 0
          0 0 0 0.3155426317339334 -0.06574928042664396 0
          0.044560694809021584 -0.25567729810290984 0 -0.17239648419558762 -1.8536050726752364 0
          0 0 0 0 0 0
          0.7870379020646396 -0.47518089473987857 0 0.28678128252810353 -1.0676843024061782 0
          -0.12139129283036709 -1.9459379317263483 0 0 0 0
          0 0 0 0.987431059436858 -1.2527815076023217 0
          0.18906361672907224 -1.9286024087109581 0 -0.6138734184844168 -1.7921447314811303 0
          0 0 0 0 0 0
          -1.9092775656590675 -0.9542005321836768 0 -2.2334837006717407 -2.0890056082203046 0
          -1.2505911115717936 -1.0751148717072283 0 0 0 0
          0 0 0 0 0 0
          0 0 0 0 0 0
          0 0 0
          <InformationKey name="L2_NORM_RANGE" location="vtkDataArray" length="2">
            <Value index="0">
              0
            </Value>
            <Value index="1">
              3.9983874684
            </Value>
          </InformationKey>
        </DataArray>
        <DataArray type="Float64" Name="Pressure" format="ascii" RangeMin="0" RangeMax="78464.46564067526">
          0 0.799127344154936 2450.8549054794867 2462.7285175593265 6.817013047458413 4906.986559633474
          4924.418725199329 2476.299664011603 4944.7505301890105 11.692822415016161 7358.2589908256905 7366.69480146518
          2472.446111812702 4932.367134321423 7375.50201561864 12.55913325716872 9809.91868937225 2465.1704521454376
          9807.499892670117 7372.780327337329 4916.977992729181 9806.4951102503 7367.116757237636 12259.997553850028
          9811.920266750658 12259.602071440171 12259.768289566171 9815.613929156085 12262.466349999435 14710.114583944787
          14711.68029761375 14713.763463699814 12263.990512086779 14713.46681230588 17160.16117921252 17167.43583243291
          14712.514720124 17174.997021634794 17168.532067226042 19610.349145145192 17161.66590582481 19623.382895641273
          19636.576689232425 19624.097918397412 19611.311057735773 22060.747801971673 22092.49779644444 22124.44186398992
          22092.99503934999 22061.367697822687 24511.636440242477 24562.089701321012 24612.767530060024 24562.293245028242
          24511.83754955642 26963.00882533653 26993.69440400129 27024.292134520598 26993.406458184658 26962.680909752806
          29414.54418527933 29425.369578959868 29435.904529058287 29424.70647253251 29413.753922744978 31865.77796555958
          31877.475350669767 31888.800486829594 31876.76907110535 31864.903580960527 34316.880248905225 34329.50957026344
          34341.787725890325 34328.89632032898 34316.0877080501 36768.02311384781 36794.391027268604 36820.48089940352
          36793.88018828544 36767.36351585426 39219.197807002936 39259.33389436972 39299.223507731534 39258.94869795315
          39218.738843752195 41670.53682048667 41719.04851554403 41767.41419367299 41718.79495133883 41670.20743187851
          44122.05805430694 44178.97437770164 44235.81237178701 44178.811666772366 44121.85100601789 46573.90443701315
          46599.3350350303 46624.65696991563 46599.121335794734 46573.66852630761 49026.073015973816 49019.912663781186
          49013.614921390246 49019.54724029088 49025.56142319151 51478.15159134131 51475.93917993542 51473.51266041587
          51475.46638084428 51477.5138865522 53930.07388992641 53931.90060299492 53933.41521797233 53931.4092854946
          53929.507439781126 56382.10036901044 56377.094040136144 56371.83648341634 56376.60772095476 56381.4776513671
          58834.34670161122 58822.47910511176 58810.49154026779 58821.92562793157 58833.525642727174 61286.7482642138
          61253.76358304074 61220.57587411112 61253.00139704754 61285.760484948514 63685.2441877304 63739.44268366614
          63630.78333915726 63684.14879739577 63738.04392405532 66192.30078417237 66152.08494082821 66111.45029862947
          66150.60921091604 66190.3865445002 68645.54208918764 68619.45010162117 68593.08045594589 68617.32148905049
          68642.7963383871 71099.0526874097 71085.57432615964 71071.20652038747 71082.74328380256 71095.91703869394
          73554.24988928408 73552.79299880576 73553.3687994649 73549.01416773016 73549.3306372646 76009.6841609199
          76012.23320009069 76010.79947362398 76004.94722971291 76004.70400742022 78460.4080054798 78463.90833562672
          78464.46564067526 78461.07993025992 78459.8029809945
        </DataArray>
        <DataArray type="Float64" Name="Temperature" format="ascii" RangeMin="-0.12105412155100281" RangeMax="1.0000000000000002">
          1 0.9439309257644504 1 0.9813678725576871 0.8689037441517431 1
          0.7686859842807896 0.9095087910401471 0.7178870723072222 0.757874113075618 1 0.5633883806895897
          0.9365776683096632 0.8819020036468562 0.4239871160828404 0 1 0
          0.5219727027005459 0.8086875283782788 0 0.42898029763749357 0 1
          0.7627161696727429 0.4767232875698313 0.6455490297103172 0 0.7622949884541445 1
          0.44797033793091434 0.8278295408229381 0 0.7562011863539445 1 0.42069106483702967
          0 0.9103676922025156 0.7373011978310837 1 0 0.3990720517781515
          0.9260155607369596 0.7085880128551738 0 1 0.38279020811832215 0.8763371560649664
          0.6781670039122198 0 1 0.37515815261254104 0.7768639631970315 0.6482807072744642
          0 1.0000000000000002 0.37463298296789804 0.7056369082826658 0.6141354192623607 0
          1 0.3757409490340175 0.649510671164509 0.5864790913490832 0 1
          0.3767943456095423 0.5966210693358367 0.5696557740695931 0 1 0.3768995531300964
          0.5615391019378762 0.5540501938157251 0 1 0.3747855562248518 0.5449881686361973
          0.5365965111637571 0 1 0.3728425343724972 0.539488668901127 0.517651483560923
          0 1 0.3770075300737372 0.5238456613648633 0.4981748826552984 0
          1 0.38897003607726577 0.4967435404871073 0.477875914606702 0 1
          0.40521334908020046 0.47204420156905197 0.45690463905121836 0 1 0.42299559735415443
          0.44998407498935256 0.4383011051551551 0 1 0.44136207513988795 0.4347063282390692
          0.4225298553063017 0 1 0.46271723517113916 0.4276773265916154 0.40779919706045514
          0 1 0.4952264981289443 0.4194458425202072 0.3946524613940942 0
          1 0.5361339892679878 0.41096590320643045 0.3809141434310348 0 1
          0.5654010226167847 0.408348452495832 0.3651832629424064 0 0.5867382908320572 1
          0.4084862617950168 0.34765627887249045 0 1 0.6023029213186404 0.4052121201661526
          0.3370844119761967 0 1 0.5945877125618264 0.39614321426799587 0.311442410338304
          0 1 0.7358136474623057 0.44405872018262416 0.28788411090355004 0
          1 0.8538815427127898 0.5137798981587635 0.21866619375659782 0 1
          0.538869074744223 0.31625463371621254 0.0735580064873239 0 1 0.019407792010134928
          0.1288492990293598 -0.12105412155100281 0
        </DataArray>
      </PointData>
      <CellData>
        <DataArray type="UInt8" Name="vtkGhostType" format="ascii" RangeMin="0" RangeMax="0">
          0 0 0 0 0 0
          0 0 0 0 0 0
          0 0 0 0 0 0
          0 0 0 0 0 0
          0 0 0 0 0 0
          0 0
        </DataArray>
      </CellData>
      <Points>
        <DataArray type="Float32" Name="Points" NumberOfComponents="3" format="ascii" RangeMin="0" RangeMax="8.06225774829855">
          0 8 0 0.25 8 0
          0 7.75 0 0.2516412138938904 7.749100208282471 0
          0.5 8 0 0 7.5 0
          0.2532823085784912 7.498199939727783 0 0.5032823085784912 7.748199939727783 0
          0.5065646171569824 7.496399879455566 0 0.75 8 0
          0 7.25 0 0.25276580452919006 7.24924898147583 0
          0.7516412138938904 7.749100208282471 0 0.7532823085784912 7.498199939727783 0
          0.5055314898490906 7.248498916625977 0 1 8 0
          0 7 0 1 7.75 0
          0.25224921107292175 7.000298023223877 0 0.7527657747268677 7.24924898147583 0
          1 7.5 0 0.5044984221458435 7.00059700012207 0
          1 7.25 0 0 6.75 0
          0.7522491812705994 7.000298023223877 0 0.2514094114303589 6.7500810623168945 0
          0.5028188228607178 6.7501630783081055 0 1 7 0
          0.7514094114303589 6.7500810623168945 0 0 6.5 0
          0.250569611787796 6.499864101409912 0 0.501139223575592 6.499728202819824 0
          1 6.75 0 0.7505695819854736 6.499864101409912 0
          0 6.25 0 0.24966830015182495 6.24927282333374 0
          1 6.5 0 0.49933651089668274 6.248545169830322 0
          0.749668300151825 6.24927282333374 0 0 6 0
          1 6.25 0 0.24876689910888672 5.99868106842041 0
          0.49753379821777344 5.99736213684082 0 0.7487668991088867 5.99868106842041 0
          1 6 0 0 5.75 0
          0.24663250148296356 5.746769905090332 0 0.4932650029659271 5.7435407638549805 0
          0.7466325163841248 5.746769905090332 0 1 5.75 0
          0 5.5 0 0.2444981038570404 5.4948601722717285 0
          0.48899608850479126 5.489719867706299 0 0.744498074054718 5.4948601722717285 0
          1 5.5 0 0 5.25 0
          0.24734920263290405 5.2468719482421875 0 0.4946984052658081 5.243743896484375 0
          0.747349202632904 5.2468719482421875 0 1 5.25 0
          0 5 0 0.25020039081573486 4.998884201049805 0
          0.5004007816314697 4.997767925262451 0 0.7502003908157349 4.998884201049805 0
          1 5 0 0 4.75 0
          0.2502462863922119 4.7487897872924805 0 0.5004926919937134 4.747579097747803 0
          0.7502462863922119 4.7487897872924805 0 1 4.75 0
          0 4.5 0 0.2502923011779785 4.498694896697998 0
          0.500584602355957 4.497389793395996 0 0.7502923011779785 4.498694896697998 0
          1 4.5 0 0 4.25 0
          0.25063058733940125 4.24729585647583 0 0.5012611150741577 4.244592189788818 0
          0.7506306171417236 4.24729585647583 0 1 4.25 0
          0 4 0 0.2509688138961792 3.995897054672241 0
          0.5019376277923584 3.991792917251587 0 0.7509688138961792 3.995897054672241 0
          1 4 0 0 3.75 0
          0.2500407099723816 3.7450449466705322 0 0.500081479549408 3.7400898933410645 0
          0.7500407099723816 3.7450449466705322 0 1 3.75 0
          0 3.5 0 0.24911269545555115 3.4941930770874023 0
          0.4982253909111023 3.4883859157562256 0 0.7491127252578735 3.4941930770874023 0
          1 3.5 0 0 3.25 0
          0.24996420741081238 3.247406005859375 0 0.49992841482162476 3.2448110580444336 0
          0.74996417760849 3.247406005859375 0 1 3.25 0
          0 3 0 0.2508156895637512 3.0006179809570312 0
          0.501631498336792 3.0012359619140625 0 0.7508156895637512 3.0006179809570312 0
          1 3 0 0 2.75 0
          0.25134411454200745 2.7502119541168213 0 0.5026882886886597 2.750422954559326 0
          0.7513440847396851 2.7502119541168213 0 1 2.75 0
          0 2.5 0 0.25187259912490845 2.499804973602295 0
          0.5037450790405273 2.4996109008789062 0 0.7518725991249084 2.499804973602295 0
          1 2.5 0 0 2.25 0
          0.2508259117603302 2.250502109527588 0 0.5016518235206604 2.2510039806365967 0
          0.7508258819580078 2.250502109527588 0 1 2.25 0
          0 2 0 0.24977919459342957 2.0011990070343018 0
          0.49955838918685913 2.0023980140686035 0 0.749779224395752 2.0011990070343018 0
          1 2 0 0 1.75 0
          0.25333869457244873 1.7533539533615112 0 0.5066773295402527 1.7567089796066284 0
          0.7533386945724487 1.7533539533615112 0 1 1.75 0
          0.25689810514450073 1.5055090188980103 0 0 1.5 0
          0.5137962102890015 1.511018991470337 0 0.7568981051445007 1.5055090188980103 0
          1 1.5 0 0 1.25 0
          0.25599539279937744 1.2540819644927979 0 0.5119907855987549 1.2581650018692017 0
          0.7559953927993774 1.2540819644927979 0 1 1.25 0
          0 1 0 0.25509271025657654 1.0026559829711914 0
          0.5101853013038635 1.0053110122680664 0 0.7550926804542542 1.0026559829711914 0
          1 1 0 0 0.75 0
          0.25327691435813904 0.7514302134513855 0 0.5065537095069885 0.752860426902771 0
          0.7532768845558167 0.7514302134513855 0 1 0.75 0
          0 0.5 0 0.25146108865737915 0.5002049207687378 0
          0.5029221773147583 0.5004099011421204 0 0.7514610886573792 0.5002049207687378 0
          1 0.5 0 0 0.25 0
          0.2507305145263672 0.2501024901866913 0 0.5014610886573792 0.2502048909664154 0
          0.7507305145263672 0.2501024901866913 0 1 0.25 0
          0 0 0 0.25 0 0
          0.5 0 0 0.75 0 0
          1 0 0
          <InformationKey name="L2_NORM_RANGE" location="vtkDataArray" length="2">
            <Value index="0">
              0
            </Value>
            <Value index="1">
              8.0622577483
            </Value>
          </InformationKey>
        </DataArray>
      </Points>
      <Cells>
        <DataArray type="Int64" Name="connectivity" format="ascii" RangeMin="0" RangeMax="164">
          20 15 4 8 17 9
          7 13 12 4 0 5
          8 1 2 6 7 3
          5 16 21 8 10 18
          14 6 11 20 8 21
          27 13 14 24 22 19
          36 27 21 31 32 24
          26 33 28 21 16 29
          31 18 23 30 26 25
          150 160 162 152 155 161
          157 151 156 162 164 154
          152 163 159 153 157 158
          44 36 31 42 40 33
          37 43 38 31 29 39
          42 30 34 41 37 35
          140 150 152 142 145 151
          147 141 146 152 154 144
          142 153 149 143 147 148
          39 50 52 42 45 51
          47 41 46 44 42 52
          54 43 47 53 49 48
          64 54 52 62 59 53
          57 63 58 52 50 60
          62 51 55 61 57 56
          131 140 142 132 135 141
          137 130 136 142 144 134
          132 143 139 133 137 138
          74 64 62 72 69 63
          67 73 68 62 60 70
          72 61 65 71 67 66
          120 131 132 122 125 130
          127 121 126 132 134 124
          122 133 129 123 127 128
          110 120 122 112 115 121
          117 111 116 122 124 114
          112 123 119 113 117 118
          114 104 102 112 109 103
          107 113 108 110 112 102
          100 111 107 101 105 106
          90 100 102 92 95 101
          97 91 96 102 104 94
          92 103 99 93 97 98
          80 90 92 82 85 91
          87 81 86 92 94 84
          82 93 89 83 87 88
          70 80 82 72 75 81
          77 71 76 72 82 84
          74 77 83 79 73 78
        </DataArray>
        <DataArray type="Int64" Name="offsets" format="ascii" RangeMin="9" RangeMax="288">
          9 18 27 36 45 54
          63 72 81 90 99 108
          117 126 135 144 153 162
          171 180 189 198 207 216
          225 234 243 252 261 270
          279 288
        </DataArray>
        <DataArray type="UInt8" Name="types" format="ascii" RangeMin="28" RangeMax="28">
          28 28 28 28 28 28
          28 28 28 28 28 28
          28 28 28 28 28 28
          28 28 28 28 28 28
          28 28 28 28 28 28
          28 28
        </DataArray>
      </Cells>
    </Piece>
  </UnstructuredGrid>
</VTKFile>
