<?xml version="1.0"?>
<VTKFile type="UnstructuredGrid" version="0.1" byte_order="LittleEndian" header_type="UInt32" compressor="vtkZLibDataCompressor">
  <UnstructuredGrid>
    <Piece NumberOfPoints="165" NumberOfCells="32">
      <PointData>
        <DataArray type="Float64" Name="nsi_BC" NumberOfComponents="3" format="ascii" RangeMin="0" RangeMax="0">
          0 0 0 0 0 0
          0 0 0 0 0 0
          0 0 0 0 0 0
          0 0 0 0 0 0
          0 0 0 0 0 0
          0 0 0 0 0 0
          0 0 0 0 0 0
          0 0 0 0 0 0
          0 0 0 0 0 0
          0 0 0 0 0 0
          0 0 0 0 0 0
          0 0 0 0 0 0
          0 0 0 0 0 0
          0 0 0 0 0 0
          0 0 0 0 0 0
          0 0 0 0 0 0
          0 0 0 0 0 0
          0 0 0 0 0 0
          0 0 0 0 0 0
          0 0 0 0 0 0
          0 0 0 0 0 0
          0 0 0 0 0 0
          0 0 0 0 0 0
          0 0 0 0 0 0
          0 0 0 0 0 0
          0 0 0 0 0 0
          0 0 0 0 0 0
          0 0 0 0 0 0
          0 0 0 0 0 0
          0 0 0 0 0 0
          0 0 0 0 0 0
          0 0 0 0 0 0
          0 0 0 0 0 0
          0 0 0 0 0 0
          0 0 0 0 0 0
          0 0 0 0 0 0
          0 0 0 0 0 0
          0 0 0 0 0 0
          0 0 0 0 0 0
          0 0 0 0 0 0
          0 0 0 0 0 0
          0 0 0 0 0 0
          0 0 0 0 0 0
          0 0 0 0 0 0
          0 0 0 0 0 0
          0 0 0 0 0 0
          0 0 0 0 0 0
          0 0 0 0 0 0
          0 0 0 0 0 0
          0 0 0 0 0 0
          0 0 0 0 0 0
          0 0 0 0 0 0
          0 0 0 0 0 0
          0 0 0 0 0 0
          0 0 0 0 0 0
          0 0 0 0 0 0
          0 0 0 0 0 0
          0 0 0 0 0 0
          0 0 0 0 0 0
          0 0 0 0 0 0
          0 0 0 0 0 0
          0 0 0 0 0 0
          0 0 0 0 0 0
          0 0 0 0 0 0
          0 0 0 0 0 0
          0 0 0 0 0 0
          0 0 0 0 0 0
          0 0 0 0 0 0
          0 0 0 0 0 0
          0 0 0 0 0 0
          0 0 0 0 0 0
          0 0 0 0 0 0
          0 0 0 0 0 0
          0 0 0 0 0 0
          0 0 0 0 0 0
          0 0 0 0 0 0
          0 0 0 0 0 0
          0 0 0 0 0 0
          0 0 0 0 0 0
          0 0 0 0 0 0
          0 0 0 0 0 0
          0 0 0 0 0 0
          0 0 0
          <InformationKey name="L2_NORM_RANGE" location="vtkDataArray" length="2">
            <Value index="0">
              0
            </Value>
            <Value index="1">
              0
            </Value>
          </InformationKey>
        </DataArray>
        <DataArray type="Float64" Name="nsi_FIXNO" NumberOfComponents="3" format="ascii" RangeMin="1.4142135623730951" RangeMax="1.4142135623730951">
          1 1 0 1 1 0
          1 1 0 -1 -1 0
          1 1 0 1 1 0
          -1 -1 0 -1 -1 0
          -1 -1 0 1 1 0
          1 1 0 -1 -1 0
          -1 -1 0 -1 -1 0
          -1 -1 0 1 1 0
          1 1 0 1 1 0
          -1 -1 0 -1 -1 0
          1 1 0 -1 -1 0
          1 1 0 1 1 0
          -1 -1 0 -1 -1 0
          -1 -1 0 1 1 0
          -1 -1 0 1 1 0
          -1 -1 0 -1 -1 0
          1 1 0 -1 -1 0
          1 1 0 -1 -1 0
          1 1 0 -1 -1 0
          -1 -1 0 1 1 0
          1 1 0 -1 -1 0
          -1 -1 0 -1 -1 0
          1 1 0 1 1 0
          -1 -1 0 -1 -1 0
          -1 -1 0 1 1 0
          1 1 0 -1 -1 0
          -1 -1 0 -1 -1 0
          1 1 0 1 1 0
          -1 -1 0 -1 -1 0
          -1 -1 0 1 1 0
          1 1 0 -1 -1 0
          -1 -1 0 -1 -1 0
          1 1 0 1 1 0
          -1 -1 0 -1 -1 0
          -1 -1 0 1 1 0
          1 1 0 -1 -1 0
          -1 -1 0 -1 -1 0
          1 1 0 1 1 0
          -1 -1 0 -1 -1 0
          -1 -1 0 1 1 0
          1 1 0 -1 -1 0
          -1 -1 0 -1 -1 0
          1 1 0 1 1 0
          -1 -1 0 -1 -1 0
          -1 -1 0 1 1 0
          1 1 0 -1 -1 0
          -1 -1 0 -1 -1 0
          1 1 0 1 1 0
          -1 -1 0 -1 -1 0
          -1 -1 0 1 1 0
          1 1 0 -1 -1 0
          -1 -1 0 -1 -1 0
          1 1 0 1 1 0
          -1 -1 0 -1 -1 0
          -1 -1 0 1 1 0
          1 1 0 -1 -1 0
          -1 -1 0 -1 -1 0
          1 1 0 1 1 0
          -1 -1 0 -1 -1 0
          -1 -1 0 1 1 0
          1 1 0 -1 -1 0
          -1 -1 0 -1 -1 0
          1 1 0 1 1 0
          -1 -1 0 -1 -1 0
          -1 -1 0 1 1 0
          -1 -1 0 1 1 0
          -1 -1 0 -1 -1 0
          1 1 0 1 1 0
          -1 -1 0 -1 -1 0
          -1 -1 0 1 1 0
          1 1 0 -1 -1 0
          -1 -1 0 -1 -1 0
          1 1 0 1 1 0
          -1 -1 0 -1 -1 0
          -1 -1 0 1 1 0
          1 1 0 -1 -1 0
          -1 -1 0 -1 -1 0
          1 1 0 1 1 0
          -1 -1 0 -1 -1 0
          -1 -1 0 1 1 0
          1 1 0 1 1 0
          1 1 0 1 1 0
          1 1 0
          <InformationKey name="L2_NORM_RANGE" location="vtkDataArray" length="2">
            <Value index="0">
              1.4142135624
            </Value>
            <Value index="1">
              1.4142135624
            </Value>
          </InformationKey>
        </DataArray>
        <DataArray type="Float64" Name="tem_BC" format="ascii" RangeMin="0" RangeMax="1">
          1 0 1 0 0 1
          0 0 0 0 1 0
          0 0 0 0 1 0
          0 0 0 0 0 1
          0 0 0 0 0 1
          0 0 0 0 1 0
          0 0 0 1 0 0
          0 0 0 1 0 0
          0 0 1 0 0 0
          0 1 0 0 0 0
          1 0 0 0 0 1
          0 0 0 0 1 0
          0 0 0 1 0 0
          0 0 1 0 0 0
          0 1 0 0 0 0
          1 0 0 0 0 1
          0 0 0 0 1 0
          0 0 0 1 0 0
          0 0 1 0 0 0
          0 1 0 0 0 0
          1 0 0 0 0 1
          0 0 0 0 0 1
          0 0 0 1 0 0
          0 0 1 0 0 0
          0 1 0 0 0 0
          1 0 0 0 0 1
          0 0 0 0 1 0
          0 0 0
        </DataArray>
        <DataArray type="Float64" Name="tem_FIXNO" format="ascii" RangeMin="-1" RangeMax="1">
          1 -1 1 -1 -1 1
          -1 -1 -1 -1 1 -1
          -1 -1 -1 1 1 1
          -1 -1 1 -1 1 1
          -1 -1 -1 1 -1 1
          -1 -1 1 -1 1 -1
          1 -1 -1 1 1 -1
          -1 -1 1 1 -1 -1
          -1 1 1 -1 -1 -1
          1 1 -1 -1 -1 1
          1 -1 -1 -1 1 1
          -1 -1 -1 1 1 -1
          -1 -1 1 1 -1 -1
          -1 1 1 -1 -1 -1
          1 1 -1 -1 -1 1
          1 -1 -1 -1 1 1
          -1 -1 -1 1 1 -1
          -1 -1 1 1 -1 -1
          -1 1 1 -1 -1 -1
          1 1 -1 -1 -1 1
          1 -1 -1 -1 1 1
          -1 -1 -1 1 -1 1
          -1 -1 1 1 -1 -1
          -1 1 1 -1 -1 -1
          1 1 -1 -1 -1 1
          1 -1 -1 -1 1 1
          -1 -1 -1 1 1 -1
          -1 -1 1
        </DataArray>
        <DataArray type="Float64" Name="Velocity" NumberOfComponents="3" format="ascii" RangeMin="0" RangeMax="9.107360606582436">
          0 0 0 0 0 0
          0 0 0 4.9740271936479985 -2.7613070902480104 0
          0 0 0 0 0 0
          0.5426829426405675 -2.878609320065152 0 4.648613134345396 -5.408177200103864 0
          1.7974687797947126 -8.586087266985828 0 0 0 0
          0 0 0 1.0063197944728017 -2.782237558997622 0
          1.8758444617205896 -2.0511179387931406 0 1.067719558767294 -4.168662886888342 0
          1.3215351430744704 -8.669062667539038 0 0 0 0
          0 0 0 0 0 0
          0.2632382142019196 -2.5194431077507033 0 0.7770865776665232 -5.056736233882475 0
          0 0 0 0.6083956520783431 -8.935495167303998 0
          0 0 0 0 0 0
          0.3685033630358703 -5.581655124980898 0 0.20725029173445364 -2.378218130041205 0
          0.3177625193429776 -8.892123757266745 0 0 0 0
          0.21998506533691398 -5.7877425957267405 0 0 0 0
          0.040786635499898694 -2.253771407511522 0 0.12928279537800336 -8.882370568291662 0
          0 0 0 0.10095087696117844 -5.892167246693134 0
          0 0 0 0.0046816543326713145 -2.1752073740717606 0
          0 0 0 0.030228675956095685 -8.832391783231287 0
          0.04920884674356785 -5.916458664636593 0 0 0 0
          0 0 0 -0.051861027775885304 -2.1154858552363294 0
          -0.028898282394038688 -8.784090571410161 0 0.026375298345556075 -5.905452434184554 0
          0 0 0 0 0 0
          -0.042061343490786385 -2.0244216063692875 0 -0.056049937984425924 -8.720119875835735 0
          0.006503989034172264 -5.895923598607624 0 0 0 0
          0 0 0 -0.020157304941676557 -1.8959139928774675 0
          0.019685780145664467 -8.66973821389729 0 -0.012919598440930713 -5.927400496126211 0
          0 0 0 0 0 0
          0.05383530059043551 -1.9269302481770865 0 0.08700226603104966 -8.757305301503948 0
          -0.004092812414455693 -5.932484445191221 0 0 0 0
          0 0 0 0.10799310077709379 -2.055484044700279 0
          0.07114099906812044 -8.82287038265531 0 0.013236030366897467 -5.938537512658513 0
          0 0 0 0 0 0
          0.05880792808602564 -2.121886693734268 0 0.05775753819034435 -8.842845565428433 0
          0.02436814563407097 -5.97346078116243 0 0 0 0
          0 0 0 0.04371001307663391 -2.159155353096139 0
          0.03599660408872296 -8.870970416101045 0 0.018623252033648896 -5.9950373192477855 0
          0 0 0 0 0 0
          0.009808707189222332 -2.189296993834432 0 0.01584579420159571 -8.876610447761777 0
          0.004901256445009494 -6.000303068365611 0 0 0 0
          0 0 0 -0.025781595846638083 -2.1873675750539405 0
          -0.017518660844871192 -8.884793302819162 0 -0.005728588796046097 -5.995971017153352 0
          0 0 0 0 0 0
          -0.03639919754641596 -2.1306898539260146 0 -0.044908491443493403 -8.85730068886187 0
          -0.01150995632269769 -5.996480207788409 0 0 0 0
          0 0 0 -0.046636216990009416 -2.031417986509041 0
          -0.005989067842165241 -8.842141637545865 0 -0.020119452428843942 -6.012151134986198 0
          0 0 0 0 0 0
          0.015269040573912207 -2.0030772166574025 0 0.022984601539064897 -8.880323772766133 0
          -0.003916950972779887 -6.018413164434605 0 0 0 0
          0 0 0 0.0708161119982833 -2.086230055669148 0
          0.02484157509934448 -8.88919085060843 0 0.012748088694934268 -6.012585081269208 0
          0 0 0 0 0 0
          0.028482868714490905 -2.1700065494369483 0 0.03336561574906227 -8.89484899951276 0
          0.009285503518185578 -6.012747123968438 0 0 0 0
          0 0 0 -0.00801226408657385 -2.177997618142399 0
          0.010759187698567985 -8.924402547629143 0 0.0032907933709793724 -6.0198840241500875 0
          0 0 0 0 0 0
          0.0013205967261455953 -2.12857724641799 0 -0.014170188700518338 -8.925324776970228 0
          0.0003538475721143186 -6.042967592729838 0 0 0 0
          0 0 0 0.04134202244313201 -2.102233213139698 0
          0.02652392456366215 -8.921026014191739 0 -0.024392092374910135 -6.082568965197424 0
          0 0 0 0 0 0
          0.035166624758858234 -2.2428462172392756 0 0.038259841909166425 -9.024503980268491 0
          -0.049283555505098775 -6.068641614008811 0 0 0 0
          0.018513449037641294 -2.464233340571809 0 0 0 0
          -0.11078850450940081 -9.106686726005137 0 -0.07974254953296622 -6.012308206118178 0
          0 0 0 0 0 0
          -0.23068212856014725 -2.6112720097153215 0 -0.35143180959130405 -9.054108422496938 0
          -0.2022217960402486 -5.905922151869163 0 0 0 0
          0 0 0 -0.3559009409509599 -2.6996476042986615 0
          -0.6755008749278204 -9.05290120411155 0 -0.35374160918945563 -5.6734574695146875 0
          0 0 0 0 0 0
          -1.0919312290207017 -2.8718426209379686 0 -1.4225127841564245 -8.714185535674915 0
          -0.788678586781316 -5.113238500533043 0 0 0 0
          0 0 0 -0.633786318503553 -2.860266524992767 0
          -1.8884394812739629 -8.576802265662991 0 -1.1079158956308675 -4.203202362492448 0
          0 0 0 0 0 0
          -5.009075404697796 -2.722659083214239 0 -4.698758490703767 -5.397084250929765 0
          -1.9096793017961318 -2.0593967611639528 0 0 0 0
          0 0 0 0 0 0
          0 0 0 0 0 0
          0 0 0
          <InformationKey name="L2_NORM_RANGE" location="vtkDataArray" length="2">
            <Value index="0">
              0
            </Value>
            <Value index="1">
              9.1073606066
            </Value>
          </InformationKey>
        </DataArray>
        <DataArray type="Float64" Name="Pressure" format="ascii" RangeMin="-6.7327396360975635" RangeMax="78471.08721173744">
          0 -3.372837378382626 2449.7758003606377 2457.892811046189 -5.5641927581243475 4901.398612791476
          4918.635022070421 2465.451527221131 4935.711152000173 -6.373282944674458 7353.2004695974565 7360.416758554863
          2455.822712652619 4917.5539545068905 7367.462138522043 -6.7327396360975635 9805.251015184493 2446.7019642141927
          9802.249222231525 7359.830914386244 4899.678089669106 9799.171464193802 7352.3367904911975 12257.386376887513
          9801.951533386551 12256.56086486941 12255.689044858815 9804.802607382824 12256.41706726748 14709.57778570806
          14710.907212079062 14712.219732490163 12257.174221581306 14710.846909596628 17161.815383727397 17168.94794922864
          14709.491350039067 17176.08946503225 17168.932314067963 19614.060987821304 17161.791289556615 19627.01629192829
          19639.97228267624 19627.025684001437 19614.07739222216 22066.3475220805 22098.040106603316 22129.73698141941
          22098.062015481242 22066.376309264764 24518.649118366207 24569.083976249316 24619.505396964752 24569.089059600992
          24518.676425272854 26970.996282369557 27001.668232956694 27032.32234842719 27001.640104447124 26970.958888717658
          29423.317928684104 29434.225771829668 29445.137852839398 29434.186132550236 29423.23952033233 31875.55818661808
          31887.415902747445 31899.273589635162 31887.38437761634 31875.51264104961 34327.820736269416 34340.606769465376
          34353.394369624104 34340.58647361316 34327.781914785905 36780.061044892 36806.582738117606 36833.10142780311
          36806.57598396491 36780.0514329588 39232.29925814136 39272.55490585317 39312.81902847201 39272.564741949
          39232.31886983469 41684.556192313845 41733.16704028959 41781.78850090539 41733.189547120775 41684.58701799024
          44136.81261360594 44193.79755106311 44250.77037501389 44193.81446174885 44136.859856827694 46589.12870334057
          46614.57032444161 46640.01652671552 46614.56314833335 46589.11954361047 49041.43725240728 49035.34422914301
          49029.26159484206 49035.32052831958 49041.37953540715 51493.66911238804 51491.58409650177 51489.50186288291
          51491.5676276501 51493.6460696123 53945.903883620485 53947.82329843637 53949.728392360026 53947.82283855671
          53945.90968899609 56398.16614234675 56393.24167171467 56388.32228012648 56393.24575137528 56398.17036633753
          58850.44538602484 58838.67168459092 58826.89596499252 58838.66440953844 58850.43497942522 61302.695994893606
          61269.78715735162 61236.85212640871 61269.777288399346 61302.68668649131 63700.85380366376 63754.91296683923
          63646.813131308496 63700.893474883356 63754.94702104016 66207.01071809322 66167.00995034605 66127.0414859198
          66167.16055995961 66207.23483240078 68659.07242681578 68633.13002187297 68607.26735568339 68633.4583753764
          68659.57481062291 71111.10462106767 71097.24467975447 71083.56540828724 71097.87388362145 71112.03106518016
          73562.89182060277 73561.32857938108 73559.92016731974 73562.4496727832 73564.68396786871 76014.55390463948
          76014.26023221565 76014.53483919395 76016.353455987 76017.65417437609 78464.33949700331 78467.71558514837
          78469.91052553437 78470.72421363181 78471.08721173744
        </DataArray>
        <DataArray type="Float64" Name="Temperature" format="ascii" RangeMin="-0.17384290133319372" RangeMax="1.0000000000000002">
          1 0.8396519045684869 1 0.9529403820707544 0.5730662642639222 1
          0.9494646819792515 0.817029395824509 0.8673936838428732 0.15012624386544723 1 0.8963065033618506
          0.5065303007152311 0.6726841666443035 0.8395646155620423 0 1 0
          0.8404879762932604 0.713345936507147 0 0.809550744346747 0 1
          0.7206792596491094 0.7708040071535889 0.7874927858348372 0 0.7064196447036183 1
          0.6997959767970643 0.7701416549943825 0 0.6844821963774496 1 0.6292189915723635
          0 0.7567920680676057 0.6578663423219876 1 0 0.5630589798493443
          0.7450378394478384 0.6302957929879566 0 1 0.50162065343716 0.7313839791648291
          0.604575733132726 0 1 0.44530093160131234 0.7155011896066424 0.5793617685136019
          0 1 0.4018582720215718 0.7070910068009792 0.5477111449197225 0
          1 0.36999658199931246 0.6937173369918735 0.5192196490146327 0 1
          0.34030554678931935 0.672400765950127 0.49835355374222473 0 1 0.3130136698969112
          0.6526661393614386 0.4783406455712126 0 1 0.28798871511469576 0.6351928465244767
          0.4577465032452874 0 1 0.26367053084379766 0.6202829073968623 0.43699357564847713
          0 1 0.23991261838593678 0.6044260895047324 0.41868568917242166 0
          1 0.2169177389176897 0.5888635643896907 0.4008690678967584 0 1
          0.20079782985191616 0.5753069902855781 0.3819488021383309 0 1 0.19254629442830884
          0.557605646347224 0.36557455362815605 0 1.0000000000000002 0.18433205621032991 0.5385466885052157
          0.35072176007684686 0 1 0.1733070023496972 0.5224847662343013 0.33576387377143374
          0 1 0.16146368658057997 0.5047775848971336 0.32376942771329686 0
          1 0.15403278247703459 0.48542306536992946 0.3120856097456478 0 1
          0.15216147848376374 0.47567316241593344 0.2932204244715085 0 0.15305236730462637 1
          0.46752332529199486 0.27341717449170155 0 1 0.13910424838792293 0.4632342819643158
          0.25509397885784135 0 1 0.1327329149710658 0.46323498080183223 0.23085759363296798
          0 1 0.1147708701719242 0.4974874358489588 0.18285010539729438 0
          1 0.16326180552919767 0.49159369428760463 0.12006829009446322 0 1.0000000000000002
          0.24306433434528077 0.3735633926682171 0.012402102985142237 0 1 0.06830767342803375
          0.20995925765603787 -0.17384290133319372 0
        </DataArray>
      </PointData>
      <CellData>
        <DataArray type="UInt8" Name="vtkGhostType" format="ascii" RangeMin="0" RangeMax="0">
          0 0 0 0 0 0
          0 0 0 0 0 0
          0 0 0 0 0 0
          0 0 0 0 0 0
          0 0 0 0 0 0
          0 0
        </DataArray>
      </CellData>
      <Points>
        <DataArray type="Float32" Name="Points" NumberOfComponents="3" format="ascii" RangeMin="0" RangeMax="8.06225774829855">
          0 8 0 0.25 8 0
          0 7.75 0 0.2516412138938904 7.749100208282471 0
          0.5 8 0 0 7.5 0
          0.2532823085784912 7.498199939727783 0 0.5032823085784912 7.748199939727783 0
          0.5065646171569824 7.496399879455566 0 0.75 8 0
          0 7.25 0 0.25276580452919006 7.24924898147583 0
          0.7516412138938904 7.749100208282471 0 0.7532823085784912 7.498199939727783 0
          0.5055314898490906 7.248498916625977 0 1 8 0
          0 7 0 1 7.75 0
          0.25224921107292175 7.000298023223877 0 0.7527657747268677 7.24924898147583 0
          1 7.5 0 0.5044984221458435 7.00059700012207 0
          1 7.25 0 0 6.75 0
          0.7522491812705994 7.000298023223877 0 0.2514094114303589 6.7500810623168945 0
          0.5028188228607178 6.7501630783081055 0 1 7 0
          0.7514094114303589 6.7500810623168945 0 0 6.5 0
          0.250569611787796 6.499864101409912 0 0.501139223575592 6.499728202819824 0
          1 6.75 0 0.7505695819854736 6.499864101409912 0
          0 6.25 0 0.24966830015182495 6.24927282333374 0
          1 6.5 0 0.49933651089668274 6.248545169830322 0
          0.749668300151825 6.24927282333374 0 0 6 0
          1 6.25 0 0.24876689910888672 5.99868106842041 0
          0.49753379821777344 5.99736213684082 0 0.7487668991088867 5.99868106842041 0
          1 6 0 0 5.75 0
          0.24663250148296356 5.746769905090332 0 0.4932650029659271 5.7435407638549805 0
          0.7466325163841248 5.746769905090332 0 1 5.75 0
          0 5.5 0 0.2444981038570404 5.4948601722717285 0
          0.48899608850479126 5.489719867706299 0 0.744498074054718 5.4948601722717285 0
          1 5.5 0 0 5.25 0
          0.24734920263290405 5.2468719482421875 0 0.4946984052658081 5.243743896484375 0
          0.747349202632904 5.2468719482421875 0 1 5.25 0
          0 5 0 0.25020039081573486 4.998884201049805 0
          0.5004007816314697 4.997767925262451 0 0.7502003908157349 4.998884201049805 0
          1 5 0 0 4.75 0
          0.2502462863922119 4.7487897872924805 0 0.5004926919937134 4.747579097747803 0
          0.7502462863922119 4.7487897872924805 0 1 4.75 0
          0 4.5 0 0.2502923011779785 4.498694896697998 0
          0.500584602355957 4.497389793395996 0 0.7502923011779785 4.498694896697998 0
          1 4.5 0 0 4.25 0
          0.25063058733940125 4.24729585647583 0 0.5012611150741577 4.244592189788818 0
          0.7506306171417236 4.24729585647583 0 1 4.25 0
          0 4 0 0.2509688138961792 3.995897054672241 0
          0.5019376277923584 3.991792917251587 0 0.7509688138961792 3.995897054672241 0
          1 4 0 0 3.75 0
          0.2500407099723816 3.7450449466705322 0 0.500081479549408 3.7400898933410645 0
          0.7500407099723816 3.7450449466705322 0 1 3.75 0
          0 3.5 0 0.24911269545555115 3.4941930770874023 0
          0.4982253909111023 3.4883859157562256 0 0.7491127252578735 3.4941930770874023 0
          1 3.5 0 0 3.25 0
          0.24996420741081238 3.247406005859375 0 0.49992841482162476 3.2448110580444336 0
          0.74996417760849 3.247406005859375 0 1 3.25 0
          0 3 0 0.2508156895637512 3.0006179809570312 0
          0.501631498336792 3.0012359619140625 0 0.7508156895637512 3.0006179809570312 0
          1 3 0 0 2.75 0
          0.25134411454200745 2.7502119541168213 0 0.5026882886886597 2.750422954559326 0
          0.7513440847396851 2.7502119541168213 0 1 2.75 0
          0 2.5 0 0.25187259912490845 2.499804973602295 0
          0.5037450790405273 2.4996109008789062 0 0.7518725991249084 2.499804973602295 0
          1 2.5 0 0 2.25 0
          0.2508259117603302 2.250502109527588 0 0.5016518235206604 2.2510039806365967 0
          0.7508258819580078 2.250502109527588 0 1 2.25 0
          0 2 0 0.24977919459342957 2.0011990070343018 0
          0.49955838918685913 2.0023980140686035 0 0.749779224395752 2.0011990070343018 0
          1 2 0 0 1.75 0
          0.25333869457244873 1.7533539533615112 0 0.5066773295402527 1.7567089796066284 0
          0.7533386945724487 1.7533539533615112 0 1 1.75 0
          0.25689810514450073 1.5055090188980103 0 0 1.5 0
          0.5137962102890015 1.511018991470337 0 0.7568981051445007 1.5055090188980103 0
          1 1.5 0 0 1.25 0
          0.25599539279937744 1.2540819644927979 0 0.5119907855987549 1.2581650018692017 0
          0.7559953927993774 1.2540819644927979 0 1 1.25 0
          0 1 0 0.25509271025657654 1.0026559829711914 0
          0.5101853013038635 1.0053110122680664 0 0.7550926804542542 1.0026559829711914 0
          1 1 0 0 0.75 0
          0.25327691435813904 0.7514302134513855 0 0.5065537095069885 0.752860426902771 0
          0.7532768845558167 0.7514302134513855 0 1 0.75 0
          0 0.5 0 0.25146108865737915 0.5002049207687378 0
          0.5029221773147583 0.5004099011421204 0 0.7514610886573792 0.5002049207687378 0
          1 0.5 0 0 0.25 0
          0.2507305145263672 0.2501024901866913 0 0.5014610886573792 0.2502048909664154 0
          0.7507305145263672 0.2501024901866913 0 1 0.25 0
          0 0 0 0.25 0 0
          0.5 0 0 0.75 0 0
          1 0 0
          <InformationKey name="L2_NORM_RANGE" location="vtkDataArray" length="2">
            <Value index="0">
              0
            </Value>
            <Value index="1">
              8.0622577483
            </Value>
          </InformationKey>
        </DataArray>
      </Points>
      <Cells>
        <DataArray type="Int64" Name="connectivity" format="ascii" RangeMin="0" RangeMax="164">
          20 15 4 8 17 9
          7 13 12 4 0 5
          8 1 2 6 7 3
          5 16 21 8 10 18
          14 6 11 20 8 21
          27 13 14 24 22 19
          36 27 21 31 32 24
          26 33 28 21 16 29
          31 18 23 30 26 25
          150 160 162 152 155 161
          157 151 156 162 164 154
          152 163 159 153 157 158
          44 36 31 42 40 33
          37 43 38 31 29 39
          42 30 34 41 37 35
          140 150 152 142 145 151
          147 141 146 152 154 144
          142 153 149 143 147 148
          39 50 52 42 45 51
          47 41 46 44 42 52
          54 43 47 53 49 48
          64 54 52 62 59 53
          57 63 58 52 50 60
          62 51 55 61 57 56
          131 140 142 132 135 141
          137 130 136 142 144 134
          132 143 139 133 137 138
          74 64 62 72 69 63
          67 73 68 62 60 70
          72 61 65 71 67 66
          120 131 132 122 125 130
          127 121 126 132 134 124
          122 133 129 123 127 128
          110 120 122 112 115 121
          117 111 116 122 124 114
          112 123 119 113 117 118
          114 104 102 112 109 103
          107 113 108 110 112 102
          100 111 107 101 105 106
          90 100 102 92 95 101
          97 91 96 102 104 94
          92 103 99 93 97 98
          80 90 92 82 85 91
          87 81 86 92 94 84
          82 93 89 83 87 88
          70 80 82 72 75 81
          77 71 76 72 82 84
          74 77 83 79 73 78
        </DataArray>
        <DataArray type="Int64" Name="offsets" format="ascii" RangeMin="9" RangeMax="288">
          9 18 27 36 45 54
          63 72 81 90 99 108
          117 126 135 144 153 162
          171 180 189 198 207 216
          225 234 243 252 261 270
          279 288
        </DataArray>
        <DataArray type="UInt8" Name="types" format="ascii" RangeMin="28" RangeMax="28">
          28 28 28 28 28 28
          28 28 28 28 28 28
          28 28 28 28 28 28
          28 28 28 28 28 28
          28 28 28 28 28 28
          28 28
        </DataArray>
      </Cells>
    </Piece>
  </UnstructuredGrid>
</VTKFile>
