<?xml version="1.0"?>
<VTKFile type="UnstructuredGrid" version="0.1" byte_order="LittleEndian" header_type="UInt32" compressor="vtkZLibDataCompressor">
  <UnstructuredGrid>
    <Piece NumberOfPoints="8" NumberOfCells="6">
      <PointData>
        <DataArray type="Float64" Name="Disp" NumberOfComponents="3" format="ascii" RangeMin="4.995812072285946e-21" RangeMax="0.0011454416229349164">
          -0.00003576687023835066 -0.001137636249709997 0 -0.00010202372483116771 -0.001140888982821444 0
          0.00004001090958468011 -0.0006296441330944367 0 -0.00010820966205347263 -0.0006499450575439469 0
          -3.939338644282451e-21 -3.072417502108218e-21 0 -1.0549004917565956e-19 -1.3469556368756302e-20 0
          -0.00006131927565123225 -0.0011260966034485993 0 -0.0000780978280788816 -0.001131289680564057 0
          <InformationKey name="L2_NORM_RANGE" location="vtkDataArray" length="2">
            <Value index="0">
              4.9958120723e-21
            </Value>
            <Value index="1">
              0.0011454416229
            </Value>
          </InformationKey>
        </DataArray>
        <DataArray type="Float64" Name="Sld_traction" NumberOfComponents="3" format="ascii" RangeMin="228.62978671904824" RangeMax="4314.387446122925">
          889.3765869241927 79.25663616378012 0 1082.0624583091617 -524.3368625883468 0
          -2210.229460630221 1011.6140445939797 0 1393.6356821894633 -309.04253376941034 0
          -3879.079243394616 1888.5664559999348 0 347.6829227434322 1035.6531028635611 0
          -25.63668486429186 -227.18789528574464 0 1140.9567806937437 -717.0813927752154 0
          <InformationKey name="L2_NORM_RANGE" location="vtkDataArray" length="2">
            <Value index="0">
              228.62978672
            </Value>
            <Value index="1">
              4314.3874461
            </Value>
          </InformationKey>
        </DataArray>
        <DataArray type="Float64" Name="Velocity" NumberOfComponents="3" format="ascii" RangeMin="2.049452470237207e-19" RangeMax="0.04494877087110493">
          0.0041484336091918515 -0.019446566789245754 0 -0.001822864210666505 -0.019735247941005934 0
          0.002159862981856199 -0.0005650881980513653 0 -0.0004998313294150834 -0.0004145326678250301 0
          1.617031092859923e-19 1.259152839208026e-19 0 4.339050390451077e-18 5.522865210965807e-19 0
          -0.001284088816077856 -0.0449304253122037 0 0.0031620951086047044 -0.04477729377043347 0
          <InformationKey name="L2_NORM_RANGE" location="vtkDataArray" length="2">
            <Value index="0">
              2.0494524702e-19
            </Value>
            <Value index="1">
              0.044948770871
            </Value>
          </InformationKey>
        </DataArray>
        <DataArray type="Float64" Name="Acceleration" NumberOfComponents="3" format="ascii" RangeMin="5.4093347375554273e-17" RangeMax="2.8331453814641194">
          0.5099548157802363 2.1667455028920006 0 -0.024161408839675214 2.1088429085364795 0
          0.041514220137758295 2.7305812227396205 0 0.3023817202744766 2.816962557038222 0
          4.267536396319642e-17 3.324008936361485e-17 0 1.1447168087290179e-15 1.4578384168624318e-16 0
          -0.15239352937197667 -1.3063388511191487 0 0.35987065167739135 -1.244645428490041 0
          <InformationKey name="L2_NORM_RANGE" location="vtkDataArray" length="2">
            <Value index="0">
              5.4093347376e-17
            </Value>
            <Value index="1">
              2.8331453815
            </Value>
          </InformationKey>
        </DataArray>
      </PointData>
      <CellData>
        <DataArray type="UInt8" Name="vtkGhostType" format="ascii" RangeMin="0" RangeMax="1">
          1 1 0 0 0 0
        </DataArray>
        <DataArray type="Float64" Name="Gauss Stress" NumberOfComponents="6" format="ascii" RangeMin="1321.7354702746163" RangeMax="4947.155049289377">
          1225.1686818800292 384.02269496520506 0 -313.8039580280563 0 0
          -1488.910596306619 -721.5459715838226 0 1701.7540015771406 0 0
          -2607.464500197791 -46.565962672667865 0 -936.9504057886595 0 0
          1714.7532679148635 1143.1688452765768 0 -4497.458093531688 0 0
          590.3849063863476 664.6510302114885 0 -1850.3209585902669 0 0
          -1217.5266903217153 880.0592439113825 0 76.99917227124536 0 0
          <InformationKey name="L2_NORM_RANGE" location="vtkDataArray" length="2">
            <Value index="0">
              1321.7354703
            </Value>
            <Value index="1">
              4947.1550493
            </Value>
          </InformationKey>
        </DataArray>
        <DataArray type="Float64" Name="Gauss Strain" NumberOfComponents="6" format="ascii" RangeMin="0.0008941168378316194" RangeMax="0.009013058635363329">
          0.0005814921311419355 -0.0002596538557728886 0 -0.0006276079160561126 0 0
          -0.0006047279691504422 0.00016263665557235407 0 0.00340350800315428 0 0
          -0.0015458523150496074 0.0010150462224755158 0 -0.0018739008115773188 0 0
          0.0005715844226382873 5.198569433324042e-19 0 -0.008994916187063376 0 0
          0.00008837053174721304 0.00016263665557235407 0 -0.003700641917180534 0 0
          -0.0010825397117575823 0.0010150462224755158 0 0.0001539983445424907 0 0
          <InformationKey name="L2_NORM_RANGE" location="vtkDataArray" length="2">
            <Value index="0">
              0.00089411683783
            </Value>
            <Value index="1">
              0.0090130586354
            </Value>
          </InformationKey>
        </DataArray>
        <DataArray type="Float64" Name="Btraction" NumberOfComponents="3" format="ascii" RangeMin="0" RangeMax="0">
          0 0 0 0 0 0
          0 0 0 0 0 0
          0 0 0 0 0 0
          <InformationKey name="L2_NORM_RANGE" location="vtkDataArray" length="2">
            <Value index="0">
              0
            </Value>
            <Value index="1">
              0
            </Value>
          </InformationKey>
        </DataArray>
      </CellData>
      <Points>
        <DataArray type="Float32" Name="Points" NumberOfComponents="3" format="ascii" RangeMin="0" RangeMax="0.21095022452792997">
          0.14000000059604645 0.019999999552965164 0 0.14000000059604645 0 0
          0.07000000029802322 0.019999999552965164 0 0.07000000029802322 0 0
          0 0.019999999552965164 0 0 0 0
          0.20999999344348907 0 0 0.20999999344348907 0.019999999552965164 0
          <InformationKey name="L2_NORM_RANGE" location="vtkDataArray" length="2">
            <Value index="0">
              0
            </Value>
            <Value index="1">
              0.21095022453
            </Value>
          </InformationKey>
        </DataArray>
      </Points>
      <Cells>
        <DataArray type="Int64" Name="connectivity" format="ascii" RangeMin="0" RangeMax="7">
          6 7 1 7 0 1
          3 2 5 2 4 5
          1 0 3 0 2 3
        </DataArray>
        <DataArray type="Int64" Name="offsets" format="ascii" RangeMin="3" RangeMax="18">
          3 6 9 12 15 18
        </DataArray>
        <DataArray type="UInt8" Name="types" format="ascii" RangeMin="5" RangeMax="5">
          5 5 5 5 5 5
        </DataArray>
      </Cells>
    </Piece>
  </UnstructuredGrid>
</VTKFile>
