<?xml version="1.0"?>
<VTKFile type="UnstructuredGrid" version="0.1" byte_order="LittleEndian" header_type="UInt32" compressor="vtkZLibDataCompressor">
  <UnstructuredGrid>
    <Piece NumberOfPoints="8" NumberOfCells="6">
      <PointData>
        <DataArray type="Float64" Name="Disp" NumberOfComponents="3" format="ascii" RangeMin="5.476510281896561e-21" RangeMax="0.0005872586636706613">
          -0.00011076007312875872 -0.0005767191207657008 0 -0.000051961348087081 -0.0005789960075095841 0
          -0.000005568662914774479 -0.00046282089595341835 0 -0.00007708145580149979 -0.00048262038357198354 0
          -4.31835678339093e-21 -3.3680795060479624e-21 0 -1.1563659834017345e-19 -1.476569012270981e-20 0
          -0.000006342580802709227 -0.00006007165877259388 0 -0.00016584531552617883 -0.0000656008826323756 0
          <InformationKey name="L2_NORM_RANGE" location="vtkDataArray" length="2">
            <Value index="0">
              5.4765102819e-21
            </Value>
            <Value index="1">
              0.00058725866367
            </Value>
          </InformationKey>
        </DataArray>
        <DataArray type="Float64" Name="Sld_traction" NumberOfComponents="3" format="ascii" RangeMin="270.69616281466443" RangeMax="2591.2307930253396">
          1577.5687527811053 -633.9383886935622 0 1219.6656584950924 -766.6300734332059 0
          -1165.8012345077207 -97.32518758987842 0 1908.9170358997053 -913.4231045110597 0
          -2518.192314838597 610.8882780104383 0 1343.7327097273078 137.6173606505919 0
          -79.65352140630793 -258.7116717315981 0 1417.2296137771027 -1050.860396141285 0
          <InformationKey name="L2_NORM_RANGE" location="vtkDataArray" length="2">
            <Value index="0">
              270.69616281
            </Value>
            <Value index="1">
              2591.230793
            </Value>
          </InformationKey>
        </DataArray>
        <DataArray type="Float64" Name="Velocity" NumberOfComponents="3" format="ascii" RangeMin="8.495147673046494e-20" RangeMax="0.023448431715512086">
          0.0018556365171981523 0.020921948196814248 0 0.003530975501444819 0.021147492344168843 0
          -0.0001405820771840985 0.01067563186648073 0 0.002660143685688343 0.011165870291430288 0
          6.695783807217188e-20 5.2281940662025304e-20 0 1.790378959977931e-18 2.291271861869026e-19 0
          0.003549120983888966 0.02317828056950627 0 0.0033391969503304376 0.02313848016704076 0
          <InformationKey name="L2_NORM_RANGE" location="vtkDataArray" length="2">
            <Value index="0">
              8.495147673e-20
            </Value>
            <Value index="1">
              0.023448431716
            </Value>
          </InformationKey>
        </DataArray>
        <DataArray type="Float64" Name="Acceleration" NumberOfComponents="3" format="ascii" RangeMin="5.96759069063175e-17" RangeMax="2.981563867826303">
          0.6352575013652253 2.130740647040087 0 0.04150452155232953 2.073388875569231 0
          0.09315648348553807 2.8621149185393975 0 0.35119968219460274 2.960807640012055 0
          4.707872405913297e-17 3.667161853607618e-17 0 1.2627531042211268e-15 1.60831540747691e-16 0
          -0.04309285036949312 -1.6343985349690087 0 0.4890134360647117 -1.573892860781977 0
          <InformationKey name="L2_NORM_RANGE" location="vtkDataArray" length="2">
            <Value index="0">
              5.9675906906e-17
            </Value>
            <Value index="1">
              2.9815638678
            </Value>
          </InformationKey>
        </DataArray>
      </PointData>
      <CellData>
        <DataArray type="UInt8" Name="vtkGhostType" format="ascii" RangeMin="0" RangeMax="1">
          1 1 0 0 0 0
        </DataArray>
        <DataArray type="Float64" Name="Gauss Stress" NumberOfComponents="6" format="ascii" RangeMin="1506.5527472066033" RangeMax="3318.2834731271228">
          1402.1676404949044 474.00977201479225 0 -280.96587710823695 0 0
          -2133.1074283582366 -1232.3310569152081 0 2180.876432053238 0 0
          -1323.5422010648967 767.5958341705 0 -1659.4686319174639 0 0
          -238.6569820617621 -159.10465470784047 0 -3305.8635425244142 0 0
          1304.2647192920035 1059.2503748516194 0 -2158.365439881947 0 0
          -2528.2545330285207 -35.54572047191641 0 974.2610735089727 0 0
          <InformationKey name="L2_NORM_RANGE" location="vtkDataArray" length="2">
            <Value index="0">
              1506.5527472
            </Value>
            <Value index="1">
              3318.2834731
            </Value>
          </InformationKey>
        </DataArray>
        <DataArray type="Float64" Name="Gauss Strain" NumberOfComponents="6" format="ascii" RangeMin="0.0009038288800828438" RangeMax="0.00661220565469312">
          0.0006516966754910256 -0.0002764611929890865 0 -0.0005619317542164739 0 0
          -0.0007869320342488591 0.00011384433719417023 0 0.004361752864106476 0 0
          -0.001101163654307138 0.0009899743809282584 0 -0.003318937263834927 0 0
          -0.00007955232735392106 5.698805308330924e-19 0 -0.006611727085048827 0 0
          0.0003588586816345541 0.00011384433719417023 0 -0.004316730879763894 0 0
          -0.001502734431628346 0.0009899743809282584 0 0.0019485221470179454 0 0
          <InformationKey name="L2_NORM_RANGE" location="vtkDataArray" length="2">
            <Value index="0">
              0.00090382888008
            </Value>
            <Value index="1">
              0.0066122056547
            </Value>
          </InformationKey>
        </DataArray>
        <DataArray type="Float64" Name="Btraction" NumberOfComponents="3" format="ascii" RangeMin="0" RangeMax="0">
          0 0 0 0 0 0
          0 0 0 0 0 0
          0 0 0 0 0 0
          <InformationKey name="L2_NORM_RANGE" location="vtkDataArray" length="2">
            <Value index="0">
              0
            </Value>
            <Value index="1">
              0
            </Value>
          </InformationKey>
        </DataArray>
      </CellData>
      <Points>
        <DataArray type="Float32" Name="Points" NumberOfComponents="3" format="ascii" RangeMin="0" RangeMax="0.21095022452792997">
          0.14000000059604645 0.019999999552965164 0 0.14000000059604645 0 0
          0.07000000029802322 0.019999999552965164 0 0.07000000029802322 0 0
          0 0.019999999552965164 0 0 0 0
          0.20999999344348907 0 0 0.20999999344348907 0.019999999552965164 0
          <InformationKey name="L2_NORM_RANGE" location="vtkDataArray" length="2">
            <Value index="0">
              0
            </Value>
            <Value index="1">
              0.21095022453
            </Value>
          </InformationKey>
        </DataArray>
      </Points>
      <Cells>
        <DataArray type="Int64" Name="connectivity" format="ascii" RangeMin="0" RangeMax="7">
          6 7 1 7 0 1
          3 2 5 2 4 5
          1 0 3 0 2 3
        </DataArray>
        <DataArray type="Int64" Name="offsets" format="ascii" RangeMin="3" RangeMax="18">
          3 6 9 12 15 18
        </DataArray>
        <DataArray type="UInt8" Name="types" format="ascii" RangeMin="5" RangeMax="5">
          5 5 5 5 5 5
        </DataArray>
      </Cells>
    </Piece>
  </UnstructuredGrid>
</VTKFile>
