<?xml version="1.0"?>
<VTKFile type="UnstructuredGrid" version="0.1" byte_order="LittleEndian" header_type="UInt32" compressor="vtkZLibDataCompressor">
  <UnstructuredGrid>
    <Piece NumberOfPoints="8" NumberOfCells="6">
      <PointData>
        <DataArray type="Float64" Name="Disp" NumberOfComponents="3" format="ascii" RangeMin="1.3277378754274249e-21" RangeMax="0.0009577186741680558">
          0.000032092034343288654 -0.0005850932177309724 0 -0.00007265872911158561 -0.0005916303768725465 0
          0.00003351976678534272 -0.00017764395306822033 0 -0.00004533172084225451 -0.0001827176005619515 0
          1.0485380557693783e-21 8.145279684872117e-22 0 2.8221989116233154e-20 3.5752625691726796e-21 0
          -0.00006363562869076095 -0.0009556022005057074 0 1.6901234719609108e-7 -0.0009535055431378563 0
          <InformationKey name="L2_NORM_RANGE" location="vtkDataArray" length="2">
            <Value index="0">
              1.3277378754e-21
            </Value>
            <Value index="1">
              0.00095771867417
            </Value>
          </InformationKey>
        </DataArray>
        <DataArray type="Float64" Name="Sld_traction" NumberOfComponents="3" format="ascii" RangeMin="247.1700135333551" RangeMax="1661.4623380677224">
          -475.90611171780654 394.3711485315151 0 653.3595864958797 -386.0518403710777 0
          -1103.9750394085079 838.9811955053914 0 -182.06250684322796 167.17134680332785 0
          -1306.1467245251235 1026.8582350206643 0 -837.3614637830036 697.4205620167329 0
          759.3386725759328 -472.04726298057994 0 449.719346365991 -216.69670445349217 0
          <InformationKey name="L2_NORM_RANGE" location="vtkDataArray" length="2">
            <Value index="0">
              247.17001353
            </Value>
            <Value index="1">
              1661.4623381
            </Value>
          </InformationKey>
        </DataArray>
        <DataArray type="Float64" Name="Velocity" NumberOfComponents="3" format="ascii" RangeMin="3.675364627117113e-19" RangeMax="0.010189692379483245">
          -0.001844315334755458 0.0022467510148731088 0 -0.00306762506954688 0.001309375107581985 0
          -0.0007384582780024705 0.010162898708545143 0 -0.00044952347186677944 0.010039311295013094 0
          2.9010543653278623e-19 2.256587847099215e-19 0 7.795283213352718e-18 9.900979918509146e-19 0
          -0.0019207812122450873 -0.002571797599675533 0 -0.007757850738578778 -0.002078452768876082 0
          <InformationKey name="L2_NORM_RANGE" location="vtkDataArray" length="2">
            <Value index="0">
              3.6753646271e-19
            </Value>
            <Value index="1">
              0.010189692379
            </Value>
          </InformationKey>
        </DataArray>
        <DataArray type="Float64" Name="Acceleration" NumberOfComponents="3" format="ascii" RangeMin="2.8914299058164846e-17" RangeMax="1.1711906499676425">
          -0.19314842564694867 -0.5808638962637543 0 0.06896330404271372 -0.5392416512846256 0
          -0.029921705183866415 -1.13717840747315 0 -0.09838700420582477 -1.167050785516651 0
          -2.281430574495903e-17 -1.7763562238484762e-17 0 -6.122595395672263e-16 -7.791599748109497e-17 0
          0.06504778388777671 0.9201967211344584 0 -0.005294316907113461 0.8886689133018268 0
          <InformationKey name="L2_NORM_RANGE" location="vtkDataArray" length="2">
            <Value index="0">
              2.8914299058e-17
            </Value>
            <Value index="1">
              1.17119065
            </Value>
          </InformationKey>
        </DataArray>
      </PointData>
      <CellData>
        <DataArray type="UInt8" Name="vtkGhostType" format="ascii" RangeMin="0" RangeMax="1">
          1 1 0 0 0 0
        </DataArray>
        <DataArray type="Float64" Name="Gauss Stress" NumberOfComponents="6" format="ascii" RangeMin="631.5795563415164" RangeMax="2142.6578700151244">
          596.3700405347317 572.3014743440738 0 -1004.6827142879383 0 0
          -714.4135999608449 68.48752849061066 0 -12.747523677314204 0 0
          -1435.4232867235044 -534.1449000047371 0 666.1614723902774 0 0
          1436.5614336575454 957.7076224383634 0 -1268.8853790587173 0 0
          -517.4415830996383 199.8022063980817 0 -302.0364587038214 0 0
          446.1762161422304 720.2547685724194 0 -939.0646997582987 0 0
          <InformationKey name="L2_NORM_RANGE" location="vtkDataArray" length="2">
            <Value index="0">
              631.57955634
            </Value>
            <Value index="1">
              2142.65787
            </Value>
          </InformationKey>
        </DataArray>
        <DataArray type="Float64" Name="Gauss Strain" NumberOfComponents="6" format="ascii" RangeMin="0.0005616595905893491" RangeMax="0.0025825532701718025">
          0.00012890143458320954 0.00010483286839255146 0 -0.0020093654285758765 0 0
          -0.0004560431713727511 0.0003268579570787043 0 -0.000025495047354628403 0 0
          -0.0006475960120322078 0.0002536823746865594 0 0.0013323229447805545 0 0
          0.0004788538112191817 -1.3803673003427338e-19 0 -0.002537770758117434 0 0
          -0.00039038583241901554 0.0003268579570787043 0 -0.0006040729174076427 0 0
          -0.000020396177743629547 0.0002536823746865594 0 -0.0018781293995165965 0 0
          <InformationKey name="L2_NORM_RANGE" location="vtkDataArray" length="2">
            <Value index="0">
              0.00056165959059
            </Value>
            <Value index="1">
              0.0025825532702
            </Value>
          </InformationKey>
        </DataArray>
        <DataArray type="Float64" Name="Btraction" NumberOfComponents="3" format="ascii" RangeMin="0" RangeMax="0">
          0 0 0 0 0 0
          0 0 0 0 0 0
          0 0 0 0 0 0
          <InformationKey name="L2_NORM_RANGE" location="vtkDataArray" length="2">
            <Value index="0">
              0
            </Value>
            <Value index="1">
              0
            </Value>
          </InformationKey>
        </DataArray>
      </CellData>
      <Points>
        <DataArray type="Float32" Name="Points" NumberOfComponents="3" format="ascii" RangeMin="0" RangeMax="0.21095022452792997">
          0.14000000059604645 0.019999999552965164 0 0.14000000059604645 0 0
          0.07000000029802322 0.019999999552965164 0 0.07000000029802322 0 0
          0 0.019999999552965164 0 0 0 0
          0.20999999344348907 0 0 0.20999999344348907 0.019999999552965164 0
          <InformationKey name="L2_NORM_RANGE" location="vtkDataArray" length="2">
            <Value index="0">
              0
            </Value>
            <Value index="1">
              0.21095022453
            </Value>
          </InformationKey>
        </DataArray>
      </Points>
      <Cells>
        <DataArray type="Int64" Name="connectivity" format="ascii" RangeMin="0" RangeMax="7">
          6 7 1 7 0 1
          3 2 5 2 4 5
          1 0 3 0 2 3
        </DataArray>
        <DataArray type="Int64" Name="offsets" format="ascii" RangeMin="3" RangeMax="18">
          3 6 9 12 15 18
        </DataArray>
        <DataArray type="UInt8" Name="types" format="ascii" RangeMin="5" RangeMax="5">
          5 5 5 5 5 5
        </DataArray>
      </Cells>
    </Piece>
  </UnstructuredGrid>
</VTKFile>
