<?xml version="1.0"?>
<VTKFile type="UnstructuredGrid" version="0.1" byte_order="LittleEndian" header_type="UInt32" compressor="vtkZLibDataCompressor">
  <UnstructuredGrid>
    <Piece NumberOfPoints="8" NumberOfCells="6">
      <PointData>
        <DataArray type="Float64" Name="Disp" NumberOfComponents="3" format="ascii" RangeMin="3.713233833814503e-21" RangeMax="0.011004976043862228">
          0.0005908369793631791 -0.0055760326631386845 0 -0.00070710202414294 -0.005589308486748898 0
          0.00036592151618950196 -0.0017296007328571096 0 -0.0004105298205376346 -0.0017502811846669194 0
          -2.931240155616076e-21 -2.2794597286832233e-21 0 -7.879049318140056e-20 -1.0002151765713911e-20 0
          -0.0009327502600713854 -0.010965376175869129 0 0.0007613932592874208 -0.010950673632180014 0
          <InformationKey name="L2_NORM_RANGE" location="vtkDataArray" length="2">
            <Value index="0">
              3.7132338338e-21
            </Value>
            <Value index="1">
              0.011004976044
            </Value>
          </InformationKey>
        </DataArray>
        <DataArray type="Float64" Name="Sld_traction" NumberOfComponents="3" format="ascii" RangeMin="4029.0024185447346" RangeMax="17022.27996860892">
          -7002.523958951826 8196.316986472137 0 -4489.977995803668 5361.914445889759 0
          -10208.760659263238 9991.562162352599 0 -5968.063228812487 7554.7368312545095 0
          -13093.859781169675 10876.987237317682 0 -8858.84734239717 9455.563511687238 0
          -2628.7792765948902 3053.2572776601332 0 -5415.674737980094 5807.548707013204 0
          <InformationKey name="L2_NORM_RANGE" location="vtkDataArray" length="2">
            <Value index="0">
              4029.0024185
            </Value>
            <Value index="1">
              17022.279969
            </Value>
          </InformationKey>
        </DataArray>
        <DataArray type="Float64" Name="Velocity" NumberOfComponents="3" format="ascii" RangeMin="8.928576737003705e-20" RangeMax="0.014311242230236191">
          -0.0009137999674937681 -0.005772869413552304 0 -0.002853116390706936 -0.006156698321784482 0
          -0.00028189907925894376 0.0010213589748846903 0 -0.0011408745342349606 0.000856458483120633 0
          7.049788267962756e-20 5.479048085704161e-20 0 1.896392781674425e-18 2.404593063890115e-19 0
          -0.003342774260371657 -0.013915369719008277 0 -0.0028515669828758985 -0.013675073850613275 0
          <InformationKey name="L2_NORM_RANGE" location="vtkDataArray" length="2">
            <Value index="0">
              8.928576737e-20
            </Value>
            <Value index="1">
              0.01431124223
            </Value>
          </InformationKey>
        </DataArray>
        <DataArray type="Float64" Name="Acceleration" NumberOfComponents="3" format="ascii" RangeMin="5.47004814830429e-17" RangeMax="2.438204458360757">
          0.3535669599688094 0.42748126667446806 0 -0.19038423902769822 0.3419085586362631 0
          0.08600519724945768 1.845581259970165 0 0.12901595010529876 1.8912328553299962 0
          4.316232394787513e-17 3.360292347245108e-17 0 1.1585042628272576e-15 1.4739714058952215e-16 0
          -0.13815102204269128 -2.4342874267183063 0 -0.06188252350160056 -2.375818668750908 0
          <InformationKey name="L2_NORM_RANGE" location="vtkDataArray" length="2">
            <Value index="0">
              5.4700481483e-17
            </Value>
            <Value index="1">
              2.4382044584
            </Value>
          </InformationKey>
        </DataArray>
      </PointData>
      <CellData>
        <DataArray type="UInt8" Name="vtkGhostType" format="ascii" RangeMin="0" RangeMax="1">
          1 1 0 0 0 0
        </DataArray>
        <DataArray type="Float64" Name="Gauss Stress" NumberOfComponents="6" format="ascii" RangeMin="10043.179246518892" RangeMax="22535.961746028595">
          -8200.384313736315 -4241.71090173142 0 3953.1044902542117 0 0
          8637.137214917568 6864.4101107962815 0 -5941.817548356529 0 0
          -15526.089984917624 -8627.35567246092 0 6909.274956271848 0 0
          15682.3506938358 10454.900462557205 0 -12354.290948979351 0 0
          -11382.65493634886 -6482.117990048096 0 5026.851501353125 0 0
          11707.279316995735 9528.22386214799 0 -8063.23036954712 0 0
          <InformationKey name="L2_NORM_RANGE" location="vtkDataArray" length="2">
            <Value index="0">
              10043.179247
            </Value>
            <Value index="1">
              22535.961746
            </Value>
          </InformationKey>
        </DataArray>
        <DataArray type="Float64" Name="Gauss Strain" NumberOfComponents="6" format="ascii" RangeMin="0.008569702602887952" RangeMax="0.025255499506614938">
          -0.003223546227549221 0.0007351271844556749 0 0.007906208980508419 0 0
          0.0024365182846320266 0.0006637911805107422 0 -0.011883635096713054 0 0
          -0.005864711721966207 0.0010340225904904993 0 0.013818549912543696 0 0
          0.0052274502312786 3.861346018515344e-19 0 -0.024708581897958708 0 0
          -0.0042367457657900755 0.0006637911805106866 0 0.010053703002706249 0 0
          0.0032130780453382434 0.0010340225904904993 0 -0.01612646073909424 0 0
          <InformationKey name="L2_NORM_RANGE" location="vtkDataArray" length="2">
            <Value index="0">
              0.0085697026029
            </Value>
            <Value index="1">
              0.025255499507
            </Value>
          </InformationKey>
        </DataArray>
        <DataArray type="Float64" Name="Btraction" NumberOfComponents="3" format="ascii" RangeMin="0" RangeMax="0">
          0 0 0 0 0 0
          0 0 0 0 0 0
          0 0 0 0 0 0
          <InformationKey name="L2_NORM_RANGE" location="vtkDataArray" length="2">
            <Value index="0">
              0
            </Value>
            <Value index="1">
              0
            </Value>
          </InformationKey>
        </DataArray>
      </CellData>
      <Points>
        <DataArray type="Float32" Name="Points" NumberOfComponents="3" format="ascii" RangeMin="0" RangeMax="0.21095022452792997">
          0.14000000059604645 0.019999999552965164 0 0.14000000059604645 0 0
          0.07000000029802322 0.019999999552965164 0 0.07000000029802322 0 0
          0 0.019999999552965164 0 0 0 0
          0.20999999344348907 0 0 0.20999999344348907 0.019999999552965164 0
          <InformationKey name="L2_NORM_RANGE" location="vtkDataArray" length="2">
            <Value index="0">
              0
            </Value>
            <Value index="1">
              0.21095022453
            </Value>
          </InformationKey>
        </DataArray>
      </Points>
      <Cells>
        <DataArray type="Int64" Name="connectivity" format="ascii" RangeMin="0" RangeMax="7">
          6 7 1 7 0 1
          3 2 5 2 4 5
          1 0 3 0 2 3
        </DataArray>
        <DataArray type="Int64" Name="offsets" format="ascii" RangeMin="3" RangeMax="18">
          3 6 9 12 15 18
        </DataArray>
        <DataArray type="UInt8" Name="types" format="ascii" RangeMin="5" RangeMax="5">
          5 5 5 5 5 5
        </DataArray>
      </Cells>
    </Piece>
  </UnstructuredGrid>
</VTKFile>
