<?xml version="1.0"?>
<VTKFile type="UnstructuredGrid" version="0.1" byte_order="LittleEndian" header_type="UInt32" compressor="vtkZLibDataCompressor">
  <UnstructuredGrid>
    <Piece NumberOfPoints="8" NumberOfCells="6">
      <PointData>
        <DataArray type="Float64" Name="Disp" NumberOfComponents="3" format="ascii" RangeMin="2.3266072136057803e-21" RangeMax="0.0109701605704738">
          0.000612605655396977 -0.005507269944530436 0 -0.0006887521974444648 -0.00552054679962943 0
          0.00037183092628785834 -0.0016659710699000894 0 -0.0003951459106053518 -0.0016834062375447754 0
          -1.8374924170774514e-21 -1.4271379553446533e-21 0 -4.9469858608516883e-20 -6.264570409741828e-21 0
          -0.0009072596981653118 -0.010932579877689577 0 0.0007833656760818516 -0.010917735131521684 0
          <InformationKey name="L2_NORM_RANGE" location="vtkDataArray" length="2">
            <Value index="0">
              2.3266072136e-21
            </Value>
            <Value index="1">
              0.01097016057
            </Value>
          </InformationKey>
        </DataArray>
        <DataArray type="Float64" Name="Sld_traction" NumberOfComponents="3" format="ascii" RangeMin="3689.1034004994854" RangeMax="16814.380982006336">
          -7187.830884108261 8182.469559975965 0 -4367.027338090416 5206.7911558401165 0
          -10081.610769300712 10059.146936165413 0 -6137.945051578045 7535.915400573525 0
          -12796.6417498055 10907.307996714459 0 -9102.428536924226 9391.31586744539 0
          -2336.468565273638 2854.890285644093 0 -5357.135435244025 5729.871955726991 0
          <InformationKey name="L2_NORM_RANGE" location="vtkDataArray" length="2">
            <Value index="0">
              3689.1034005
            </Value>
            <Value index="1">
              16814.380982
            </Value>
          </InformationKey>
        </DataArray>
        <DataArray type="Float64" Name="Velocity" NumberOfComponents="3" format="ascii" RangeMin="3.666112613013559e-19" RangeMax="0.014362515351040005">
          -0.003439935239265828 -0.00797967430809738 0 -0.0008168489489880961 -0.00759563910210924 0
          -0.000899982940412333 -0.013747291566288724 0 -0.0019359074522215963 -0.014231447907549417 0
          -2.892474303873525e-19 -2.2525483552475564e-19 0 -7.76051969625116e-18 -9.879755775834284e-19 0
          -0.0017553381208430677 0.00735611008309786 0 -0.0015429163760102551 0.007087373718947179 0
          <InformationKey name="L2_NORM_RANGE" location="vtkDataArray" length="2">
            <Value index="0">
              3.666112613e-19
            </Value>
            <Value index="1">
              0.014362515351
            </Value>
          </InformationKey>
        </DataArray>
        <DataArray type="Float64" Name="Acceleration" NumberOfComponents="3" format="ascii" RangeMin="3.647891752655611e-17" RangeMax="1.8288227189874924">
          0.15166009438560257 0.013879712234547092 0 -0.21686924931606974 -0.054120402571311566 0
          0.03761157498122017 1.1081488482645176 0 0.02999063349202835 1.1263484228040137 0
          2.878673866552089e-17 2.2406139803908372e-17 0 7.728782327578593e-16 9.828983620496582e-17 0
          -0.17933620586302654 -1.8200085337029215 0 -0.19984759787152812 -1.7766708451611826 0
          <InformationKey name="L2_NORM_RANGE" location="vtkDataArray" length="2">
            <Value index="0">
              3.6478917527e-17
            </Value>
            <Value index="1">
              1.828822719
            </Value>
          </InformationKey>
        </DataArray>
      </PointData>
      <CellData>
        <DataArray type="UInt8" Name="vtkGhostType" format="ascii" RangeMin="0" RangeMax="1">
          1 1 0 0 0 0
        </DataArray>
        <DataArray type="Float64" Name="Gauss Stress" NumberOfComponents="6" format="ascii" RangeMin="9552.336820151932" RangeMax="22548.007704691896">
          -7880.132556961349 -4016.3595239831957 0 3608.2552271780305 0 0
          8645.972110679817 6870.385998702778 0 -6112.233586044305 0 0
          -15191.307975760767 -8674.608013450008 0 7150.090654153289 0 0
          15935.611126622505 10623.740751081674 0 -11899.793356429209 0 0
          -11255.441068919765 -6397.222787697036 0 5125.7994490028 0 0
          12062.433726287974 9494.553121249151 0 -8263.428182172214 0 0
          <InformationKey name="L2_NORM_RANGE" location="vtkDataArray" length="2">
            <Value index="0">
              9552.3368202
            </Value>
            <Value index="1">
              22548.007705
            </Value>
          </InformationKey>
        </DataArray>
        <DataArray type="Float64" Name="Gauss Strain" NumberOfComponents="6" format="ascii" RangeMin="0.007897653109605059" RangeMax="0.02438516546159601">
          -0.0031215357245835303 0.000742237308394622 0 0.007216510454356062 0 0
          0.002439428866926779 0.0006638427549497394 0 -0.01222446717208861 0 0
          -0.005644941580076454 0.0008717583822342998 0 0.014300181308306577 0 0
          0.0053118703755408335 2.4187162271985873e-19 0 -0.023799586712858412 0 0
          -0.004194375526273042 0.0006638427549496839 0 0.010251598898005601 0 0
          0.0034396389872731236 0.0008717583822342998 0 -0.016526856364344422 0 0
          <InformationKey name="L2_NORM_RANGE" location="vtkDataArray" length="2">
            <Value index="0">
              0.0078976531096
            </Value>
            <Value index="1">
              0.024385165462
            </Value>
          </InformationKey>
        </DataArray>
        <DataArray type="Float64" Name="Btraction" NumberOfComponents="3" format="ascii" RangeMin="0" RangeMax="0">
          0 0 0 0 0 0
          0 0 0 0 0 0
          0 0 0 0 0 0
          <InformationKey name="L2_NORM_RANGE" location="vtkDataArray" length="2">
            <Value index="0">
              0
            </Value>
            <Value index="1">
              0
            </Value>
          </InformationKey>
        </DataArray>
      </CellData>
      <Points>
        <DataArray type="Float32" Name="Points" NumberOfComponents="3" format="ascii" RangeMin="0" RangeMax="0.21095022452792997">
          0.14000000059604645 0.019999999552965164 0 0.14000000059604645 0 0
          0.07000000029802322 0.019999999552965164 0 0.07000000029802322 0 0
          0 0.019999999552965164 0 0 0 0
          0.20999999344348907 0 0 0.20999999344348907 0.019999999552965164 0
          <InformationKey name="L2_NORM_RANGE" location="vtkDataArray" length="2">
            <Value index="0">
              0
            </Value>
            <Value index="1">
              0.21095022453
            </Value>
          </InformationKey>
        </DataArray>
      </Points>
      <Cells>
        <DataArray type="Int64" Name="connectivity" format="ascii" RangeMin="0" RangeMax="7">
          6 7 1 7 0 1
          3 2 5 2 4 5
          1 0 3 0 2 3
        </DataArray>
        <DataArray type="Int64" Name="offsets" format="ascii" RangeMin="3" RangeMax="18">
          3 6 9 12 15 18
        </DataArray>
        <DataArray type="UInt8" Name="types" format="ascii" RangeMin="5" RangeMax="5">
          5 5 5 5 5 5
        </DataArray>
      </Cells>
    </Piece>
  </UnstructuredGrid>
</VTKFile>
