<?xml version="1.0"?>
<VTKFile type="UnstructuredGrid" version="0.1" byte_order="LittleEndian" header_type="UInt32" compressor="vtkZLibDataCompressor">
  <UnstructuredGrid>
    <Piece NumberOfPoints="8" NumberOfCells="6">
      <PointData>
        <DataArray type="Float64" Name="Disp" NumberOfComponents="3" format="ascii" RangeMin="3.478200568402968e-21" RangeMax="0.008839620576232948">
          0.0004555360002870502 -0.004482246464569766 0 -0.0005857936565935754 -0.004494048643520978 0
          0.00028557319898749614 -0.001398224774996139 0 -0.0003392609515316829 -0.0014167986945580612 0
          -2.745218470555117e-21 -2.135803067457707e-21 0 -7.374558047623663e-20 -9.370466729131458e-21 0
          -0.0007764263470875915 -0.008805455925692271 0 0.0005878063745238687 -0.008792643295158827 0
          <InformationKey name="L2_NORM_RANGE" location="vtkDataArray" length="2">
            <Value index="0">
              3.4782005684e-21
            </Value>
            <Value index="1">
              0.0088396205762
            </Value>
          </InformationKey>
        </DataArray>
        <DataArray type="Float64" Name="Sld_traction" NumberOfComponents="3" format="ascii" RangeMin="3383.3195631255503" RangeMax="13540.989116233255">
          -5581.589979512047 6595.824181861852 0 -3681.4681913860327 4399.109225163744 0
          -8197.596206259426 7900.701114102031 0 -4776.873865636925 6090.273419994556 0
          -10487.660168907083 8565.475493366805 0 -6998.193820367789 7591.579378791138 0
          -2216.161686870676 2556.458222595195 0 -4401.462945862579 4734.513075950225 0
          <InformationKey name="L2_NORM_RANGE" location="vtkDataArray" length="2">
            <Value index="0">
              3383.3195631
            </Value>
            <Value index="1">
              13540.989116
            </Value>
          </InformationKey>
        </DataArray>
        <DataArray type="Float64" Name="Velocity" NumberOfComponents="3" format="ascii" RangeMin="2.701468244297533e-19" RangeMax="0.04099514153589514">
          0.00047335129493991136 0.03937475201840786 0 0.0029281501468937047 0.03922719378446036 0
          -0.0015684998230081299 0.02366388209494883 0 0.003598837525774219 0.02429691018849455 0
          2.1310423981035465e-19 1.6602978565405306e-19 0 5.714449700360233e-18 7.281148072659756e-19 0
          0.002242948857122577 0.04071212533979209 0 0.000041335882135653244 0.0409951206961624 0
          <InformationKey name="L2_NORM_RANGE" location="vtkDataArray" length="2">
            <Value index="0">
              2.7014682443e-19
            </Value>
            <Value index="1">
              0.040995141536
            </Value>
          </InformationKey>
        </DataArray>
        <DataArray type="Float64" Name="Acceleration" NumberOfComponents="3" format="ascii" RangeMin="4.851140191621277e-17" RangeMax="2.2487585624015516">
          0.3895504046872478 0.29301264354082024 0 -0.09822012471006866 0.22485492879135371 0
          0.1136179301650396 1.5805991933525867 0 0.14322591060997775 1.6273402063055806 0
          3.827736546638186e-17 2.98026745247699e-17 0 1.0272627847619543e-15 1.3072387983801942e-16 0
          -0.018428616690073396 -2.2486830497118047 0 0.059170438624230576 -2.202932162053983 0
          <InformationKey name="L2_NORM_RANGE" location="vtkDataArray" length="2">
            <Value index="0">
              4.8511401916e-17
            </Value>
            <Value index="1">
              2.2487585624
            </Value>
          </InformationKey>
        </DataArray>
      </PointData>
      <CellData>
        <DataArray type="UInt8" Name="vtkGhostType" format="ascii" RangeMin="0" RangeMax="1">
          1 1 0 0 0 0
        </DataArray>
        <DataArray type="Float64" Name="Gauss Stress" NumberOfComponents="6" format="ascii" RangeMin="8416.332244430647" RangeMax="17779.458487269414">
          -6888.709396399137 -3524.7537198124114 0 3310.051739062973 0 0
          6848.948219556323 5549.480392305249 0 -4755.3073679062345 0 0
          -12682.363109451331 -6907.082109474036 0 5500.863087564756 0 0
          12238.851385178408 8159.234256785607 0 -9987.319821400992 0 0
          -9385.46946467416 -5273.464730515076 0 4052.8846437090933 0 0
          9141.512011887402 7642.167971418452 0 -6407.872591117859 0 0
          <InformationKey name="L2_NORM_RANGE" location="vtkDataArray" length="2">
            <Value index="0">
              8416.3322444
            </Value>
            <Value index="1">
              17779.458487
            </Value>
          </InformationKey>
        </DataArray>
        <DataArray type="Float64" Name="Gauss Strain" NumberOfComponents="6" format="ascii" RangeMin="0.007186979423900502" RangeMax="0.02038699351974372">
          -0.0027233241499145175 0.0006406315266722085 0 0.006620103478125942 0 0
          0.0018895767748116944 0.0005901089475606192 0 -0.009510614735812467 0 0
          -0.004846585021881183 0.0009286959780961113 0 0.011001726175129508 0 0
          0.0040796171283928005 3.6173318308368755e-19 0 -0.01997463964280198 0 0
          -0.003521895786598465 0.0005901089475606192 0 0.008105769287418185 0 0
          0.0024280400185650586 0.0009286959780961113 0 -0.012815745182235713 0 0
          <InformationKey name="L2_NORM_RANGE" location="vtkDataArray" length="2">
            <Value index="0">
              0.0071869794239
            </Value>
            <Value index="1">
              0.02038699352
            </Value>
          </InformationKey>
        </DataArray>
        <DataArray type="Float64" Name="Btraction" NumberOfComponents="3" format="ascii" RangeMin="0" RangeMax="0">
          0 0 0 0 0 0
          0 0 0 0 0 0
          0 0 0 0 0 0
          <InformationKey name="L2_NORM_RANGE" location="vtkDataArray" length="2">
            <Value index="0">
              0
            </Value>
            <Value index="1">
              0
            </Value>
          </InformationKey>
        </DataArray>
      </CellData>
      <Points>
        <DataArray type="Float32" Name="Points" NumberOfComponents="3" format="ascii" RangeMin="0" RangeMax="0.21095022452792997">
          0.14000000059604645 0.019999999552965164 0 0.14000000059604645 0 0
          0.07000000029802322 0.019999999552965164 0 0.07000000029802322 0 0
          0 0.019999999552965164 0 0 0 0
          0.20999999344348907 0 0 0.20999999344348907 0.019999999552965164 0
          <InformationKey name="L2_NORM_RANGE" location="vtkDataArray" length="2">
            <Value index="0">
              0
            </Value>
            <Value index="1">
              0.21095022453
            </Value>
          </InformationKey>
        </DataArray>
      </Points>
      <Cells>
        <DataArray type="Int64" Name="connectivity" format="ascii" RangeMin="0" RangeMax="7">
          6 7 1 7 0 1
          3 2 5 2 4 5
          1 0 3 0 2 3
        </DataArray>
        <DataArray type="Int64" Name="offsets" format="ascii" RangeMin="3" RangeMax="18">
          3 6 9 12 15 18
        </DataArray>
        <DataArray type="UInt8" Name="types" format="ascii" RangeMin="5" RangeMax="5">
          5 5 5 5 5 5
        </DataArray>
      </Cells>
    </Piece>
  </UnstructuredGrid>
</VTKFile>
