<?xml version="1.0"?>
<VTKFile type="UnstructuredGrid" version="0.1" byte_order="LittleEndian" header_type="UInt32" compressor="vtkZLibDataCompressor">
  <UnstructuredGrid>
    <Piece NumberOfPoints="8" NumberOfCells="6">
      <PointData>
        <DataArray type="Float64" Name="Disp" NumberOfComponents="3" format="ascii" RangeMin="1.3862298680018594e-21" RangeMax="0.0029362089491420575">
          0.00017793445436955864 -0.0013439401051889928 0 -0.00018701900303117578 -0.0013498016299658682 0
          0.00009630166885385132 -0.00032027350180976495 0 -0.00009311799614901535 -0.0003215053206463986 0
          1.093074074523259e-21 8.525387466535309e-22 0 2.927031678532954e-20 3.737532308571118e-21 0
          -0.00025593700460001386 -0.0029250332036915884 0 0.0002191220298646333 -0.002918206738243144 0
          <InformationKey name="L2_NORM_RANGE" location="vtkDataArray" length="2">
            <Value index="0">
              1.386229868e-21
            </Value>
            <Value index="1">
              0.0029362089491
            </Value>
          </InformationKey>
        </DataArray>
        <DataArray type="Float64" Name="Sld_traction" NumberOfComponents="3" format="ascii" RangeMin="697.9291060263596" RangeMax="3779.5420806277016">
          -2348.668957217057 2286.577356881495 0 -1201.842280298734 1374.386568115293 0
          -2432.040277424856 2634.30718945551 0 -2108.943923024057 2139.6992722893115 0
          -2696.455983265533 2648.4077234344186 0 -2814.178233564809 2433.9472434974646 0
          -289.36330558018085 635.117244626899 0 -1562.2316030110514 1640.0662483012388 0
          <InformationKey name="L2_NORM_RANGE" location="vtkDataArray" length="2">
            <Value index="0">
              697.92910603
            </Value>
            <Value index="1">
              3779.5420806
            </Value>
          </InformationKey>
        </DataArray>
        <DataArray type="Float64" Name="Velocity" NumberOfComponents="3" format="ascii" RangeMin="4.964050300727144e-19" RangeMax="0.05349070611677838">
          0.004386380543222793 0.05328073451207526 0 0.005866169296234498 0.05316807029279385 0
          -0.0007025850939571214 0.03589967965895758 0 0.006313790203050496 0.03713783719648821 0
          3.915572680031798e-19 3.0512433491181666e-19 0 1.0496926952427174e-17 1.338026134574175e-18 0
          0.005729571088108856 0.04533677451739902 0 0.004554335334994882 0.045677482075514024 0
          <InformationKey name="L2_NORM_RANGE" location="vtkDataArray" length="2">
            <Value index="0">
              4.9640503007e-19
            </Value>
            <Value index="1">
              0.053490706117
            </Value>
          </InformationKey>
        </DataArray>
        <DataArray type="Float64" Name="Acceleration" NumberOfComponents="3" format="ascii" RangeMin="2.1862582631378765e-17" RangeMax="1.3322402885874562">
          -0.17910228024253594 -1.2949094069905138 0 -0.00696919529240031 -1.2725746775810667 0
          0.013796537079004051 -1.285971943319189 0 -0.1457410743956688 -1.3242445868379393 0
          -1.7247405429297053e-17 -1.3435011174960704e-17 0 -4.626023959198566e-16 -5.89218227669703e-17 0
          0.07252698194725998 0.01431482652032523 0 -0.13239328231388026 -0.012756988785483703 0
          <InformationKey name="L2_NORM_RANGE" location="vtkDataArray" length="2">
            <Value index="0">
              2.1862582631e-17
            </Value>
            <Value index="1">
              1.3322402886
            </Value>
          </InformationKey>
        </DataArray>
      </PointData>
      <CellData>
        <DataArray type="UInt8" Name="vtkGhostType" format="ascii" RangeMin="0" RangeMax="1">
          1 1 0 0 0 0
        </DataArray>
        <DataArray type="Float64" Name="Gauss Stress" NumberOfComponents="6" format="ascii" RangeMin="2537.913720009951" RangeMax="5462.411957032993">
          -2270.9820938200905 -945.1159418430598 0 624.821763575317 0 0
          2351.334284619306 2056.01658781915 0 -2120.9252296541526 0 0
          -3867.58937986586 -2475.7413501910974 0 2439.025049025963 0 0
          4127.214379450772 2751.476252967181 0 -2287.667870069751 0 0
          -3438.1763886907415 -1803.657194387526 0 1778.862797022151 0 0
          3621.729834336543 2517.1381259438394 0 -2576.4126847799616 0 0
          <InformationKey name="L2_NORM_RANGE" location="vtkDataArray" length="2">
            <Value index="0">
              2537.91372
            </Value>
            <Value index="1">
              5462.411957
            </Value>
          </InformationKey>
        </DataArray>
        <DataArray type="Float64" Name="Gauss Strain" NumberOfComponents="6" format="ascii" RangeMin="0.0016270940977486808" RangeMax="0.005283501178856729">
          -0.0009845428795548302 0.0003413232724222004 0 0.0012496435271506338 0 0
          0.0005883939356439234 0.00029307623884376743 0 -0.004241850459308305 0 0
          -0.0013302570878430768 0.00006159094183168579 0 0.004878050098051925 0 0
          0.0013757381264835901 -1.4424967809587935e-19 0 -0.004575335740139501 0 0
          -0.0013414429554594344 0.0002930762388437813 0 0.003557725594044301 0 0
          0.0011661826502243904 0.00006159094183168579 0 -0.005152825369559922 0 0
          <InformationKey name="L2_NORM_RANGE" location="vtkDataArray" length="2">
            <Value index="0">
              0.0016270940977
            </Value>
            <Value index="1">
              0.0052835011789
            </Value>
          </InformationKey>
        </DataArray>
        <DataArray type="Float64" Name="Btraction" NumberOfComponents="3" format="ascii" RangeMin="0" RangeMax="0">
          0 0 0 0 0 0
          0 0 0 0 0 0
          0 0 0 0 0 0
          <InformationKey name="L2_NORM_RANGE" location="vtkDataArray" length="2">
            <Value index="0">
              0
            </Value>
            <Value index="1">
              0
            </Value>
          </InformationKey>
        </DataArray>
      </CellData>
      <Points>
        <DataArray type="Float32" Name="Points" NumberOfComponents="3" format="ascii" RangeMin="0" RangeMax="0.21095022452792997">
          0.14000000059604645 0.019999999552965164 0 0.14000000059604645 0 0
          0.07000000029802322 0.019999999552965164 0 0.07000000029802322 0 0
          0 0.019999999552965164 0 0 0 0
          0.20999999344348907 0 0 0.20999999344348907 0.019999999552965164 0
          <InformationKey name="L2_NORM_RANGE" location="vtkDataArray" length="2">
            <Value index="0">
              0
            </Value>
            <Value index="1">
              0.21095022453
            </Value>
          </InformationKey>
        </DataArray>
      </Points>
      <Cells>
        <DataArray type="Int64" Name="connectivity" format="ascii" RangeMin="0" RangeMax="7">
          6 7 1 7 0 1
          3 2 5 2 4 5
          1 0 3 0 2 3
        </DataArray>
        <DataArray type="Int64" Name="offsets" format="ascii" RangeMin="3" RangeMax="18">
          3 6 9 12 15 18
        </DataArray>
        <DataArray type="UInt8" Name="types" format="ascii" RangeMin="5" RangeMax="5">
          5 5 5 5 5 5
        </DataArray>
      </Cells>
    </Piece>
  </UnstructuredGrid>
</VTKFile>
