<?xml version="1.0"?>
<VTKFile type="UnstructuredGrid" version="0.1" byte_order="LittleEndian" header_type="UInt32" compressor="vtkZLibDataCompressor">
  <UnstructuredGrid>
    <Piece NumberOfPoints="36" NumberOfCells="53">
      <PointData>
        <DataArray type="Float64" Name="nsi_BC" NumberOfComponents="3" format="ascii" RangeMin="0" RangeMax="100">
          0 0 0 0 0 0
          0 0 0 0 0 0
          0 0 0 0 0 0
          0 0 0 0 0 0
          0 0 0 0 0 0
          0 0 0 0 0 0
          0 0 0 0 0 0
          0 0 0 0 0 0
          0 0 0 0 0 0
          0 0 0 0 0 0
          0 0 0 0 0 0
          0 0 0 0 0 0
          0 0 0 0 0 0
          0 0 0 0 0 0
          0 0 0 0 0 0
          0 0 0 100 0 0
          100 0 0 100 0 0
          100 0 0 100 0 0
          <InformationKey name="L2_NORM_RANGE" location="vtkDataArray" length="2">
            <Value index="0">
              0
            </Value>
            <Value index="1">
              100
            </Value>
          </InformationKey>
        </DataArray>
        <DataArray type="Float64" Name="nsi_FIXNO" NumberOfComponents="3" format="ascii" RangeMin="1" RangeMax="1.4142135623730951">
          0 1 0 -1 -1 0
          0 1 0 -1 -1 0
          0 1 0 -1 -1 0
          0 1 0 -1 -1 0
          0 1 0 -1 -1 0
          -1 -1 0 0 1 0
          0 1 0 -1 -1 0
          -1 -1 0 -1 -1 0
          -1 -1 0 1 1 0
          -1 -1 0 1 1 0
          -1 -1 0 1 1 0
          0 1 0 0 1 0
          -1 -1 0 -1 -1 0
          -1 -1 0 -1 -1 0
          -1 -1 0 0 1 0
          -1 -1 0 1 1 0
          1 1 0 1 1 0
          1 1 0 1 1 0
          <InformationKey name="L2_NORM_RANGE" location="vtkDataArray" length="2">
            <Value index="0">
              1
            </Value>
            <Value index="1">
              1.4142135624
            </Value>
          </InformationKey>
        </DataArray>
        <DataArray type="Float64" Name="Velocity" NumberOfComponents="3" format="ascii" RangeMin="0" RangeMax="118.61745698559685">
          101.37724476942402 0 0 98.65791628109923 -1.4465567135452408 0
          111.42170440486579 0 0 109.23309329259423 4.256862774446245 0
          76.7148891275517 0 0 83.63732147846113 9.450857271232866 0
          101.30719329475156 0 0 89.58232052472813 -2.902573364811846 0
          108.85517028785362 0 0 15.490265072861083 17.254459992690933 0
          23.634286332129953 6.309870782769795 0 -29.813524445336014 0 0
          65.21577935448278 0 0 -4.1400854691007964 7.0353226709226355 0
          38.005307695847506 -12.787273965625591 0 -3.646301484959487 2.311321099992016 0
          -43.00281560037479 27.890736012497374 0 0 0 0
          -34.787144018701554 14.882717154108434 0 0 0 0
          -49.69783829201651 62.864490414448696 0 0 0 0
          -32.59919837914269 0 0 -117.26071038908165 0 0
          -10.693868085401064 18.115216488702586 0 -46.58013597855768 21.955956507824567 0
          -79.1956640169883 -6.49551951168624 0 -74.41861953042445 92.36866443180743 0
          -73.55610771343197 -8.029061558523452 0 -56.37259512084941 0 0
          -116.23418072238101 -1.8313002623204397 0 100 0 0
          100 0 0 100 0 0
          100 0 0 100 0 0
          <InformationKey name="L2_NORM_RANGE" location="vtkDataArray" length="2">
            <Value index="0">
              0
            </Value>
            <Value index="1">
              118.61745699
            </Value>
          </InformationKey>
        </DataArray>
        <DataArray type="Float64" Name="Pressure" format="ascii" RangeMin="-1115503.96886615" RangeMax="17818249.814257633">
          -440878.53021054226 -288639.88629007305 -639593.4709140863 -968560.347126585 1208291.6538714787 718402.9536592205
          -54309.74339005095 -145579.75317737405 -1115503.96886615 2935615.6103526815 1726446.1530146347 4116607.325357016
          666097.7063204581 4549926.626240581 6538966.145436979 3333072.6160124247 6716192.477772046 6794981.0102164345
          6488508.4224430015 8089087.6373424 9777555.78137837 7907196.039195349 3897805.59856744 14822620.029160645
          7472300.561979489 9981035.280059552 10313810.591959808 15884664.074606195 16273700.910572032 12935347.127210539
          16424258.477117635 17434805.47147876 17713464.185569488 17435417.81637603 17482391.695721094 17818249.814257633
        </DataArray>
      </PointData>
      <CellData>
        <DataArray type="UInt8" Name="vtkGhostType" format="ascii" RangeMin="0" RangeMax="0">
          0 0 0 0 0 0
          0 0 0 0 0 0
          0 0 0 0 0 0
          0 0 0 0 0 0
          0 0 0 0 0 0
          0 0 0 0 0 0
          0 0 0 0 0 0
          0 0 0 0 0 0
          0 0 0 0 0
        </DataArray>
      </CellData>
      <Points>
        <DataArray type="Float32" Name="Points" NumberOfComponents="3" format="ascii" RangeMin="0" RangeMax="17.88854381999832">
          16 0 0 16 3.9845468997955322 0
          11.453479766845703 0 0 12.217379570007324 3.3701679706573486 0
          8.368659973144531 0 0 8.773821830749512 2.904007911682129 0
          16 8 0 9.623482704162598 5.332449913024902 0
          11.453479766845703 8 0 6.414117813110352 2.3587939739227295 0
          7.382616996765137 4.82568883895874 0 5.579105854034424 0 0
          8.368659973144531 8 0 5.491477966308594 4.187727928161621 0
          4.728445053100586 1.5895390510559082 0 5.938247203826904 6.11269998550415 0
          4.574699878692627 3.0045900344848633 0 4.5 4 0
          4.574699878692627 4.995409965515137 0 3.75 3.5669870376586914 0
          3.413969039916992 2.5047481060028076 0 3.75 4.433012962341309 0
          5.579105854034424 8 0 2.789552927017212 0 0
          4.232917785644531 6.667374134063721 0 2.888730049133301 3.850830078125 0
          3.079637050628662 5.158480167388916 0 1.7905149459838867 2.8673698902130127 0
          1.5482569932937622 4.574378967285156 0 2.789552927017212 8 0
          1.5213489532470703 6.280706882476807 0 0 0 0
          0 2.162787914276123 0 0 4.072348117828369 0
          0 5.883182048797607 0 0 8 0
          <InformationKey name="L2_NORM_RANGE" location="vtkDataArray" length="2">
            <Value index="0">
              0
            </Value>
            <Value index="1">
              17.88854382
            </Value>
          </InformationKey>
        </DataArray>
      </Points>
      <Cells>
        <DataArray type="Int64" Name="connectivity" format="ascii" RangeMin="0" RangeMax="35">
          17 19 16 19 21 25
          21 17 18 16 19 20
          25 21 26 18 17 13
          17 16 13 19 25 20
          21 18 26 16 20 14
          25 26 28 18 13 15
          14 20 23 28 26 30
          15 13 10 16 14 9
          25 28 27 18 15 24
          30 26 24 9 14 11
          24 15 22 10 13 9
          27 28 33 33 28 34
          28 30 34 34 30 35
          16 9 13 18 24 26
          15 10 12 25 27 20
          11 14 23 33 32 27
          27 32 23 24 22 29
          24 29 30 20 27 23
          32 31 23 22 15 12
          35 30 29 9 11 4
          10 9 5 5 9 4
          10 5 7 5 4 2
          7 5 3 10 7 12
          8 12 7 8 3 1
          3 5 2 3 2 0
          7 3 8 0 1 3
          1 6 8
        </DataArray>
        <DataArray type="Int64" Name="offsets" format="ascii" RangeMin="3" RangeMax="159">
          3 6 9 12 15 18
          21 24 27 30 33 36
          39 42 45 48 51 54
          57 60 63 66 69 72
          75 78 81 84 87 90
          93 96 99 102 105 108
          111 114 117 120 123 126
          129 132 135 138 141 144
          147 150 153 156 159
        </DataArray>
        <DataArray type="UInt8" Name="types" format="ascii" RangeMin="5" RangeMax="5">
          5 5 5 5 5 5
          5 5 5 5 5 5
          5 5 5 5 5 5
          5 5 5 5 5 5
          5 5 5 5 5 5
          5 5 5 5 5 5
          5 5 5 5 5 5
          5 5 5 5 5 5
          5 5 5 5 5
        </DataArray>
      </Cells>
    </Piece>
  </UnstructuredGrid>
</VTKFile>
