<?xml version="1.0"?>
<VTKFile type="UnstructuredGrid" version="0.1" byte_order="LittleEndian" header_type="UInt32" compressor="vtkZLibDataCompressor">
  <UnstructuredGrid>
    <Piece NumberOfPoints="88" NumberOfCells="239">
      <PointData>
        <DataArray type="Float64" Name="nsi_BC" NumberOfComponents="3" format="ascii" RangeMin="0" RangeMax="1">
          1 0 0 1 0 0
          1 0 0 1 0 0
          1 0 0 0 0 0
          1 0 0 0 0 0
          1 0 0 0 0 0
          1 0 0 0 0 0
          0 0 0 0 0 0
          1 0 0 0 0 0
          0 0 0 1 0 0
          1 0 0 1 0 0
          0 0 0 1 0 0
          1 0 0 0 0 0
          0 0 0 0 0 0
          1 0 0 1 0 0
          0 0 0 0 0 0
          0 0 0 0 0 0
          1 0 0 0 0 0
          0 0 0 0 0 0
          1 0 0 1 0 0
          0 0 0 1 0 0
          1 0 0 0 0 0
          0 0 0 0 0 0
          0 0 0 1 0 0
          0 0 0 0 0 0
          1 0 0 0 0 0
          0 0 0 0 0 0
          1 0 0 1 0 0
          0 0 0 0 0 0
          1 0 0 0 0 0
          0 0 0 1 0 0
          0 0 0 0 0 0
          1 0 0 0 0 0
          0 0 0 1 0 0
          0 0 0 0 0 0
          0 0 0 1 0 0
          1 0 0 0 0 0
          0 0 0 1 0 0
          0 0 0 1 0 0
          0 0 0 0 0 0
          1 0 0 1 0 0
          1 0 0 1 0 0
          0 0 0 0 0 0
          1 0 0 0 0 0
          1 0 0 0 0 0
          <InformationKey name="L2_NORM_RANGE" location="vtkDataArray" length="2">
            <Value index="0">
              0
            </Value>
            <Value index="1">
              1
            </Value>
          </InformationKey>
        </DataArray>
        <DataArray type="Float64" Name="nsi_FIXNO" NumberOfComponents="3" format="ascii" RangeMin="1.7320508075688772" RangeMax="1.7320508075688772">
          1 1 1 1 1 1
          1 1 1 1 1 1
          1 1 1 1 1 1
          1 1 1 1 1 1
          1 1 1 -1 -1 -1
          1 1 1 1 1 1
          1 1 1 1 1 1
          1 1 1 -1 -1 -1
          -1 -1 -1 1 1 1
          1 1 1 1 1 1
          1 1 1 1 1 1
          1 1 1 1 1 1
          1 1 1 -1 -1 -1
          1 1 1 1 1 1
          1 1 1 -1 -1 -1
          1 1 1 1 1 1
          1 1 1 1 1 1
          -1 -1 -1 1 1 1
          1 1 1 1 1 1
          1 1 1 1 1 1
          1 1 1 1 1 1
          1 1 1 1 1 1
          1 1 1 1 1 1
          1 1 1 1 1 1
          1 1 1 1 1 1
          1 1 1 1 1 1
          1 1 1 1 1 1
          1 1 1 1 1 1
          1 1 1 1 1 1
          1 1 1 1 1 1
          1 1 1 1 1 1
          1 1 1 1 1 1
          1 1 1 1 1 1
          1 1 1 1 1 1
          1 1 1 1 1 1
          1 1 1 -1 -1 -1
          1 1 1 1 1 1
          1 1 1 1 1 1
          1 1 1 1 1 1
          1 1 1 1 1 1
          1 1 1 1 1 1
          1 1 1 1 1 1
          1 1 1 1 1 1
          1 1 1 1 1 1
          <InformationKey name="L2_NORM_RANGE" location="vtkDataArray" length="2">
            <Value index="0">
              1.7320508076
            </Value>
            <Value index="1">
              1.7320508076
            </Value>
          </InformationKey>
        </DataArray>
        <DataArray type="Float64" Name="tem_BC" format="ascii" RangeMin="0" RangeMax="12">
          0 0 0 0 0 12
          0 12 0 0 0 12
          12 12 0 0 0 0
          0 0 12 0 0 12
          12 0 0 0 12 0
          12 12 0 12 0 12
          0 0 12 0 0 12
          12 12 12 0 12 12
          0 12 12 12 0 0
          12 12 0 12 12 0
          12 12 0 12 12 0
          12 12 12 0 0 0
          12 0 12 7.64356 12 12
          0 7.64356 8.129456 8.136573 12 12
          7.64356 12 8.129456 12
        </DataArray>
        <DataArray type="Float64" Name="tem_FIXNO" format="ascii" RangeMin="-1" RangeMax="1">
          -1 -1 -1 -1 -1 1
          -1 1 -1 -1 -1 1
          1 1 -1 -1 -1 -1
          -1 -1 1 -1 -1 1
          1 -1 -1 -1 1 -1
          1 1 -1 1 -1 1
          -1 -1 1 -1 -1 1
          1 1 1 -1 1 1
          -1 1 1 1 -1 -1
          1 1 -1 1 1 -1
          1 1 -1 1 1 -1
          1 1 1 -1 -1 -1
          1 -1 1 1 1 1
          -1 1 1 1 1 1
          1 1 1 1
        </DataArray>
        <DataArray type="Float64" Name="Velocity" NumberOfComponents="3" format="ascii" RangeMin="0" RangeMax="1.0000000000000002">
          1 0 0 1 0 0
          1 0 0 1 0 0
          1 0 0 0 0 0
          1 0 0 0 0 0
          1 0 0 0.5239462957695038 0.07317444112845173 0.06835356428974361
          1 0 0 0 0 0
          0 0 0 0 0 0
          1 0 0 0.4310916806736711 0.06055235049533901 -0.008290104003775042
          0.5057671488981923 0.07553500449516698 -0.012874939779022543 1 0 0
          1 0 0 1 0 0
          0 0 0 1 0 0
          1.0000000000000002 0 0 0 0 0
          0 0 0 0.41402041760129116 -0.01507936400685106 -0.02312716559936101
          1 0 0 1 0 0
          0 0 0 0.325082578272728 0.04264448962843237 -0.06971430608749551
          0 0 0 0 0 0
          1 0 0 0 0 0
          0.44764780995764797 -0.07035254661778383 0.006402123537712084 0 0 0
          1 0 0 1 0 0
          0 0 0 1 0 0
          1 0 0 0 0 0
          0 0 0 0 0 0
          0 0 0 1 0 0
          0 0 0 0 0 0
          1 0 0 0 0 0
          0 0 0 0 0 0
          1 0 0 1 0 0
          0 0 0 0 0 0
          1 0 0 0 0 0
          0 0 0 1 0 0
          0 0 0 0 0 0
          1 0 0 0 0 0
          0 0 0 1 0 0
          0 0 0 0 0 0
          0 0 0 1 0 0
          1 0 0 0.630107532664612 -0.029560660643313336 -0.08997530111572043
          0 0 0 1 0 0
          0 0 0 1 0 0
          0 0 0 0 0 0
          1 0 0 1 0 0
          1 0 0 1 0 0
          0 0 0 0 0 0
          1 0 0 0 0 0
          1 0 0 0 0 0
          <InformationKey name="L2_NORM_RANGE" location="vtkDataArray" length="2">
            <Value index="0">
              0
            </Value>
            <Value index="1">
              1
            </Value>
          </InformationKey>
        </DataArray>
        <DataArray type="Float64" Name="Pressure" format="ascii" RangeMin="0" RangeMax="11.926157231815738">
          0 7.709872803251773 7.978248130574459 7.727582566219081 8.730284815036242 8.331185284045015
          9.247898204383581 8.877386959459484 9.875239144963276 9.47965104866198 9.76397681486784 8.444423534417687
          9.249042750190503 9.391735193167973 8.41663037593968 10.176890258030586 9.472750038350306 9.954690865902341
          10.565970517399101 8.331247948240378 9.2846060639837 8.969140879727298 10.571258248274312 9.907018817512382
          10.269547545772134 10.577773959576277 9.104648923947773 10.740467782050375 8.795931527103392 10.267657073460319
          9.886805492042622 9.10678597339003 9.98837806349991 10.508671336958939 10.75980019537095 10.608518183800564
          10.779513743684346 9.819286369947589 9.629068553925476 10.982693956192373 10.893827802635355 10.429049268964473
          10.779250754671626 10.997742297961901 10.808020399384509 10.388736337711386 10.661475869059066 10.140221247361193
          10.92816985463363 10.761699041953417 10.70330014551586 10.77764764383669 10.790654597370194 10.91645967027985
          10.676718861911608 10.800979283705919 11.086751891382821 10.716266193764154 10.481145018282126 10.69168608836298
          10.799322576585254 10.661608807297233 11.146279274049082 10.832326855406722 10.816104382139834 10.89314292940937
          10.717268525430319 10.611255922135394 10.839819785267382 10.6730866976351 11.016019159302862 11.188887856656407
          10.829511462451185 11.023288424515252 10.883990232999523 11.44990490191325 10.79419588886704 10.87829932522749
          10.9142748811993 11.926157231815738 11.088196710986638 11.34750166601209 10.962613929829367 10.87864986257884
          11.872688224760573 10.874548460430734 11.496274257684682 11.115696922219652
        </DataArray>
        <DataArray type="Float64" Name="DISSI_NS" format="ascii" RangeMin="-0.27917886129193065" RangeMax="25171.374124778755">
          19.01570446200819 2.507971845465586 2.511224636167648 1.0813607740061815 0.1642717634606933 14010.094908478439
          0.1959886399762262 8693.155798641159 0.20195399067888972 -0.2500460924029449 0.21998308809776454 25171.374124778755
          10761.900829356457 11355.806314510855 0.0463402579403398 -0.14655139222119276 -0.27917886129193065 0.12331857738670414
          0.08876566012033169 0.10805448535448657 7928.55846702966 0.11837381436442201 0.13050014056857367 10595.80794176345
          9849.942180792596 -0.09706496365533765 0.11731906786716922 0.03749777140085482 6953.592118085446 -0.09595480027840718
          6991.222982611051 7222.70280075382 0.18310872793568508 3272.2558348605417 -0.09431246881550867 1593.865087333344
          0.07581666861710819 0.14620443021869006 6563.713523253344 0.01925166405847315 0.0781569732350987 4005.9168463891724
          2538.8414073946533 4425.120467630054 1564.2368083255158 0.08529152426025373 951.3099483288331 4355.656748688868
          0.09630312121334816 462.2503348607831 208.70851975534276 2175.9845733146035 0.28408117682796025 0.06468938023033975
          3530.2872175300377 577.2358885296476 0.025584251411875893 627.7716321521607 2156.831083912404 0.062094205978642306
          130.04401884751525 1791.6874891965244 0.15090546040528846 1925.2843816320246 183.15966554109428 0.20190530330404236
          412.75939291729634 528.0809003326235 224.37785897324937 0.17298517277817055 0.07245758333872941 -0.152830754716947
          1126.4884384953004 0.08357282127173829 72.7083302576525 0.01823696849586504 803.2393850622202 2504.5171231003633
          0.0815353360936501 0.08800790797574931 0.0756118188972995 0.1883634385954326 2616.3769828721533 534.1985088780955
          0.1132679961187259 2023.6508750615537 0.120552679271751 2663.0660908706477
        </DataArray>
        <DataArray type="Float64" Name="Temperature" format="ascii" RangeMin="-1.4099358144094827" RangeMax="12.000000000000004">
          0.509732836744606 -0.7884344515246684 0.06606168205350586 -0.43102046836641433 -0.12413664239651669 12
          -0.1254147000729908 12 -0.18254585642571772 0.2271853177371 -0.04707654381216833 12
          12.000000000000002 12 0.402481429088518 -0.17599174839078086 0.20978625503231316 -0.16920939707138122
          0.2171510771675535 -0.5815050521795634 11.999999999999998 -0.028056798763991628 -0.6454121041296422 12.000000000000004
          12 1.720685750045925 -0.2341770866118262 0.0877290159043711 12 1.0551278736076237
          12.000000000000002 11.999999999999998 -0.309674835999418 11.999999999999998 1.2903382444341376 12.000000000000002
          1.037452411951333 -0.03310352048734145 12.000000000000002 -0.16953529694308572 -1.4099358144094827 11.999999999999998
          12.000000000000004 12 12 -0.43522017751259884 12.000000000000002 12
          -0.027564559808148044 11.999999999999998 11.999999999999998 12.000000000000002 0.4557562230958139 -0.1774621410319241
          12.000000000000004 12.000000000000002 2.1760846962816105 12.000000000000002 11.999999999999998 0.10436159449508269
          12 12.000000000000002 1.9205003085393444 12.000000000000004 12 2.460687717780527
          11.999999999999998 12 12.000000000000002 -0.15169805522640034 1.7261684599132252 3.0147260341160194
          12.000000000000004 0.21836470477616182 12 7.643560000000001 12.000000000000002 12
          2.732279390460284 7.6435600000000035 8.129456000000001 8.136572999999999 12.000000000000002 12
          7.64356 11.999999999999998 8.129456000000001 12
        </DataArray>
        <DataArray type="Float64" Name="DISSI_TEMPE" format="ascii" RangeMin="-1.9768621741205201" RangeMax="5.803535225603266">
          0.16556149929130165 0.4883478842742771 0.020712655161172887 1.231862790432493 0.7313797739011922 0.3490832841708902
          0.01873278875793462 0.4447091012289585 0.15351048943651513 0.7113213159564098 0.5339749649170543 0.2575486222862033
          0.46179673815401256 0.4958596447656027 0.09379469404263176 1.119618115703064 0.6645617188394082 0.10225822988641001
          2.241091477993299 0.7439930863651386 0.4265059651727269 0.028306931855716876 0.5526337554109018 0.3826752981258448
          0.38363400619277055 -0.09218933020951646 1.0093601552189362 0.1043238801461897 0.33787766346089565 -0.21064818115920128
          0.46180569947874417 0.40009633095427816 0.04765076901216114 0.26558228991695365 0.2832820336030302 0.36283405199766533
          2.332378368858929 0.4253286816185917 0.49253215992012167 1.8721136789830697 1.4032367305751494 0.3107289276809651
          0.28075277926542375 0.3161966342800758 0.32366694775151655 1.5382059251556104 1.22371876643024e-31 0.44464500734336593
          3.018513360945415 1.230005821246984e-31 0.4809390248709604 0.31266712930365276 4.245457036844121 0.17518032629678298
          0.30591489494651974 0.3692380535444388 -1.9768621741205201 7.073159460815921e-32 0.312783176188386 1.1188315188700286
          0.7518493654637551 0.3747027428694944 1.4867419236992698 0.11175436837156431 0.610165358236854 2.673472312027224
          0.5113795061989107 0.49451624273048717 1.1876215372727092e-31 4.5156939205752495 -0.8824811682025352 -1.0280896774475576
          0.1564868635778617 2.849346767252728 0.3376085145081528 4.259673576092934 0.5481606767096568 0.16954678498549428
          2.017132439875553 4.687093379255605 5.803535225603266 2.775815970680987 0.21951814459537725 0.18826695564411827
          5.511966208093936 0.10606231537184527 4.591603482725436 0.0156687512052616
        </DataArray>
        <DataArray type="Float64" Name="CN2" format="ascii" RangeMin="-4.197934804406693e-11" RangeMax="9.36022575051533e-11">
          3.975773443866036e-13 2.348454304984728e-12 9.832447902518353e-14 7.80047671058404e-12 8.640906826968602e-12 7.874764262122134e-14
          2.0867741406358481e-13 1.1761890756641898e-13 1.6944921035558059e-12 7.26834850056644e-12 5.7171626992798304e-12 4.7791072183400726e-14
          1.137499912119662e-13 1.1997318396207013e-13 1.6766635991365681e-12 1.3751597419120434e-11 6.547290230977912e-12 1.3302202650319137e-12
          3.234653238824954e-11 1.0174999171785303e-11 1.1632083564635937e-13 3.725081602731033e-13 7.10406570778856e-12 9.475197923627721e-14
          9.732959266230329e-14 -1.2635177337036137e-12 1.3362801498965193e-11 2.010585479877896e-12 9.626815505512756e-14 -2.9263911898860625e-12
          1.3134411409076238e-13 1.1256246391392172e-13 5.444559698828865e-13 9.728767100824119e-14 3.944642734567879e-12 1.6892716723229066e-13
          3.505829332208684e-11 5.217216365731403e-12 1.430599910967042e-13 4.522951368457393e-11 2.164204530962763e-11 1.0640322648303841e-13
          1.119237714031692e-13 1.0474361781266706e-13 1.5163794761945059e-13 2.271492968022375e-11 6.76680062063175e-44 1.4806990020641018e-13
          4.25521724297316e-11 8.6514997349176e-44 4.4094669870836936e-13 1.312221263490066e-13 4.143618636185434e-11 2.8259859428501257e-12
          1.0926301541569332e-13 2.411750233692633e-13 -4.197934804406693e-11 4.492510861206402e-44 1.316574828684982e-13 1.8221416263190608e-11
          8.070696457985892e-13 1.677806577615703e-13 1.7538725146745914e-11 4.885512579923072e-14 5.843163642352038e-13 2.839750509484603e-11
          3.7352578635041486e-13 3.3272779174085854e-13 1.0629072929372741e-43 5.2462759888879415e-11 -1.3332190220750432e-11 -1.1886713072465424e-11
          8.179238505483025e-14 4.196008441507418e-11 4.399091947945077e-13 9.36022575051533e-11 3.207030853583797e-13 6.789834885827862e-14
          2.8873230409711656e-11 6.094827178640026e-11 7.883462251475261e-11 2.781235053270252e-11 8.663938717895013e-14 1.2618784838301189e-13
          6.589240590904467e-11 4.5603012296786174e-14 5.339040654607331e-11 6.147805527062528e-15
        </DataArray>
        <DataArray type="Float64" Name="CT2" format="ascii" RangeMin="-38.64333829773143" RangeMax="93.21402343381487">
          0.35728191021565353 2.0703522452912204 0.08777343009016429 6.912916057772025 7.692091757128797 0.08340738604648057
          0.185758182338285 0.12457742409968307 1.5071034360103441 6.503517043086045 5.095032373852727 0.050618904231492144
          0.12047872121385765 0.12706967608047165 1.5041157961331835 12.231951509451804 5.856843601442845 1.18334465134416
          28.937904020219754 8.997263717124445 0.12320155292316226 0.3320703262083739 6.2756141291426335 0.10035558650000942
          0.1030848919577048 -1.155444202095504 11.876243835748191 1.7953028868410974 0.1019636941343916 -2.6502771673103007
          0.13911182686950532 0.11922128648117802 0.4833436849840901 0.10303999865359725 3.5846917006066077 0.17891496577410546
          31.741924614407736 4.650435684616054 0.15152136376733302 40.234499978755316 18.904455954030915 0.11269470897292036
          0.11854084625688739 0.11093570819076605 0.16060288237591472 20.128048554148993 7.166879307308464e-32 0.15682598399527578
          37.93168467512622 9.162990552210284e-32 0.4670167342858701 0.13898014879865686 37.199129830111794 2.5136037614482416
          0.1157230202921464 0.25543348464017723 -38.64333829773143 4.7581197756394025e-32 0.13944207096918546 16.274343683987325
          0.8547842804101624 0.17770048040354583 16.08507486266022 0.05174344767575339 0.6188614302552482 26.24917139455192
          0.39560959339411195 0.35240026330605384 1.125746352208552e-31 46.68141595786975 -12.192702622336359 -11.07600720188542
          0.08662796718676695 37.538717873379156 0.4659162066099559 93.21402343381487 0.33966335566601025 0.07191244263522416
          26.794250216442254 60.694898590473954 79.05303471207027 27.892083088259852 0.09176128079725974 0.13364796783843075
          65.618549199369 0.048299027986937346 53.53788835578363 0.00651122775266293
        </DataArray>
      </PointData>
      <CellData>
        <DataArray type="UInt8" Name="vtkGhostType" format="ascii" RangeMin="0" RangeMax="0">
          0 0 0 0 0 0
          0 0 0 0 0 0
          0 0 0 0 0 0
          0 0 0 0 0 0
          0 0 0 0 0 0
          0 0 0 0 0 0
          0 0 0 0 0 0
          0 0 0 0 0 0
          0 0 0 0 0 0
          0 0 0 0 0 0
          0 0 0 0 0 0
          0 0 0 0 0 0
          0 0 0 0 0 0
          0 0 0 0 0 0
          0 0 0 0 0 0
          0 0 0 0 0 0
          0 0 0 0 0 0
          0 0 0 0 0 0
          0 0 0 0 0 0
          0 0 0 0 0 0
          0 0 0 0 0 0
          0 0 0 0 0 0
          0 0 0 0 0 0
          0 0 0 0 0 0
          0 0 0 0 0 0
          0 0 0 0 0 0
          0 0 0 0 0 0
          0 0 0 0 0 0
          0 0 0 0 0 0
          0 0 0 0 0 0
          0 0 0 0 0 0
          0 0 0 0 0 0
          0 0 0 0 0 0
          0 0 0 0 0 0
          0 0 0 0 0 0
          0 0 0 0 0 0
          0 0 0 0 0 0
          0 0 0 0 0 0
          0 0 0 0 0 0
          0 0 0 0 0
        </DataArray>
      </CellData>
      <Points>
        <DataArray type="Float32" Name="Points" NumberOfComponents="3" format="ascii" RangeMin="0" RangeMax="24.49489742783178">
          20 10 10 20 6.5 10
          16 10 10 20 10 5
          16.37211036682129 5.206768989562988 10 20 3 10
          14.333330154418945 10 5.767949104309082 17.5 2.625 10
          12 10 10 14.425399780273438 5.033590793609619 7.012404918670654
          13.360549926757812 4.658843994140625 10 20 3 5
          16.25 2.4375 7.37460994720459 15 2.25 10
          20 10 0 12.214110374450684 6.010365009307861 4.925261974334717
          14.570380210876465 5.105739116668701 2.9404709339141846 12 10 3.0717968940734863
          10 10 6.535898208618164 20 6.5 0
          16.344310760498047 2.451646089553833 3.285098075866699 16 10 0
          10.119270324707031 5.519060134887695 10 13.631239891052246 2.0446860790252686 6.215021133422852
          12.5 1.875 10 10.550640106201172 4.647356033325195 7.100153923034668
          16.37211036682129 5.206768989562988 0 8 10 10
          20 3 0 11.739009857177734 4.367464065551758 2.512845993041992
          13.663330078125 2.049499034881592 2.55780291557312 17.5 2.625 0
          12 10 0 10.661359786987305 1.5992039442062378 6.873061180114746
          9.59029769897461 6.954894065856934 2.912667989730835 10 1.5 10
          8.36054801940918 3.908843994140625 10 13.360549926757812 4.658843994140625 0
          15 2.25 0 6.61377477645874 6.690732002258301 10
          8 10 3.0717968940734863 10.999679565429688 1.6499520540237427 3.4145760536193848
          9 3 5 8 4.732050895690918 5
          8 3 6.732050895690918 10.596699714660645 5.428274154663086 0
          9 1.350000023841858 5 12.5 1.875 0
          5.6666669845581055 10 5.767949104309082 7.9958391189575195 1.1993759870529175 6.734446048736572
          7.5 1.125 10 8 3 3.267949104309082
          5.86054801940918 3.533843994140625 10 8 10 0
          6 4.732050895690918 5 6 3 6.732050895690918
          4 10 10 7.995840072631836 1.1993759870529175 3.2655539512634277
          10 1.5 0 7.719629764556885 4.535800933837891 0
          6.004158973693848 0.9006239175796509 6.734445095062256 6 3 3.267949104309082
          3.305811882019043 6.3972368240356445 10 5 3 5
          5 0.75 10 3.3605480194091797 3.158843994140625 10
          6.004159927368164 0.9006239771842957 3.2655539512634277 7.5 1.125 0
          5 0.75 5 5.535371780395508 3.26835298538208 0
          4 10 0 3.0012240409851074 5.308693885803223 3.156306028366089
          3.720721960067749 0.5581083297729492 6.921747207641602 4.087935924530029 6.566143035888672 0
          2.5 0.375 10 0 10 10
          5 0.75 0 3.3971519470214844 0.5095726847648621 3.1724090576171875
          3.3605480194091797 3.158843994140625 0 0 10 5
          0 5 10 0 4.949490070343018 5.050509929656982
          2.5 0.375 0 0 0 10
          0 10 0 0 0 5
          0 5 0 0 0 0
          <InformationKey name="L2_NORM_RANGE" location="vtkDataArray" length="2">
            <Value index="0">
              0
            </Value>
            <Value index="1">
              24.494897428
            </Value>
          </InformationKey>
        </DataArray>
      </Points>
      <Cells>
        <DataArray type="Int64" Name="connectivity" format="ascii" RangeMin="0" RangeMax="87">
          16 20 19 11 53 40
          70 73 81 63 77 71
          69 59 61 51 62 55
          52 65 66 77 69 76
          55 68 72 63 79 62
          75 80 52 55 64 65
          10 8 2 9 32 37
          21 16 47 41 30 29
          15 9 23 16 54 48
          34 40 44 42 43 25
          43 39 44 25 41 15
          23 29 62 54 81 71
          77 69 78 61 32 17
          53 34 39 54 62 48
          59 73 54 34 19 3
          21 16 11 1 4 12
          79 56 75 62 45 17
          32 34 54 59 61 73
          23 33 24 25 18 22
          39 25 23 10 24 13
          24 10 23 25 39 48
          56 27 46 42 44 33
          4 11 12 9 64 60
          52 50 40 73 54 71
          23 15 41 25 44 35
          36 50 39 18 43 48
          10 9 23 25 43 54
          39 48 23 16 30 29
          85 81 65 72 60 50
          49 55 21 17 32 16
          49 35 44 50 81 62
          79 80 39 22 36 25
          26 38 20 16 81 85
          65 80 81 63 65 72
          8 9 22 25 20 38
          30 16 46 44 49 33
          20 16 19 26 70 40
          48 73 7 4 12 13
          61 59 69 73 45 51
          58 29 52 39 36 55
          69 73 78 71 36 35
          44 25 42 15 41 29
          19 21 3 14 77 63
          61 71 78 82 77 86
          40 73 53 34 18 48
          39 27 68 61 77 63
          17 40 53 34 23 13
          12 9 49 50 44 55
          17 37 32 16 48 54
          34 43 81 77 63 85
          18 8 22 25 44 35
          49 33 36 39 44 55
          61 54 43 59 86 73
          84 71 59 45 53 34
          11 9 3 16 10 13
          23 9 52 50 60 55
          11 1 3 9 77 72
          63 85 86 81 77 71
          6 17 21 16 4 1
          11 9 54 73 61 71
          39 62 56 48 43 15
          42 29 70 48 79 71
          67 59 69 51 4 2
          3 9 37 16 17 29
          43 34 18 25 43 18
          39 25 52 62 39 55
          86 84 79 71 15 34
          17 29 12 13 4 9
          32 17 45 37 3 1
          4 9 45 34 51 29
          79 62 81 71 69 78
          61 71 45 37 17 29
          48 73 40 71 57 58
          67 51 10 2 4 9
          6 8 18 15 31 26
          20 19 67 61 57 51
          54 73 40 34 62 48
          54 71 18 27 39 22
          11 20 12 9 41 58
          57 51 56 62 79 48
          46 41 57 51 41 42
          46 33 47 37 30 38
          46 42 41 51 3 2
          4 1 43 51 59 34
          23 20 30 16 77 86
          85 81 8 15 6 9
          0 2 3 1 24 22
          10 25 41 33 23 25
          87 85 77 86 69 61
          67 51 52 60 64 55
          59 51 45 34 41 51
          42 29 39 55 62 54
          12 20 23 9 15 34
          43 25 15 16 23 29
          22 9 10 25 44 39
          43 54 44 55 39 54
          23 9 15 25 84 70
          79 71 35 33 44 25
          44 33 42 25 61 73
          69 71 84 73 70 71
          17 15 18 34 36 22
          35 25 36 50 55 44
          79 81 86 71 2 8
          6 9 18 17 6 15
          27 22 18 8 4 13
          10 9 42 51 43 29
          22 8 10 9 31 11
          28 19 15 9 8 25
          43 59 54 34 78 73
          86 71 86 77 78 71
          41 15 42 25 18 40
          17 34 54 63 81 71
          70 73 48 71 3 2
          6 9 17 34 45 29
          74 65 64 72 64 55
          60 72 64 65 55 72
          57 61 67 66 69 76
          67 66 67 61 69 66
          21 26 19 16 77 86
          82 87 24 33 35 25
          20 26 31 38 35 22
          24 25 55 68 60 72
          17 16 15 29 76 82
          77 78 77 66 69 61
          77 72 68 63 61 78
          77 71 48 40 54 71
          30 16 37 29 58 51
          41 29 61 63 54 71
          67 58 59 51 59 58
          45 51 37 26 21 16
          23 9 20 16 50 36
          55 52 43 48 18 34
          85 65 80 83 42 15
          43 25 61 59 43 51
          30 38 37 16 45 58
          47 29 43 34 15 29
          62 54 55 63 81 54
          62 63 55 72 65 63
          31 11 19 20 42 33
          41 25 3 9 6 16
          55 65 62 63 62 65
          81 63 48 40 18 34
          74 85 65 72 79 48
          62 71 11 5 1 12
          53 73 59 34 44 39
          36 25 62 80 81 65
          30 41 23 29 53 45
          32 34 3 6 21 16
          12 7 1 4 85 74
          65 83 18 15 8 25
          18 34 15 25 68 61
          66 77 6 15 17 16
          63 72 81 85 47 58
          41 29 47 37 45 29
          20 9 11 16 5 7
          1 12 69 77 78 76
          30 37 47 29 37 38
          26 16 11 3 19 16
          51 34 43 29 6 9
          15 16
        </DataArray>
        <DataArray type="Int64" Name="offsets" format="ascii" RangeMin="4" RangeMax="956">
          4 8 12 16 20 24
          28 32 36 40 44 48
          52 56 60 64 68 72
          76 80 84 88 92 96
          100 104 108 112 116 120
          124 128 132 136 140 144
          148 152 156 160 164 168
          172 176 180 184 188 192
          196 200 204 208 212 216
          220 224 228 232 236 240
          244 248 252 256 260 264
          268 272 276 280 284 288
          292 296 300 304 308 312
          316 320 324 328 332 336
          340 344 348 352 356 360
          364 368 372 376 380 384
          388 392 396 400 404 408
          412 416 420 424 428 432
          436 440 444 448 452 456
          460 464 468 472 476 480
          484 488 492 496 500 504
          508 512 516 520 524 528
          532 536 540 544 548 552
          556 560 564 568 572 576
          580 584 588 592 596 600
          604 608 612 616 620 624
          628 632 636 640 644 648
          652 656 660 664 668 672
          676 680 684 688 692 696
          700 704 708 712 716 720
          724 728 732 736 740 744
          748 752 756 760 764 768
          772 776 780 784 788 792
          796 800 804 808 812 816
          820 824 828 832 836 840
          844 848 852 856 860 864
          868 872 876 880 884 888
          892 896 900 904 908 912
          916 920 924 928 932 936
          940 944 948 952 956
        </DataArray>
        <DataArray type="UInt8" Name="types" format="ascii" RangeMin="10" RangeMax="10">
          10 10 10 10 10 10
          10 10 10 10 10 10
          10 10 10 10 10 10
          10 10 10 10 10 10
          10 10 10 10 10 10
          10 10 10 10 10 10
          10 10 10 10 10 10
          10 10 10 10 10 10
          10 10 10 10 10 10
          10 10 10 10 10 10
          10 10 10 10 10 10
          10 10 10 10 10 10
          10 10 10 10 10 10
          10 10 10 10 10 10
          10 10 10 10 10 10
          10 10 10 10 10 10
          10 10 10 10 10 10
          10 10 10 10 10 10
          10 10 10 10 10 10
          10 10 10 10 10 10
          10 10 10 10 10 10
          10 10 10 10 10 10
          10 10 10 10 10 10
          10 10 10 10 10 10
          10 10 10 10 10 10
          10 10 10 10 10 10
          10 10 10 10 10 10
          10 10 10 10 10 10
          10 10 10 10 10 10
          10 10 10 10 10 10
          10 10 10 10 10 10
          10 10 10 10 10 10
          10 10 10 10 10 10
          10 10 10 10 10 10
          10 10 10 10 10 10
          10 10 10 10 10 10
          10 10 10 10 10 10
          10 10 10 10 10 10
          10 10 10 10 10 10
          10 10 10 10 10
        </DataArray>
      </Cells>
    </Piece>
  </UnstructuredGrid>
</VTKFile>
