<?xml version="1.0"?>
<VTKFile type="UnstructuredGrid" version="0.1" byte_order="LittleEndian" header_type="UInt32" compressor="vtkZLibDataCompressor">
  <UnstructuredGrid>
    <Piece NumberOfPoints="88" NumberOfCells="239">
      <PointData>
        <DataArray type="Float64" Name="nsi_BC" NumberOfComponents="3" format="ascii" RangeMin="0" RangeMax="1">
          1 0 0 1 0 0
          1 0 0 1 0 0
          1 0 0 0 0 0
          1 0 0 0 0 0
          1 0 0 0 0 0
          1 0 0 0 0 0
          0 0 0 0 0 0
          1 0 0 0 0 0
          0 0 0 1 0 0
          1 0 0 1 0 0
          0 0 0 1 0 0
          1 0 0 0 0 0
          0 0 0 0 0 0
          1 0 0 1 0 0
          0 0 0 0 0 0
          0 0 0 0 0 0
          1 0 0 0 0 0
          0 0 0 0 0 0
          1 0 0 1 0 0
          0 0 0 1 0 0
          1 0 0 0 0 0
          0 0 0 0 0 0
          0 0 0 1 0 0
          0 0 0 0 0 0
          1 0 0 0 0 0
          0 0 0 0 0 0
          1 0 0 1 0 0
          0 0 0 0 0 0
          1 0 0 0 0 0
          0 0 0 1 0 0
          0 0 0 0 0 0
          1 0 0 0 0 0
          0 0 0 1 0 0
          0 0 0 0 0 0
          0 0 0 1 0 0
          1 0 0 0 0 0
          0 0 0 1 0 0
          0 0 0 1 0 0
          0 0 0 0 0 0
          1 0 0 1 0 0
          1 0 0 1 0 0
          0 0 0 0 0 0
          1 0 0 0 0 0
          1 0 0 0 0 0
          <InformationKey name="L2_NORM_RANGE" location="vtkDataArray" length="2">
            <Value index="0">
              0
            </Value>
            <Value index="1">
              1
            </Value>
          </InformationKey>
        </DataArray>
        <DataArray type="Float64" Name="nsi_FIXNO" NumberOfComponents="3" format="ascii" RangeMin="1.7320508075688772" RangeMax="1.7320508075688772">
          1 1 1 1 1 1
          1 1 1 1 1 1
          1 1 1 1 1 1
          1 1 1 1 1 1
          1 1 1 -1 -1 -1
          1 1 1 1 1 1
          1 1 1 1 1 1
          1 1 1 -1 -1 -1
          -1 -1 -1 1 1 1
          1 1 1 1 1 1
          1 1 1 1 1 1
          1 1 1 1 1 1
          1 1 1 -1 -1 -1
          1 1 1 1 1 1
          1 1 1 -1 -1 -1
          1 1 1 1 1 1
          1 1 1 1 1 1
          -1 -1 -1 1 1 1
          1 1 1 1 1 1
          1 1 1 1 1 1
          1 1 1 1 1 1
          1 1 1 1 1 1
          1 1 1 1 1 1
          1 1 1 1 1 1
          1 1 1 1 1 1
          1 1 1 1 1 1
          1 1 1 1 1 1
          1 1 1 1 1 1
          1 1 1 1 1 1
          1 1 1 1 1 1
          1 1 1 1 1 1
          1 1 1 1 1 1
          1 1 1 1 1 1
          1 1 1 1 1 1
          1 1 1 1 1 1
          1 1 1 -1 -1 -1
          1 1 1 1 1 1
          1 1 1 1 1 1
          1 1 1 1 1 1
          1 1 1 1 1 1
          1 1 1 1 1 1
          1 1 1 1 1 1
          1 1 1 1 1 1
          1 1 1 1 1 1
          <InformationKey name="L2_NORM_RANGE" location="vtkDataArray" length="2">
            <Value index="0">
              1.7320508076
            </Value>
            <Value index="1">
              1.7320508076
            </Value>
          </InformationKey>
        </DataArray>
        <DataArray type="Float64" Name="tem_BC" format="ascii" RangeMin="0" RangeMax="12">
          0 0 0 0 0 12
          0 12 0 0 0 12
          12 12 0 0 0 0
          0 0 12 0 0 12
          12 0 0 0 12 0
          12 12 0 12 0 12
          0 0 12 0 0 12
          12 12 12 0 12 12
          0 12 12 12 0 0
          12 12 0 12 12 0
          12 12 0 12 12 0
          12 12 12 0 0 0
          12 0 12 7.64356 12 12
          0 7.64356 8.129456 8.136573 12 12
          7.64356 12 8.129456 12
        </DataArray>
        <DataArray type="Float64" Name="tem_FIXNO" format="ascii" RangeMin="-1" RangeMax="1">
          -1 -1 -1 -1 -1 1
          -1 1 -1 -1 -1 1
          1 1 -1 -1 -1 -1
          -1 -1 1 -1 -1 1
          1 -1 -1 -1 1 -1
          1 1 -1 1 -1 1
          -1 -1 1 -1 -1 1
          1 1 1 -1 1 1
          -1 1 1 1 -1 -1
          1 1 -1 1 1 -1
          1 1 -1 1 1 -1
          1 1 1 -1 -1 -1
          1 -1 1 1 1 1
          -1 1 1 1 1 1
          1 1 1 1
        </DataArray>
        <DataArray type="Float64" Name="Velocity" NumberOfComponents="3" format="ascii" RangeMin="0" RangeMax="1.0000000000000002">
          1 0 0 1 0 0
          1 0 0 1 0 0
          1 0 0 0 0 0
          1 0 0 0 0 0
          1 0 0 0.8559386216651366 0.09866288802594567 0.06730505981964041
          1 0 0 0 0 0
          0 0 0 0 0 0
          1 0 0 0.8909108163639351 0.04516266176412493 0.016874307308670733
          0.8234670014645347 0.0886092683041631 -0.017911540213954642 1 0 0
          1 0 0 1 0 0
          0 0 0 1 0 0
          1 0 0 0 0 0
          0 0 0 0.6066964601157068 0.15538368487261311 -0.107850144626505
          1 0 0 1.0000000000000002 0 0
          0 0 0 0.6597238461930255 0.17169394115471456 0.013542538494893272
          0 0 0 0 0 0
          1 0 0 0 0 0
          0.784684273737887 -0.05166286075097415 0.09073560511547607 0 0 0
          1 0 0 1 0 0
          0 0 0 1 0 0
          1 0 0 0 0 0
          0 0 0 0 0 0
          0 0 0 1 0 0
          0 0 0 0 0 0
          1 0 0 0 0 0
          0 0 0 0 0 0
          1.0000000000000002 0 0 1 0 0
          0 0 0 0 0 0
          1 0 0 0 0 0
          0 0 0 1 0 0
          0 0 0 0 0 0
          1 0 0 0 0 0
          0 0 0 1 0 0
          0 0 0 0 0 0
          0 0 0 1 0 0
          1 0 0 0.7599835148731939 0.03456219421100083 -0.13677197192320326
          0 0 0 1 0 0
          0 0 0 1 0 0
          0 0 0 0 0 0
          1 0 0 1 0 0
          1 0 0 1 0 0
          0 0 0 0 0 0
          1 0 0 0 0 0
          1 0 0 0 0 0
          <InformationKey name="L2_NORM_RANGE" location="vtkDataArray" length="2">
            <Value index="0">
              0
            </Value>
            <Value index="1">
              1
            </Value>
          </InformationKey>
        </DataArray>
        <DataArray type="Float64" Name="Pressure" format="ascii" RangeMin="0" RangeMax="9.513222930220685">
          0 7.826033655167581 7.464589443260573 8.293111315643447 8.239399135653963 8.223583944005316
          8.562892722740534 8.491348257123125 8.617934672331856 8.697636727639928 8.77711213296859 8.743529377004021
          8.716198648560834 8.735462692858599 8.679681216903539 8.936203866801304 8.804388888089862 8.87206002359481
          9.008429272070147 8.796459659451017 8.811503597850866 8.77455900834185 9.042397601355015 8.951725540884723
          9.044967551808092 9.101862035556044 8.840714101434203 9.126895997754392 8.845979573157594 9.083211269779152
          8.981167671566228 8.86479367953361 8.943638190050102 9.274573959889226 9.105337299898245 9.27461489753106
          9.2107193158535 8.93060822275516 8.961642233064895 9.275884558309816 9.263461191460975 9.274570434993453
          9.27462137917395 9.278251775184103 9.274675514672406 9.119731795926686 9.274614396919649 9.082917018413879
          9.321992307305326 9.274676565959082 9.274669737060774 9.274685920737868 9.245817818469055 9.220604601157468
          9.377006556762252 9.274769946578829 9.364499568041989 9.274687576654841 9.274636912662869 9.213837221737085
          9.274763804769478 9.274800673258648 9.411229466117135 9.274861009803962 9.274838498617878 9.270942359102529
          9.274774192764436 9.27468767350329 9.274837482223088 9.277700154879845 9.44348613040921 9.377848981677316
          9.274824693744547 9.430967990892176 9.279596187004476 9.392147244688264 9.293695473481186 9.274839584564102
          9.2754465427972 9.417380352512055 9.329653165188246 9.29576818316442 9.297240128787099 9.26228018802329
          9.513222930220685 9.274807412383407 9.373986770722304 9.319110651232911
        </DataArray>
        <DataArray type="Float64" Name="DISSI_NS" format="ascii" RangeMin="0.00007994443451794123" RangeMax="5431.88399112995">
          19.039355723534797 2.4689258559259213 2.404498777758515 0.9899511408348746 0.08859508695850733 4822.205645720642
          0.05247903234102398 2957.6996056564058 0.07549509941415844 0.08701495930082352 0.09181454280500487 5431.88399112995
          2928.8271873087606 2935.902449520429 0.009172339300901028 0.025574619417517767 0.03247083952415319 0.015954786970838228
          0.05342982988191344 0.04056934829734537 391.80054286685385 0.012937286373882481 0.070781294551205 1814.7438127243622
          2106.1966364027985 0.06225965280581577 0.037290638111266025 0.014374758783333712 134.86199157083408 0.028250368927047374
          1017.5905563249281 144.8887762580652 0.0196115377144853 1079.3288968481927 0.04119258386186385 701.0769840873093
          0.07274670117122349 0.028544815991897288 423.42998469795424 0.023336313525276705 0.07241237109385507 1060.1162491723026
          435.5243595388276 1063.2383658963622 336.84138395063945 0.031943464193157016 0.00009748750907365888 865.1997024612731
          0.0726124039648999 0.00015168637290981037 36.75418175049785 273.3785594482261 0.27687779694251335 0.01454075292053898
          518.1473173202858 168.15081005924807 0.0017853183264757073 0.00014495314122368197 448.8749500406028 0.038956456699355005
          8.025230451911352 191.1062484591505 0.10756599055759072 191.3794867908156 10.193266874585639 0.18223069542883177
          4.001152500805739 34.258768179102844 0.00007994443451794123 0.1843290049972039 0.011650969799948448 0.08585872430690987
          3.0037404153468725 0.07439723602277454 4.052475308450877 0.00044678532640520343 10.614061747713652 107.66064541934713
          0.07733193749168216 0.01544756881902378 0.06564060918347278 0.10702994632511162 76.04035083682646 54.043077770722306
          0.026397387888160276 47.19035212474143 0.054942337617293724 66.07118087265644
        </DataArray>
        <DataArray type="Float64" Name="Temperature" format="ascii" RangeMin="-2.224537364149943" RangeMax="12.000000000000005">
          0.2775017546326094 -2.224537364149943 -0.5206467069357458 -1.6320301649221718 0.4992837399681952 12
          -0.5849738491870297 12 -0.706213861219893 2.3470073437294667 1.081244540330862 11.999999999999998
          12.000000000000002 12.000000000000002 0.03467154122081579 3.175366747566982 2.0209118448765926 -0.36945718027671737
          0.8746539049863595 -1.7108807908164883 12.000000000000002 -0.8291625465141423 0.8816746932717189 12.000000000000002
          12 6.058694533934424 -0.2372987522186193 2.2889719661428076 12 5.041473435112656
          11.999999999999998 11.999999999999998 -1.030895867974104 12.000000000000004 3.3088008094682024 12
          3.650502904352006 0.8297717019238688 12 2.451911824547876 -0.009600183942434214 11.999999999999998
          12 12.000000000000002 12.000000000000005 0.27702375149541864 12.000000000000002 11.999999999999998
          3.6225439398357144 11.999999999999998 12.000000000000002 11.999999999999998 5.390297110499638 0.31812566376576823
          12.000000000000002 12.000000000000002 6.7138994049022145 12.000000000000002 12 2.311757261241524
          12 11.999999999999998 5.617932338688682 12.000000000000002 12 7.214311757645017
          11.999999999999998 12 12.000000000000002 4.981326304515829 5.886375304531623 8.005839064392944
          12.000000000000004 4.8434295871559065 12 7.643560000000001 12.000000000000002 12.000000000000002
          7.589016130806815 7.643560000000002 8.129456000000001 8.136573000000004 12.000000000000002 12
          7.64356 11.999999999999998 8.129455999999998 12
        </DataArray>
        <DataArray type="Float64" Name="DISSI_TEMPE" format="ascii" RangeMin="-0.02113588328463867" RangeMax="1.3768011286859934">
          -0.02113588328463867 0.684332502244274 0.3594021115711099 0.9046037934367608 0.5630633458487984 0.4318874560234461
          0.12877748733557987 0.44639438690756045 0.6196917027508327 0.6615938644417717 0.690786362497428 0.2374829803934532
          0.38207977478142685 0.40081127196783645 -0.013257380830045563 0.1981617992350033 0.6052759530278495 0.2773159740223309
          0.9907878999104168 0.8228798393772007 0.3482548855188388 0.44169610098017104 0.5899418635620575 0.24054117984640816
          0.2702059718141876 0.5743636069865228 0.8636255347512386 0.11412244545634811 0.4012591966449536 0.4754885189580068
          0.3032281073142872 0.44078784452228875 0.2864701185003417 0.0887226670456236 0.5208496586450618 0.19269071256454534
          0.6724743534758355 0.48665029308620766 0.43328445517227376 0.10857873695028485 0.3240228260642696 0.12311006066216719
          0.10682260647273427 0.16891569927178765 0.1558479647256691 0.37856513401436487 2.2554086165638656e-31 0.30179328881212963
          0.27872854989816315 5.0618898176818685e-31 0.20898195808606865 0.182628673294523 1.1890140064213905 0.45355283432240545
          0.11851754940028622 0.14173972653935776 0.3637797485875086 8.411957049102e-32 0.19949932041677942 0.42657628003367287
          0.24646981300847445 0.14115126842739545 0.7533571018262943 0.031078143907943553 0.18857482280880108 0.7287399134879576
          0.17060017974671568 0.2092840247659579 9.689193878941888e-32 1.3768011286859934 0.6997424647606824 0.39855583617495566
          0.041932924298404665 0.3913531084410996 0.08497047886928641 0.4723299031140769 0.1766950871896289 0.04430726801366623
          0.6586979756354574 0.7231669810891156 0.7202078369951104 0.47511270451678206 0.046527583030683814 0.04393538925783185
          0.5384610809990953 0.031808686791431326 0.3308702999677434 0.015668751205261636
        </DataArray>
        <DataArray type="Float64" Name="CN2" format="ascii" RangeMin="-4.088441473216569e-13" RangeMax="3.573459152564525e-11">
          -5.090700579086303e-14 3.3789091063080887e-12 1.7459166116427749e-12 6.0044728125056305e-12 8.098259512585774e-12 1.3901978559733e-13
          2.2406905190742773e-12 1.6911843946858615e-13 9.568561728475579e-12 9.31847493734204e-12 9.734756745734226e-12 7.34696736701388e-14
          1.4522732730508597e-13 1.5222469003095822e-13 -4.088441473216569e-13 4.14783511279879e-12 1.1897762763653345e-11 7.153381658874821e-12
          1.6774482599279726e-11 1.586111606108798e-11 2.588224312711371e-13 1.2300947445404614e-11 9.093307394934715e-12 1.0724537838139925e-13
          1.1463670775714127e-13 8.573496917237284e-12 1.6753954916741185e-11 2.931963835486203e-12 4.2552180064223e-13 9.372288280478205e-12
          1.6394805874053153e-13 4.563991885314513e-13 6.965629020887501e-12 4.7037805068313725e-14 9.2826816316313e-12 1.1796031970535225e-13
          9.86643979029214e-12 1.0160649909357068e-11 3.1379083045229143e-13 2.3678946460424943e-12 5.0217072315094995e-12 6.566079084750131e-14
          7.664010336226966e-14 9.000298127714344e-14 1.21811899636515e-13 7.674853412869596e-12 2.665053747716172e-41 1.7223953878850076e-13
          4.0936446335056964e-12 5.161717445028149e-41 3.4182482733220566e-13 1.530304572891357e-13 1.0896719499555002e-11 1.1946173791940517e-11
          8.024713369434664e-14 1.396547351001525e-13 1.757534208151102e-11 8.708664602835603e-42 1.4169788207265246e-13 7.858053905365496e-12
          6.694861970935406e-13 1.3326728575202893e-13 9.431115351360285e-12 2.932830799217933e-14 4.72980213972793e-13 7.479943625130055e-12
          5.844062417081102e-13 3.5043641301327493e-13 1.2231750988464655e-41 1.4535532710481358e-11 1.8306259611268018e-11 5.198332585193945e-12
          1.5805130303202555e-13 5.601921072767957e-12 2.898400380620171e-13 3.573459152564525e-11 4.3724800015043695e-13 5.065080778879416e-14
          8.949103076222434e-12 1.679429493620187e-11 1.0255085802199647e-11 5.7471996293825985e-12 5.972548889456455e-14 6.319723459953154e-14
          1.0459511456885906e-11 4.786944551186735e-14 4.999134048815129e-12 2.1077922804728983e-14
        </DataArray>
        <DataArray type="Float64" Name="CT2" format="ascii" RangeMin="-0.36479889276400196" RangeMax="35.58783960524429">
          -0.04559236660282679 2.9164439525346864 1.5452363678042886 5.228088948638658 7.275170801465007 0.14724633640777635
          1.981225113189165 0.17912513084045872 8.44549762748297 8.599687011748719 8.819874657160714 0.07781646153312456
          0.1538196964958563 0.16123099580236333 -0.36479889276400196 3.8741166544277177 10.928101779327958 6.345030296320925
          15.152184401448276 13.794084917016406 0.2741351279015401 10.837563417241853 8.214709288016667 0.11359001201229173
          0.12141838582457574 8.34719385110218 14.889542476571302 2.7035020142688038 0.4506966117480846 8.992652481150763
          0.17364711913786807 0.48340059233579946 6.118776574163435 0.04982023866103409 8.686840666461414 0.12493804221745342
          9.27884189556313 9.17199318642249 0.33235462142698236 2.1885502291327836 4.477756773216708 0.06954483242095344
          0.08117360559976193 0.09532693269012164 0.12901745501318537 6.872304994774628 2.8227000272547674e-29 0.18242874653936117
          3.8482829837658583 5.467049198213661e-29 0.36204483650132774 0.1620826880933159 10.507839011613935 10.703391320933312
          0.08499382905117145 0.14791574979867536 17.272523048007272 9.223809387284441e-30 0.1500797557088968 7.248131042216746
          0.7090884012210606 0.14115046274225035 9.124275216239397 0.031063169150537615 0.5009584733639039 7.403797455261835
          0.6189757000358684 0.37116582431471684 1.295529732714294e-29 13.934641623654764 17.778973734334013 5.203755057319435
          0.16740053212143946 5.35968176704651 0.30698495387969527 35.58783960524429 0.46311241266271297 0.0536469615311041
          8.905449565086638 16.725317048872746 10.28385928032806 5.763912214786201 0.06325841007668814 0.06693556555117514
          10.416531962665491 0.05070107300659519 5.013156056734996 0.022324728116177573
        </DataArray>
        <DataArray type="Float64" Name="CN2_MEAN" format="ascii" RangeMin="-1.8915331923977563e-11" RangeMax="9.006677594035573e-11">
          2.2295216649203342e-13 3.048818036740319e-12 8.918336513190374e-13 7.00814975210589e-12 9.057211644520208e-12 1.200673640947453e-13
          1.4146562742055779e-12 1.5688094906223505e-13 7.165207024454874e-12 1.098903330589181e-11 8.898159333140852e-12 6.945398590673579e-14
          1.4432679632900392e-13 1.4911788631922418e-13 1.2478027502934253e-12 1.0350296124583048e-11 1.3200929305575354e-11 5.195956223195777e-12
          2.579845599791742e-11 1.502252840523446e-11 2.1993408340364246e-13 5.8114111807943485e-12 1.0000017229717263e-11 1.1068415697208272e-13
          1.1603944364165924e-13 2.955449566744279e-12 1.6816166008253434e-11 3.379214835882547e-12 3.0267198240043344e-13 1.6755637388574358e-12
          1.604041930116398e-13 3.324792000684105e-13 3.613559262092542e-12 7.003428677410498e-14 1.2706306266829231e-11 1.4511868475552317e-13
          2.036434555611666e-11 8.584539393854351e-12 2.569652983459477e-13 1.8830458878476978e-11 1.5028714756793636e-11 8.770407220731761e-14
          9.996856288957901e-14 1.0360136108363585e-13 1.487633663824682e-13 1.5449305812936952e-11 1.152365993981541e-41 1.7007320303184614e-13
          1.7964657829694578e-11 2.1122378642773395e-41 4.695075992918426e-13 1.6879209285600817e-13 2.4642787844852006e-11 1.194089437115688e-11
          1.0711828595810859e-13 2.1492020485414688e-13 -1.8915331923977563e-11 5.818454397578246e-42 1.51858634195732e-13 1.5102315693055932e-11
          1.0185308677971507e-12 1.9012714650249863e-13 1.2925874328287687e-11 4.4802348470269005e-14 7.279550525280845e-13 1.570790414786693e-11
          8.636438910716742e-13 5.468523945858073e-13 1.1139526033305723e-41 3.285808750380703e-11 3.969779865160866e-12 -1.0306653411270059e-12
          2.897600237602666e-13 1.6437473654819876e-11 4.646955834803949e-13 9.006677594035573e-11 6.647486543380283e-13 8.419508094307352e-14
          1.7110692104273142e-11 4.4522876238314545e-11 3.595484956345388e-11 1.3877355469813441e-11 1.1939818941421972e-13 1.1575662927411364e-13
          3.995391136351931e-11 7.12404048702365e-14 2.4365004690781406e-11 2.135533269999644e-14
        </DataArray>
        <DataArray type="Float64" Name="CN2_FROM_MEAN" format="ascii" RangeMin="-2.0072554796198497e-11" RangeMax="6.659018852079864e-11">
          2.2322553139382612e-13 3.0450363389147176e-12 8.872433922368028e-13 7.017013882458475e-12 8.985488107859527e-12 1.141502613231404e-13
          1.2407325379315786e-12 1.5046500985007648e-13 6.617538705779276e-12 1.8921561713733797e-11 8.573537239574423e-12 6.368711040568714e-14
          1.3705836149087506e-13 1.4162407954519344e-13 1.2623527467173296e-12 1.2548602382022997e-11 1.4902742267599705e-11 4.188894312258736e-12
          2.5955045238597206e-11 1.4360589704091803e-11 1.6487881869667507e-13 4.242839025570732e-12 9.805835565742883e-12 1.0290746669327519e-13
          1.0938604172338875e-13 3.910443748213467e-12 1.612496358946587e-11 3.2658737288172958e-12 1.743204177691173e-13 4.914026135359747e-12
          1.4609626163896664e-13 1.9511701198733676e-13 2.709958094924714e-12 7.098376462086302e-14 1.9277589705054124e-11 1.4520754714523582e-13
          2.0269635950845126e-11 7.72707334838159e-12 2.017724882710308e-13 1.8256789006870273e-11 1.50166021593821e-11 8.720707450407629e-14
          9.683799447992786e-14 1.0047155641286156e-13 1.4398377485721642e-13 1.564765270218632e-11 1.1847516628513447e-43 1.6002273557071964e-13
          1.81405251344184e-11 2.8094214501204824e-43 4.365025419233708e-13 1.5010488238884383e-13 2.438947960999099e-11 1.0468201596347645e-11
          9.968262476116046e-14 2.1084117003237843e-13 -2.0072554796198497e-11 7.73058268335566e-44 1.4349922597608173e-13 1.5093034343566146e-11
          8.115572864908361e-13 1.676140223722222e-13 1.2943694009368162e-11 4.0044942325372394e-14 5.699470360697368e-13 1.5608278703429206e-11
          4.1161281878829326e-13 3.7841686866183885e-13 1.6970061682373446e-43 3.240581183399652e-11 1.6183291651186579e-12 -1.7382541061116711e-12
          7.621227416661802e-14 1.631604471080026e-11 3.7702066758326677e-13 6.659018852079864e-11 3.4413512833599967e-13 6.12529349817917e-14
          1.698388763312365e-11 4.2837021816720245e-11 3.6352076308018814e-11 1.4337480624807121e-11 7.206784961324608e-14 1.0115583466669553e-13
          4.0386109739001646e-11 4.26808470896963e-14 2.5637325956992456e-11 1.0291653601114818e-14
        </DataArray>
      </PointData>
      <CellData>
        <DataArray type="UInt8" Name="vtkGhostType" format="ascii" RangeMin="0" RangeMax="0">
          0 0 0 0 0 0
          0 0 0 0 0 0
          0 0 0 0 0 0
          0 0 0 0 0 0
          0 0 0 0 0 0
          0 0 0 0 0 0
          0 0 0 0 0 0
          0 0 0 0 0 0
          0 0 0 0 0 0
          0 0 0 0 0 0
          0 0 0 0 0 0
          0 0 0 0 0 0
          0 0 0 0 0 0
          0 0 0 0 0 0
          0 0 0 0 0 0
          0 0 0 0 0 0
          0 0 0 0 0 0
          0 0 0 0 0 0
          0 0 0 0 0 0
          0 0 0 0 0 0
          0 0 0 0 0 0
          0 0 0 0 0 0
          0 0 0 0 0 0
          0 0 0 0 0 0
          0 0 0 0 0 0
          0 0 0 0 0 0
          0 0 0 0 0 0
          0 0 0 0 0 0
          0 0 0 0 0 0
          0 0 0 0 0 0
          0 0 0 0 0 0
          0 0 0 0 0 0
          0 0 0 0 0 0
          0 0 0 0 0 0
          0 0 0 0 0 0
          0 0 0 0 0 0
          0 0 0 0 0 0
          0 0 0 0 0 0
          0 0 0 0 0 0
          0 0 0 0 0
        </DataArray>
      </CellData>
      <Points>
        <DataArray type="Float32" Name="Points" NumberOfComponents="3" format="ascii" RangeMin="0" RangeMax="24.49489742783178">
          20 10 10 20 6.5 10
          16 10 10 20 10 5
          16.37211036682129 5.206768989562988 10 20 3 10
          14.333330154418945 10 5.767949104309082 17.5 2.625 10
          12 10 10 14.425399780273438 5.033590793609619 7.012404918670654
          13.360549926757812 4.658843994140625 10 20 3 5
          16.25 2.4375 7.37460994720459 15 2.25 10
          20 10 0 12.214110374450684 6.010365009307861 4.925261974334717
          14.570380210876465 5.105739116668701 2.9404709339141846 12 10 3.0717968940734863
          10 10 6.535898208618164 20 6.5 0
          16.344310760498047 2.451646089553833 3.285098075866699 16 10 0
          10.119270324707031 5.519060134887695 10 13.631239891052246 2.0446860790252686 6.215021133422852
          12.5 1.875 10 10.550640106201172 4.647356033325195 7.100153923034668
          16.37211036682129 5.206768989562988 0 8 10 10
          20 3 0 11.739009857177734 4.367464065551758 2.512845993041992
          13.663330078125 2.049499034881592 2.55780291557312 17.5 2.625 0
          12 10 0 10.661359786987305 1.5992039442062378 6.873061180114746
          9.59029769897461 6.954894065856934 2.912667989730835 10 1.5 10
          8.36054801940918 3.908843994140625 10 13.360549926757812 4.658843994140625 0
          15 2.25 0 6.61377477645874 6.690732002258301 10
          8 10 3.0717968940734863 10.999679565429688 1.6499520540237427 3.4145760536193848
          9 3 5 8 4.732050895690918 5
          8 3 6.732050895690918 10.596699714660645 5.428274154663086 0
          9 1.350000023841858 5 12.5 1.875 0
          5.6666669845581055 10 5.767949104309082 7.9958391189575195 1.1993759870529175 6.734446048736572
          7.5 1.125 10 8 3 3.267949104309082
          5.86054801940918 3.533843994140625 10 8 10 0
          6 4.732050895690918 5 6 3 6.732050895690918
          4 10 10 7.995840072631836 1.1993759870529175 3.2655539512634277
          10 1.5 0 7.719629764556885 4.535800933837891 0
          6.004158973693848 0.9006239175796509 6.734445095062256 6 3 3.267949104309082
          3.305811882019043 6.3972368240356445 10 5 3 5
          5 0.75 10 3.3605480194091797 3.158843994140625 10
          6.004159927368164 0.9006239771842957 3.2655539512634277 7.5 1.125 0
          5 0.75 5 5.535371780395508 3.26835298538208 0
          4 10 0 3.0012240409851074 5.308693885803223 3.156306028366089
          3.720721960067749 0.5581083297729492 6.921747207641602 4.087935924530029 6.566143035888672 0
          2.5 0.375 10 0 10 10
          5 0.75 0 3.3971519470214844 0.5095726847648621 3.1724090576171875
          3.3605480194091797 3.158843994140625 0 0 10 5
          0 5 10 0 4.949490070343018 5.050509929656982
          2.5 0.375 0 0 0 10
          0 10 0 0 0 5
          0 5 0 0 0 0
          <InformationKey name="L2_NORM_RANGE" location="vtkDataArray" length="2">
            <Value index="0">
              0
            </Value>
            <Value index="1">
              24.494897428
            </Value>
          </InformationKey>
        </DataArray>
      </Points>
      <Cells>
        <DataArray type="Int64" Name="connectivity" format="ascii" RangeMin="0" RangeMax="87">
          16 20 19 11 53 40
          70 73 81 63 77 71
          69 59 61 51 62 55
          52 65 66 77 69 76
          55 68 72 63 79 62
          75 80 52 55 64 65
          10 8 2 9 32 37
          21 16 47 41 30 29
          15 9 23 16 54 48
          34 40 44 42 43 25
          43 39 44 25 41 15
          23 29 62 54 81 71
          77 69 78 61 32 17
          53 34 39 54 62 48
          59 73 54 34 19 3
          21 16 11 1 4 12
          79 56 75 62 45 17
          32 34 54 59 61 73
          23 33 24 25 18 22
          39 25 23 10 24 13
          24 10 23 25 39 48
          56 27 46 42 44 33
          4 11 12 9 64 60
          52 50 40 73 54 71
          23 15 41 25 44 35
          36 50 39 18 43 48
          10 9 23 25 43 54
          39 48 23 16 30 29
          85 81 65 72 60 50
          49 55 21 17 32 16
          49 35 44 50 81 62
          79 80 39 22 36 25
          26 38 20 16 81 85
          65 80 81 63 65 72
          8 9 22 25 20 38
          30 16 46 44 49 33
          20 16 19 26 70 40
          48 73 7 4 12 13
          61 59 69 73 45 51
          58 29 52 39 36 55
          69 73 78 71 36 35
          44 25 42 15 41 29
          19 21 3 14 77 63
          61 71 78 82 77 86
          40 73 53 34 18 48
          39 27 68 61 77 63
          17 40 53 34 23 13
          12 9 49 50 44 55
          17 37 32 16 48 54
          34 43 81 77 63 85
          18 8 22 25 44 35
          49 33 36 39 44 55
          61 54 43 59 86 73
          84 71 59 45 53 34
          11 9 3 16 10 13
          23 9 52 50 60 55
          11 1 3 9 77 72
          63 85 86 81 77 71
          6 17 21 16 4 1
          11 9 54 73 61 71
          39 62 56 48 43 15
          42 29 70 48 79 71
          67 59 69 51 4 2
          3 9 37 16 17 29
          43 34 18 25 43 18
          39 25 52 62 39 55
          86 84 79 71 15 34
          17 29 12 13 4 9
          32 17 45 37 3 1
          4 9 45 34 51 29
          79 62 81 71 69 78
          61 71 45 37 17 29
          48 73 40 71 57 58
          67 51 10 2 4 9
          6 8 18 15 31 26
          20 19 67 61 57 51
          54 73 40 34 62 48
          54 71 18 27 39 22
          11 20 12 9 41 58
          57 51 56 62 79 48
          46 41 57 51 41 42
          46 33 47 37 30 38
          46 42 41 51 3 2
          4 1 43 51 59 34
          23 20 30 16 77 86
          85 81 8 15 6 9
          0 2 3 1 24 22
          10 25 41 33 23 25
          87 85 77 86 69 61
          67 51 52 60 64 55
          59 51 45 34 41 51
          42 29 39 55 62 54
          12 20 23 9 15 34
          43 25 15 16 23 29
          22 9 10 25 44 39
          43 54 44 55 39 54
          23 9 15 25 84 70
          79 71 35 33 44 25
          44 33 42 25 61 73
          69 71 84 73 70 71
          17 15 18 34 36 22
          35 25 36 50 55 44
          79 81 86 71 2 8
          6 9 18 17 6 15
          27 22 18 8 4 13
          10 9 42 51 43 29
          22 8 10 9 31 11
          28 19 15 9 8 25
          43 59 54 34 78 73
          86 71 86 77 78 71
          41 15 42 25 18 40
          17 34 54 63 81 71
          70 73 48 71 3 2
          6 9 17 34 45 29
          74 65 64 72 64 55
          60 72 64 65 55 72
          57 61 67 66 69 76
          67 66 67 61 69 66
          21 26 19 16 77 86
          82 87 24 33 35 25
          20 26 31 38 35 22
          24 25 55 68 60 72
          17 16 15 29 76 82
          77 78 77 66 69 61