<?xml version="1.0"?>
<VTKFile type="UnstructuredGrid" version="0.1" byte_order="LittleEndian" header_type="UInt32" compressor="vtkZLibDataCompressor">
  <UnstructuredGrid>
    <Piece NumberOfPoints="88" NumberOfCells="239">
      <PointData>
        <DataArray type="Float64" Name="nsi_BC" NumberOfComponents="3" format="ascii" RangeMin="0" RangeMax="1">
          1 0 0 1 0 0
          1 0 0 1 0 0
          1 0 0 0 0 0
          1 0 0 0 0 0
          1 0 0 0 0 0
          1 0 0 0 0 0
          0 0 0 0 0 0
          1 0 0 0 0 0
          0 0 0 1 0 0
          1 0 0 1 0 0
          0 0 0 1 0 0
          1 0 0 0 0 0
          0 0 0 0 0 0
          1 0 0 1 0 0
          0 0 0 0 0 0
          0 0 0 0 0 0
          1 0 0 0 0 0
          0 0 0 0 0 0
          1 0 0 1 0 0
          0 0 0 1 0 0
          1 0 0 0 0 0
          0 0 0 0 0 0
          0 0 0 1 0 0
          0 0 0 0 0 0
          1 0 0 0 0 0
          0 0 0 0 0 0
          1 0 0 1 0 0
          0 0 0 0 0 0
          1 0 0 0 0 0
          0 0 0 1 0 0
          0 0 0 0 0 0
          1 0 0 0 0 0
          0 0 0 1 0 0
          0 0 0 0 0 0
          0 0 0 1 0 0
          1 0 0 0 0 0
          0 0 0 1 0 0
          0 0 0 1 0 0
          0 0 0 0 0 0
          1 0 0 1 0 0
          1 0 0 1 0 0
          0 0 0 0 0 0
          1 0 0 0 0 0
          1 0 0 0 0 0
          <InformationKey name="L2_NORM_RANGE" location="vtkDataArray" length="2">
            <Value index="0">
              0
            </Value>
            <Value index="1">
              1
            </Value>
          </InformationKey>
        </DataArray>
        <DataArray type="Float64" Name="nsi_FIXNO" NumberOfComponents="3" format="ascii" RangeMin="1.7320508075688772" RangeMax="1.7320508075688772">
          1 1 1 1 1 1
          1 1 1 1 1 1
          1 1 1 1 1 1
          1 1 1 1 1 1
          1 1 1 -1 -1 -1
          1 1 1 1 1 1
          1 1 1 1 1 1
          1 1 1 -1 -1 -1
          -1 -1 -1 1 1 1
          1 1 1 1 1 1
          1 1 1 1 1 1
          1 1 1 1 1 1
          1 1 1 -1 -1 -1
          1 1 1 1 1 1
          1 1 1 -1 -1 -1
          1 1 1 1 1 1
          1 1 1 1 1 1
          -1 -1 -1 1 1 1
          1 1 1 1 1 1
          1 1 1 1 1 1
          1 1 1 1 1 1
          1 1 1 1 1 1
          1 1 1 1 1 1
          1 1 1 1 1 1
          1 1 1 1 1 1
          1 1 1 1 1 1
          1 1 1 1 1 1
          1 1 1 1 1 1
          1 1 1 1 1 1
          1 1 1 1 1 1
          1 1 1 1 1 1
          1 1 1 1 1 1
          1 1 1 1 1 1
          1 1 1 1 1 1
          1 1 1 1 1 1
          1 1 1 -1 -1 -1
          1 1 1 1 1 1
          1 1 1 1 1 1
          1 1 1 1 1 1
          1 1 1 1 1 1
          1 1 1 1 1 1
          1 1 1 1 1 1
          1 1 1 1 1 1
          1 1 1 1 1 1
          <InformationKey name="L2_NORM_RANGE" location="vtkDataArray" length="2">
            <Value index="0">
              1.7320508076
            </Value>
            <Value index="1">
              1.7320508076
            </Value>
          </InformationKey>
        </DataArray>
        <DataArray type="Float64" Name="tem_BC" format="ascii" RangeMin="0" RangeMax="12">
          0 0 0 0 0 12
          0 12 0 0 0 12
          12 12 0 0 0 0
          0 0 12 0 0 12
          12 0 0 0 12 0
          12 12 0 12 0 12
          0 0 12 0 0 12
          12 12 12 0 12 12
          0 12 12 12 0 0
          12 12 0 12 12 0
          12 12 0 12 12 0
          12 12 12 0 0 0
          12 0 12 7.64356 12 12
          0 7.64356 8.129456 8.136573 12 12
          7.64356 12 8.129456 12
        </DataArray>
        <DataArray type="Float64" Name="tem_FIXNO" format="ascii" RangeMin="-1" RangeMax="1">
          -1 -1 -1 -1 -1 1
          -1 1 -1 -1 -1 1
          1 1 -1 -1 -1 -1
          -1 -1 1 -1 -1 1
          1 -1 -1 -1 1 -1
          1 1 -1 1 -1 1
          -1 -1 1 -1 -1 1
          1 1 1 -1 1 1
          -1 1 1 1 -1 -1
          1 1 -1 1 1 -1
          1 1 -1 1 1 -1
          1 1 1 -1 -1 -1
          1 -1 1 1 1 1
          -1 1 1 1 1 1
          1 1 1 1
        </DataArray>
        <DataArray type="Float64" Name="Velocity" NumberOfComponents="3" format="ascii" RangeMin="0" RangeMax="1.0000000000000002">
          1 0 0 1 0 0
          1 0 0 1 0 0
          1 0 0 0 0 0
          1 0 0 0 0 0
          1 0 0 0.8577422780404959 0.10015560033470305 0.06715787661337982
          1 0 0 0 0 0
          0 0 0 0 0 0
          1 0 0 0.8939423357491989 0.03384170160341903 0.013773365222205763
          0.8215460176051279 0.09133610083659177 -0.01924897692404573 1 0 0
          1 0 0 1 0 0
          0 0 0 1 0 0
          1 0 0 0 0 0
          0 0 0 0.6099742606175267 0.1478018193208664 -0.10852257991304304
          1 0 0 1.0000000000000002 0 0
          0 0 0 0.6582606096318853 0.16215447763303442 0.010091600131231601
          0 0 0 0 0 0
          1 0 0 0 0 0
          0.7892302867867449 -0.05296302824298035 0.09462895991184234 0 0 0
          1 0 0 1 0 0
          0 0 0 1 0 0
          1 0 0 0 0 0
          0 0 0 0 0 0
          0 0 0 1 0 0
          0 0 0 0 0 0
          1 0 0 0 0 0
          0 0 0 0 0 0
          1 0 0 1 0 0
          0 0 0 0 0 0
          1 0 0 0 0 0
          0 0 0 1 0 0
          0 0 0 0 0 0
          1 0 0 0 0 0
          0 0 0 1 0 0
          0 0 0 0 0 0
          0 0 0 1 0 0
          1 0 0 0.7631388486529941 0.03732437636696177 -0.13746467175286473
          0 0 0 1 0 0
          0 0 0 1 0 0
          0 0 0 0 0 0
          1 0 0 1 0 0
          1 0 0 1 0 0
          0 0 0 0 0 0
          1 0 0 0 0 0
          1 0 0 0 0 0
          <InformationKey name="L2_NORM_RANGE" location="vtkDataArray" length="2">
            <Value index="0">
              0
            </Value>
            <Value index="1">
              1
            </Value>
          </InformationKey>
        </DataArray>
        <DataArray type="Float64" Name="Pressure" format="ascii" RangeMin="0" RangeMax="9.5217656423703">
          0 7.821567071555074 7.464710613775832 8.30203746471928 8.23631718796289 8.219525255799363
          8.574909121927163 8.488064106449587 8.620829841535553 8.699668208214778 8.781081111182594 8.737880307963213
          8.71262111005066 8.7361519708911 8.686877881610101 8.941213599076589 8.80895105135596 8.884826359977517
          9.014004463244548 8.797191684725945 8.80901604797548 8.789092413738302 9.049210409848786 8.961371529985415
          9.056882240754 9.110001137853903 8.842709033731214 9.135481698522783 8.845656164073617 9.09583442825541
          8.98869150105329 8.86507338129365 8.959357690286167 9.293174290317594 9.116421134043218 9.29321376832303
          9.225661624074453 8.938862285948145 8.96542358133896 9.287134311961534 9.277772934969144 9.293172157747795
          9.293220035030968 9.294284195978337 9.293272692256345 9.136079740806089 9.293213872839914 9.094580487058272
          9.338431033616732 9.293274020079412 9.29326745734699 9.293285187666232 9.263135122572416 9.232293227705652
          9.395497948326886 9.293366128691204 9.378214980302197 9.293286846434588 9.293238043566838 9.230896635333432
          9.293359900250842 9.29339840076574 9.424578515715002 9.293455985460923 9.293433123454296 9.287926616265242
          9.293371712189447 9.293287495459793 9.293432269332044 9.296129436383167 9.46600148343615 9.394509802448335
          9.293419554721952 9.451316145797524 9.297168691636887 9.402630493635607 9.311831182600315 9.29343347445947
          9.292167175622934 9.42313079051083 9.344845959573139 9.309555630967733 9.314327058014669 9.279945639243751
          9.5217656423703 9.29339985518411 9.384786182829354 9.334555368357139
        </DataArray>
        <DataArray type="Float64" Name="DISSI_NS" format="ascii" RangeMin="0.00007583001886405969" RangeMax="5417.346740369113">
          19.03991992288271 2.469775237556485 2.4056605192598233 0.9902946257180392 0.08919743860605396 4822.155236143776
          0.05294428074189993 2973.561223883612 0.07523574555625577 0.08969325784633289 0.09177807826042705 5417.346740369113
          2968.1776410290995 3040.60318613368 0.00907306657320725 0.02566264108431995 0.033136082017541084 0.016004710277306475
          0.054094865556701004 0.04017512652954031 421.5065275634058 0.012932370971826514 0.07037743339688823 1924.3573076706086
          2226.905886251957 0.0623355351799749 0.03749730099754141 0.014834489543120959 143.07135941641963 0.027578545187924585
          1088.1797395158565 153.9322744591974 0.019610914141600193 1164.1901957191296 0.04290354041059703 762.5996509881243
          0.07273827557365853 0.028622432077039718 453.513537871891 0.023785856512866334 0.07357689856959408 1129.4385185831993
          473.83554929595704 1138.690801299359 370.3747833504291 0.03174374867282397 0.00009346627491996439 926.7463824697813
          0.0732322032737062 0.0001457958771687635 40.97578849742128 290.1472142161153 0.27682154318555197 0.014910185281157244
          539.5315870034887 167.38338677547804 0.0018152578049036023 0.00013993864517883317 475.78811760600706 0.039206890823041685
          8.7504341638733 194.10538253073884 0.10762755369347728 186.04338154212002 10.932739940140774 0.18210340687847337
          3.82613350139187 35.76182385020436 0.00007583001886405969 0.1851437176510584 0.011436709344372678 0.08753220883966495
          2.279391712249116 0.07509893967496158 4.241788201737248 0.0004145914346654007 10.336924321067292 103.10397002930823
          0.07782424809911756 0.014958320154536353 0.06561296649509292 0.10621072789157043 68.00167283571498 51.02064560725342
          0.025829853234382086 43.01058400213157 0.054124651139456574 56.08850530153715
        </DataArray>
        <DataArray type="Float64" Name="Temperature" format="ascii" RangeMin="-2.113749825558391" RangeMax="12.000000000000005">
          0.5606002672729427 -2.113749825558391 -0.3093291349508463 -1.4219065315364352 0.19312063706028945 12
          -0.6643103967163342 12 -0.7736852961470587 1.7064542932162539 0.6060584773383466 12
          12 12.000000000000002 0.3168811871457159 2.3212459951659117 1.4226960129126924 -0.43814220998352366
          0.4646534810327509 -1.5929697554817535 12 -0.5581964005097785 0.19250292549191406 12
          12 5.3473641552713245 -0.38729015153845436 1.5500692581982842 12 4.3111681018425925
          12 11.999999999999998 -0.9069135776798152 11.999999999999998 2.8645227118088483 12
          2.9014377642367655 0.4606831724645913 12 1.587705510762396 -1.0271787493184612 12.000000000000004
          12.000000000000002 12.000000000000005 12 -0.103303988156371 12.000000000000002 11.999999999999996
          2.664749587205365 11.999999999999998 11.999999999999998 12 4.281297569109954 -0.2004872767783869
          12.000000000000004 12.000000000000002 6.068727145337619 12.000000000000002 11.999999999999998 1.4192498289697237
          12 12.000000000000004 5.086869746062759 12.000000000000002 12 6.519508604141165
          11.999999999999998 12 12.000000000000002 3.740702253035477 5.1943786626884085 7.445711216204694
          12.000000000000004 3.7501020156453584 12 7.643560000000001 12.000000000000002 11.999999999999998
          6.928393020021113 7.643560000000001 8.129456000000001 8.136572999999999 12.000000000000002 12
          7.643559999999999 11.999999999999998 8.129456 12
        </DataArray>
        <DataArray type="Float64" Name="DISSI_TEMPE" format="ascii" RangeMin="9.484662841128404e-32" RangeMax="1.9716694645664876">
          0.04913459118328193 0.696660377970927 0.27768399636643243 0.9773354510301875 0.6277582900167096 0.4251861600384779
          0.12415828979210887 0.45810523627670646 0.6494747925205054 0.8367280530721227 0.7368202772057006 0.24676446026327278
          0.4090659458730557 0.435101876296912 0.028665598878205006 0.1962667558303351 0.7541569860652962 0.27908057331128877
          1.2903501718722663 0.8620094760040804 0.37520895870444887 0.32535049269784516 0.7037197334260876 0.2729663605527554
          0.2990940048684928 0.43693301472239227 0.9207174611799375 0.12899250157544517 0.39438736295333077 0.31823404573330044
          0.3388778341916129 0.4408207903653608 0.21052807725909023 0.11123932063849272 0.7083227602603115 0.22734243499855777
          0.9008998765011911 0.49658587033400875 0.4584246526395584 0.28986309729108095 0.6994968391357157 0.15068052914715727
          0.13145756934065017 0.19458324256508064 0.1879932445932612 0.5255623066360787 1.0200012894347518e-31 0.33032270164679817
          0.4070080621192545 9.484662841128404e-32 0.2636492494695021 0.21303167680766902 1.6497374910052183 0.6516629038621833
          0.1436961553612949 0.182946074766466 0.10101973223635231 1.0082224907993957e-31 0.22627265560880044 0.6709726902079586
          0.33611543487353024 0.1850307719013685 0.8726173532199559 0.03757708306836888 0.255263989619455 0.949915880314315
          0.23624119211206057 0.2716025885626147 1.4606541838581292e-31 1.9716694645664876 0.5858786821538405 0.33305908212799806
          0.053415228589242386 0.36934270939609026 0.1114341382962046 0.7641353781644726 0.24413428997267328 0.05890512871299173
          0.8883352657244163 1.1602696611532668 1.152110596395543 0.6000494972319672 0.061402876559731076 0.05749122190744755
          1.019272098848074 0.038733233871632126 0.6169895369297062 0.015668751205261622
        </DataArray>
        <DataArray type="Float64" Name="CN2" format="ascii" RangeMin="9.800254932478253e-42" RangeMax="5.92706883250147e-11">
          1.1785350908519369e-13 3.4337636079648056e-12 1.344552661446851e-12 6.46645309371726e-12 9.048792264187163e-12 1.3686317848730367e-13
          2.1564814743713473e-12 1.7324599001582652e-13 1.0049900318380368e-11 1.177586661647522e-11 1.0457147621676892e-11 7.640928458570349e-14
          1.5479450652256085e-13 1.6332904605841095e-13 8.835738045312526e-13 4.154596693521019e-12 1.485314781175266e-11 7.198656123205579e-12
          2.1887011316073368e-11 1.6640581831981753e-11 2.721435937030727e-13 9.02597088181473e-12 1.0977797022101995e-11 1.1934610021406122e-13
          1.2455722498141357e-13 6.586293454223586e-12 1.7867887379651345e-11 3.314829629285496e-12 4.10077012942353e-13 6.390031926314722e-12
          1.791722974202247e-13 4.473138493250296e-13 5.1098066594078245e-12 5.750614273849166e-14 1.2534151661359773e-11 1.3532525772308407e-13
          1.3362435274327086e-11 1.0414720735107392e-11 3.2448821028008295e-13 6.3606906056646015e-12 1.0945509913919803e-11 7.868648781973989e-14
          9.170090198031251e-14 1.0133684939574887e-13 1.4236142618527108e-13 1.0736922045736881e-11 1.222305123858775e-41 1.842525978665168e-13
          6.0439864838259985e-12 9.800254932478253e-42 4.1589272446837936e-13 1.7499888207114654e-13 1.5363265513750634e-11 1.7151004405663795e-11
          9.5992573436408e-14 1.8053006415016794e-13 4.898616066726845e-12 1.0561065021746974e-41 1.5762487911591696e-13 1.2494915049374581e-11
          8.870385207413204e-13 1.737915509639112e-13 1.100565367803327e-11 3.579718545504087e-14 6.254756950651851e-13 9.849692263768617e-12
          8.214216464465655e-13 4.4832322924509474e-13 1.876711767788825e-41 2.1160294735214904e-11 1.557649512052857e-11 4.350770183991895e-12
          2.2072727129370228e-13 5.3540764348648305e-12 3.7436840558501135e-13 5.92706883250147e-11 6.094841113252253e-13 6.831643650804402e-14
          1.2157498369173525e-11 2.7235871623704042e-11 1.6407285488338606e-11 7.27711339709003e-12 8.18112304739336e-14 8.42978821153899e-14
          1.9943144229981084e-11 6.012049341373112e-14 9.368834440787011e-12 2.22607953897567e-14
        </DataArray>
        <DataArray type="Float64" Name="CT2" format="ascii" RangeMin="1.0379966845316399e-29" RangeMax="59.027267897584316">
          0.10598753487425912 2.9686417014389055 1.1937000740463815 5.64778291093975 8.092775239569297 0.1449621229849906
          1.9045477006452882 0.18349691946562138 8.86155710089884 10.766805814231644 9.40887573139516 0.08093000185559508
          0.16395292923083032 0.1729923337081453 0.7916480330070503 3.8326760307529892 13.524374546929655 6.378758366377464
          19.652209512214355 14.49713241435168 0.2882444238402401 7.9838904183320265 9.817729709945006 0.12640658783110115
          0.13192574954745584 6.347345139684949 15.844633326781212 3.023867423754621 0.43433807904858124 6.0670653458606605
          0.18977198531063486 0.47377774533296296 4.496761921963515 0.060907788657607674 11.654383454285409 0.14333011741734586
          12.431151057817006 9.350783397884948 0.3436848297142391 5.805538110652455 9.615261072410007 0.08334100919153804
          0.0971252615189034 0.10733119933453995 0.15078249434075014 9.560793896113797 1.29460782022402e-29 0.19515241896067292
          5.603483900517189 1.0379966845316399e-29 0.440493917913317 0.185350545059843 14.580442314852332 15.25051358032024
          0.10167058914344798 0.19120891139267568 4.769973052545262 1.1185780931631778e-29 0.16694882242044146 11.376443814270406
          0.9395092763848976 0.18407179659541995 10.56667878741136 0.03791468685119803 0.6624742929037952 9.653132659122997
          0.8700109842272131 0.4748427756581253 1.987724401092516e-29 19.926006482778934 14.978321611740228 4.320703535998187
          0.23378389307248584 5.042440075449559 0.39651329093163873 59.027267897584316 0.6455365257434299 0.07235754055053917
          11.984715868330452 27.124004750093253 16.45331566442639 7.2982728872537 0.08665055227789582 0.08928435645238499
          19.861191861047907 0.06367678505179314 9.395110937073369 0.023577562923751225
        </DataArray>
      </PointData>
      <CellData>
        <DataArray type="UInt8" Name="vtkGhostType" format="ascii" RangeMin="0" RangeMax="0">
          0 0 0 0 0 0
          0 0 0 0 0 0
          0 0 0 0 0 0
          0 0 0 0 0 0
          0 0 0 0 0 0
          0 0 0 0 0 0
          0 0 0 0 0 0
          0 0 0 0 0 0
          0 0 0 0 0 0
          0 0 0 0 0 0
          0 0 0 0 0 0
          0 0 0 0 0 0
          0 0 0 0 0 0
          0 0 0 0 0 0
          0 0 0 0 0 0
          0 0 0 0 0 0
          0 0 0 0 0 0
          0 0 0 0 0 0
          0 0 0 0 0 0
          0 0 0 0 0 0
          0 0 0 0 0 0
          0 0 0 0 0 0
          0 0 0 0 0 0
          0 0 0 0 0 0
          0 0 0 0 0 0
          0 0 0 0 0 0
          0 0 0 0 0 0
          0 0 0 0 0 0
          0 0 0 0 0 0
          0 0 0 0 0 0
          0 0 0 0 0 0
          0 0 0 0 0 0
          0 0 0 0 0 0
          0 0 0 0 0 0
          0 0 0 0 0 0
          0 0 0 0 0 0
          0 0 0 0 0 0
          0 0 0 0 0 0
          0 0 0 0 0 0
          0 0 0 0 0
        </DataArray>
      </CellData>
      <Points>
        <DataArray type="Float32" Name="Points" NumberOfComponents="3" format="ascii" RangeMin="0" RangeMax="24.49489742783178">
          20 10 10 20 6.5 10
          16 10 10 20 10 5
          16.37211036682129 5.206768989562988 10 20 3 10
          14.333330154418945 10 5.767949104309082 17.5 2.625 10
          12 10 10 14.425399780273438 5.033590793609619 7.012404918670654
          13.360549926757812 4.658843994140625 10 20 3 5
          16.25 2.4375 7.37460994720459 15 2.25 10
          20 10 0 12.214110374450684 6.010365009307861 4.925261974334717
          14.570380210876465 5.105739116668701 2.9404709339141846 12 10 3.0717968940734863
          10 10 6.535898208618164 20 6.5 0
          16.344310760498047 2.451646089553833 3.285098075866699 16 10 0
          10.119270324707031 5.519060134887695 10 13.631239891052246 2.0446860790252686 6.215021133422852
          12.5 1.875 10 10.550640106201172 4.647356033325195 7.100153923034668
          16.37211036682129 5.206768989562988 0 8 10 10
          20 3 0 11.739009857177734 4.367464065551758 2.512845993041992
          13.663330078125 2.049499034881592 2.55780291557312 17.5 2.625 0
          12 10 0 10.661359786987305 1.5992039442062378 6.873061180114746
          9.59029769897461 6.954894065856934 2.912667989730835 10 1.5 10
          8.36054801940918 3.908843994140625 10 13.360549926757812 4.658843994140625 0
          15 2.25 0 6.61377477645874 6.690732002258301 10
          8 10 3.0717968940734863 10.999679565429688 1.6499520540237427 3.4145760536193848
          9 3 5 8 4.732050895690918 5
          8 3 6.732050895690918 10.596699714660645 5.428274154663086 0
          9 1.350000023841858 5 12.5 1.875 0
          5.6666669845581055 10 5.767949104309082 7.9958391189575195 1.1993759870529175 6.734446048736572
          7.5 1.125 10 8 3 3.267949104309082
          5.86054801940918 3.533843994140625 10 8 10 0
          6 4.732050895690918 5 6 3 6.732050895690918
          4 10 10 7.995840072631836 1.1993759870529175 3.2655539512634277
          10 1.5 0 7.719629764556885 4.535800933837891 0
          6.004158973693848 0.9006239175796509 6.734445095062256 6 3 3.267949104309082
          3.305811882019043 6.3972368240356445 10 5 3 5
          5 0.75 10 3.3605480194091797 3.158843994140625 10
          6.004159927368164 0.9006239771842957 3.2655539512634277 7.5 1.125 0
          5 0.75 5 5.535371780395508 3.26835298538208 0
          4 10 0 3.0012240409851074 5.308693885803223 3.156306028366089
          3.720721960067749 0.5581083297729492 6.921747207641602 4.087935924530029 6.566143035888672 0
          2.5 0.375 10 0 10 10
          5 0.75 0 3.3971519470214844 0.5095726847648621 3.1724090576171875
          3.3605480194091797 3.158843994140625 0 0 10 5
          0 5 10 0 4.949490070343018 5.050509929656982
          2.5 0.375 0 0 0 10
          0 10 0 0 0 5
          0 5 0 0 0 0
          <InformationKey name="L2_NORM_RANGE" location="vtkDataArray" length="2">
            <Value index="0">
              0
            </Value>
            <Value index="1">
              24.494897428
            </Value>
          </InformationKey>
        </DataArray>
      </Points>
      <Cells>
        <DataArray type="Int64" Name="connectivity" format="ascii" RangeMin="0" RangeMax="87">
          16 20 19 11 53 40
          70 73 81 63 77 71
          69 59 61 51 62 55
          52 65 66 77 69 76
          55 68 72 63 79 62
          75 80 52 55 64 65
          10 8 2 9 32 37
          21 16 47 41 30 29
          15 9 23 16 54 48
          34 40 44 42 43 25
          43 39 44 25 41 15
          23 29 62 54 81 71
          77 69 78 61 32 17
          53 34 39 54 62 48
          59 73 54 34 19 3
          21 16 11 1 4 12
          79 56 75 62 45 17
          32 34 54 59 61 73
          23 33 24 25 18 22
          39 25 23 10 24 13
          24 10 23 25 39 48
          56 27 46 42 44 33
          4 11 12 9 64 60
          52 50 40 73 54 71
          23 15 41 25 44 35
          36 50 39 18 43 48
          10 9 23 25 43 54
          39 48 23 16 30 29
          85 81 65 72 60 50
          49 55 21 17 32 16
          49 35 44 50 81 62
          79 80 39 22 36 25
          26 38 20 16 81 85
          65 80 81 63 65 72
          8 9 22 25 20 38
          30 16 46 44 49 33
          20 16 19 26 70 40
          48 73 7 4 12 13
          61 59 69 73 45 51
          58 29 52 39 36 55
          69 73 78 71 36 35
          44 25 42 15 41 29
          19 21 3 14 77 63
          61 71 78 82 77 86
          40 73 53 34 18 48
          39 27 68 61 77 63
          17 40 53 34 23 13
          12 9 49 50 44 55
          17 37 32 16 48 54
          34 43 81 77 63 85
          18 8 22 25 44 35
          49 33 36 39 44 55
          61 54 43 59 86 73
          84 71 59 45 53 34
          11 9 3 16 10 13
          23 9 52 50 60 55
          11 1 3 9 77 72
          63 85 86 81 77 71
          6 17 21 16 4 1
          11 9 54 73 61 71
          39 62 56 48 43 15
          42 29 70 48 79 71
          67 59 69 51 4 2
          3 9 37 16 17 29
          43 34 18 25 43 18
          39 25 52 62 39 55
          86 84 79 71 15 34
          17 29 12 13 4 9
          32 17 45 37 3 1
          4 9 45 34 51 29
          79 62 81 71 69 78
          61 71 45 37 17 29
          48 73 40 71 57 58
          67 51 10 2 4 9
          6 8 18 15 31 26
          20 19 67 61 57 51
          54 73 40 34 62 48
          54 71 18 27 39 22
          11 20 12 9 41 58
          57 51 56 62 79 48
          46 41 57 51 41 42
          46 33 47 37 30 38
          46 42 41 51 3 2
          4 1 43 51 59 34
          23 20 30 16 77 86
          85 81 8 15 6 9
          0 2 3 1 24 22
          10 25 41 33 23 25
          87 85 77 86 69 61
          67 51 52 60 64 55
          59 51 45 34 41 51
          42 29 39 55 62 54
          12 20 23 9 15 34
          43 25 15 16 23 29
          22 9 10 25 44 39
          43 54 44 55 39 54
          23 9 15 25 84 70
          79 71 35 33 44 25
          44 33 42 25 61 73
          69 71 84 73 70 71
          17 15 18 34 36 22
          35 25 36 50 55 44
          79 81 86 71 2 8
          6 9 18 17 6 15
          27 22 18 8 4 13
          10 9 42 51 43 29
          22 8 10 9 31 11
          28 19 15 9 8 25
          43 59 54 34 78 73
          86 71 86 77 78 71
          41 15 42 25 18 40
          17 34 54 63 81 71
          70 73 48 71 3 2
          6 9 17 34 45 29
          74 65 64 72 64 55
          60 72 64 65 55 72
          57 61 67 66 69 76
          67 66 67 61 69 66
          21 26 19 16 77 86
          82 87 24 33 35 25
          20 26 31 38 35 22
          24 25 55 68 60 72
          17 16 15 29 76 82
          77 78 77 66 69 61
          77 72 68 63 61 78
          77 71 48 40 54 71
          30 16 37 29 58 51
          41 29 61 63 54 71
          67 58 59 51 59 58
          45 51 37 26 21 16
          23 9 20 16 50 36
          55 52 43 48 18 34
          85 65 80 83 42 15
          43 25 61 59 43 51
          30 38 37 16 45 58
          47 29 43 34 15 29
          62 54 55 63 81 54
          62 63 55 72 65 63
          31 11 19 20 42 33
          41 25 3 9 6 16
          55 65 62 63 62 65
          81 63 48 40 18 34
          74 85 65 72 79 48
          62 71 11 5 1 12
          53 73 59 34 44 39
          36 25 62 80 81 65
          30 41 23 29 53 45
          32 34 3 6 21 16
          12 7 1 4 85 74
          65 83 18 15 8 25
          18 34 15 25 68 61
          66 77 6 15 17 16
          63 72 81 85 47 58
          41 29 47 37 45 29
          20 9 11 16 5 7
          1 12 69 77 78 76
          30 37 47 29 37 38
          26 16 11 3 19 16
          51 34 43 29 6 9
          15 16
        </DataArray>
        <DataArray type="Int64" Name="offsets" format="ascii" RangeMin="4" RangeMax="956">
          4 8 12 16 20 24
          28 32 36 40 44 48
          52 56 60 64 68 72
          76 80 84 88 92 96
          100 104 108 112 116 120
          124 128 132 136 140 144
          148 152 156 160 164 168
          172 176 180 184 188 192
          196 200 204 208 212 216
          220 224 228 232 236 240
          244 248 252 256 260 264
          268 272 276 280 284 288
          292 296 300 304 308 312
          316 320 324 328 332 336
          340 344 348 352 356 360
          364 368 372 376 380 384
          388 392 396 400 404 408
          412 416 420 424 428 432
          436 440 444 448 452 456
          460 464 468 472 476 480
          484 488 492 496 500 504
          508 512 516 520 524 528
          532 536 540 544 548 552
          556 560 564 568 572 576
          580 584 588 592 596 600
          604 608 612 616 620 624
          628 632 636 640 644 648
          652 656 660 664 668 672
          676 680 684 688 692 696
          700 704 708 712 716 720
          724 728 732 736 740 744
          748 752 756 760 764 768
          772 776 780 784 788 792
          796 800 804 808 812 816
          820 824 828 832 836 840
          844 848 852 856 860 864
          868 872 876 880 884 888
          892 896 900 904 908 912
          916 920 924 928 932 936
          940 944 948 952 956
        </DataArray>
        <DataArray type="UInt8" Name="types" format="ascii" RangeMin="10" RangeMax="10">
          10 10 10 10 10 10
          10 10 10 10 10 10
          10 10 10 10 10 10
          10 10 10 10 10 10
          10 10 10 10 10 10
          10 10 10 10 10 10
          10 10 10 10 10 10
          10 10 10 10 10 10
          10 10 10 10 10 10
          10 10 10 10 10 10
          10 10 10 10 10 10
          10 10 10 10 10 10
          10 10 10 10 10 10
          10 10 10 10 10 10
          10 10 10 10 10 10
          10 10 10 10 10 10
          10 10 10 10 10 10
          10 10 10 10 10 10
          10 10 10 10 10 10
          10 10 10 10 10 10
          10 10 10 10 10 10
          10 10 10 10 10 10
          10 10 10 10 10 10
          10 10 10 10 10 10
          10 10 10 10 10 10
          10 10 10 10 10 10
          10 10 10 10 10 10
          10 10 10 10 10 10
          10 10 10 10 10 10
          10 10 10 10 10 10
          10 10 10 10 10 10
          10 10 10 10 10 10
          10 10 10 10 10 10
          10 10 10 10 10 10
          10 10 10 10 10 10
          10 10 10 10 10 10
          10 10 10 10 10 10
          10 10 10 10 10 10
          10 10 10 10 10 10
          10 10 10 10 10
        </DataArray>
      </Cells>
    </Piece>
  </UnstructuredGrid>
</VTKFile>
