<?xml version="1.0"?>
<VTKFile type="UnstructuredGrid" version="0.1" byte_order="LittleEndian" header_type="UInt32" compressor="vtkZLibDataCompressor">
  <UnstructuredGrid>
    <Piece NumberOfPoints="13" NumberOfCells="11">
      <PointData>
        <DataArray type="Float64" Name="Disp" NumberOfComponents="3" format="ascii" RangeMin="0.0006473902104189788" RangeMax="0.014844599894629502">
          0.00005732671026960866 0.0014401942338126243 0 0.00017259226347514497 0.0012861600404066517 0
          -0.00019421374025160214 0.0013266981083031662 0 0.0006202053188082068 -0.0002241852214125012 0
          -0.0006102464424318612 -0.00021613274635183533 0 0.0010840931401984904 -0.0036534586977342576 0
          -0.0011016281168883314 -0.003667025253208625 0 0.0014617320324206077 -0.008836272926788333 0
          -0.0014111176452805936 -0.008927294004167766 0 0.001467315844015723 -0.01477190340631615 0
          -0.0014285415923412244 -0.014755510822432663 0 -0.00007578949887900336 0.001401733551731947 0
          0.00012846074378632284 0.0009328521310270343 0
          <InformationKey name="L2_NORM_RANGE" location="vtkDataArray" length="2">
            <Value index="0">
              0.00064739021042
            </Value>
            <Value index="1">
              0.014844599895
            </Value>
          </InformationKey>
        </DataArray>
        <DataArray type="Float64" Name="Nodal Stress" NumberOfComponents="6" format="ascii" RangeMin="6182.787937657308" RangeMax="25943.091894394434">
          -13365.195787358502 -9031.998218623768 0 4410.349648359197 0 0
          5951.815390056661 -9900.08709107724 0 -718.7303772981123 0 0
          -18603.33464732025 -9166.131558783844 0 6954.359313987739 0 0
          12444.218699284562 -5899.148834613994 0 -4452.792441324135 0 0
          -18789.15419006611 -3390.814756271769 0 7295.119496465341 0 0
          17531.175816630315 1356.7230457567073 0 -7936.496009583254 0 0
          -12064.742356943008 5622.89417059028 0 4927.812692019858 0 0
          20649.437515671856 13389.688806743708 0 -8207.373574166118 0 0
          -2800.661066925012 13840.224442302244 0 824.5385295853523 0 0
          17109.423524440517 11037.381693611951 0 -6172.117337255597 0 0
          -1795.4163054644641 5521.727286643393 0 -2124.5881351572198 0 0
          1365.827739343894 -7787.118841671529 0 1382.5876697971723 0 0
          -6304.390501252798 -5420.764990983848 0 1641.2801638305784 0 0
          <InformationKey name="L2_NORM_RANGE" location="vtkDataArray" length="2">
            <Value index="0">
              6182.7879377
            </Value>
            <Value index="1">
              25943.091894
            </Value>
          </InformationKey>
        </DataArray>
        <DataArray type="Float64" Name="Nodal Strain" NumberOfComponents="6" format="ascii" RangeMin="0.000350832490327141" RangeMax="0.001565950774337643">
          -0.0006320854770033299 -0.00016781430892460843 0 0.0004725374623241998 0 0
          0.0007787042096853773 -0.000919713913293255 0 -0.00007700682613908347 0 0
          -0.001001447776280595 0.00000968112606259142 0 0.0007451099264986865 0 0
          0.0010995566511851115 -0.0008658041560183056 0 -0.00047708490442758606 0 0
          -0.0012209819151378734 0.0004288401670543775 0 0.0007816199460498579 0 0
          0.0012037724495537114 -0.0005292046330398893 0 -0.0008503388581696344 0 0
          -0.0010625849601598677 0.0008325189535044132 0 0.0005279799312878419 0 0
          0.0009967566508785719 0.00021892643206484157 0 -0.000879361454374941 0 0
          -0.0006943409491482952 0.0010886110696974821 0 0.00008834341388414488 0 0
          0.0008279094769738959 0.00017733356652797832 0 -0.0006612982861345281 0 0
          -0.0003254485677704402 0.0004585311028125447 0 -0.00022763444305255926 0 0
          0.0003756705114414042 -0.000605002336524534 0 0.00014813439319255416 0 0
          -0.0002567148575543481 -0.00016204069573981793 0 0.00017585144612470484 0 0
          <InformationKey name="L2_NORM_RANGE" location="vtkDataArray" length="2">
            <Value index="0">
              0.00035083249033
            </Value>
            <Value index="1">
              0.0015659507743
            </Value>
          </InformationKey>
        </DataArray>
        <DataArray type="Float64" Name="Sld_traction" NumberOfComponents="3" format="ascii" RangeMin="5139.56550494405" RangeMax="23612.98232376105">
          -8346.522027683664 8620.278194695904 0 -7395.667966622181 -9563.7250858448 0
          -16223.200695824877 9350.743184737712 0 -16253.906835981708 -5125.47265122839 0
          -20659.23620412585 4071.545642793269 0 -21778.557121744823 2881.219880724097 0
          -18011.609978611017 -4055.529755944631 0 -19228.74290666962 13705.049450894172 0
          -8947.521569297187 -12447.80118067213 0 -2308.983793722299 5091.844261541824 0
          1435.1663258526266 -4935.122206870815 0 -401.78337274110265 -8123.366156024529 0
          -1766.6459593099241 4983.18401187373 0
          <InformationKey name="L2_NORM_RANGE" location="vtkDataArray" length="2">
            <Value index="0">
              5139.5655049
            </Value>
            <Value index="1">
              23612.982324
            </Value>
          </InformationKey>
        </DataArray>
        <DataArray type="Float64" Name="Velocity" NumberOfComponents="3" format="ascii" RangeMin="0.7589739570369173" RangeMax="8.746722360583965">
          -0.024788302827750276 1.467865129167155 0 0.3883249915103718 0.6863130502411248 0
          -0.3265900349118658 0.68511343334994 0 0.6701292518547768 -1.3799485326232432 0
          -0.6028306502692157 -1.4335193696848603 0 0.6592598555660613 -4.1216515744151305 0
          -0.6364568360359328 -4.160681379941495 0 0.5401436477484045 -6.475505216275685 0
          -0.5693572504648342 -6.4727801001944485 0 0.5724342788132539 -8.727970614614778 0
          -0.5258913621268125 -8.677460784866225 0 0.06886982978175901 1.4373844971628942 0
          0.13116357447075408 1.2253372688875166 0
          <InformationKey name="L2_NORM_RANGE" location="vtkDataArray" length="2">
            <Value index="0">
              0.75897395704
            </Value>
            <Value index="1">
              8.7467223606
            </Value>
          </InformationKey>
        </DataArray>
        <DataArray type="Float64" Name="Acceleration" NumberOfComponents="3" format="ascii" RangeMin="460.63682757821255" RangeMax="3030.8579431237063">
          -233.42802108355932 771.8732812580366 0 523.007053161854 -970.1421180850207 0
          -505.2696222564382 -1045.0398123874336 0 286.6600561191972 -2858.2014786476266 0
          -226.71847627405242 -3022.3663914079043 0 -719.2007180149947 -2411.648941264221 0
          255.83360943346463 -2191.789903245144 0 46.68328822467106 -458.2651607114076 0
          -121.26429678069633 -622.0890906843438 0 677.7911266310191 -2859.832414991881 0
          -374.5864772595455 -2449.120546383746 0 363.6473843973161 793.4147799579512 0
          35.28219471517214 1350.239391546937 0
          <InformationKey name="L2_NORM_RANGE" location="vtkDataArray" length="2">
            <Value index="0">
              460.63682758
            </Value>
            <Value index="1">
              3030.8579431
            </Value>
          </InformationKey>
        </DataArray>
        <DataArray type="Float64" Name="Sigma" NumberOfComponents="6" format="ascii" RangeMin="10045.9415874013" RangeMax="57456.45728580407">
          -32962.94394568817 -11760.292133076946 0 8042.055400040654 0 0
          22525.57109988796 -16683.644658718047 0 -6992.823922403739 0 0
          -48812.319631373546 -11922.378945289012 0 16825.390158440958 0 0
          40064.83221805388 -10778.58544768988 0 -16776.01243958541 0 0
          -53026.18967236453 -2216.7816903465664 0 21995.588141144777 0 0
          50644.46708858301 -604.9189013360619 0 -23426.567335144864 0 0
          -38956.215679020985 8263.076259644464 0 19147.674501735026 0 0
          50457.490908065636 18646.391421473716 0 -20189.06095030407 0 0
          -20237.934748778658 24009.514920632075 0 9483.373723581211 0 0
          46314.818040644015 18380.333226824474 0 -11189.646303656595 0 0
          2609.4682324254914 9087.272988845609 0 -3396.0399802767483 0 0
          7521.727179503316 -12787.575374115198 0 373.30032946727806 0 0
          -14281.623585746056 -7352.067698232064 0 1085.5204074984103 0 0
          <InformationKey name="L2_NORM_RANGE" location="vtkDataArray" length="2">
            <Value index="0">
              10045.941587
            </Value>
            <Value index="1">
              57456.457286
            </Value>
          </InformationKey>
        </DataArray>
        <DataArray type="Float64" Name="Press" format="ascii" RangeMin="-11862.0295838507" RangeMax="5744.983566100375">
          2763.3381247617135 5744.983566100375 1148.6467572928868 5546.418929813746 -1795.7946577799657 1719.4101580879194
          -5868.312535901835 -584.8706462604132 -5242.814931808263 -9510.610879064527 -11862.0295838507 4392.035747393211
          2391.946751313695
        </DataArray>
        <DataArray type="Float64" Name="Dev strain" NumberOfComponents="6" format="ascii" RangeMin="0.00046789179465560413" RangeMax="0.0015660151532757777">
          -0.0007523076820157229 -0.00028803651393700144 0 0.0004725374623241998 0 0
          0.0006232508589772866 -0.0010751672640013457 0 -0.00007700682613908347 0 0
          -0.0010920496483120454 -0.000080920745968859 0 0.0007451099264986865 0 0
          0.0009821500693336337 -0.0009832107378697833 0 -0.00047708490442758606 0 0
          -0.0012181165117167857 0.00043170557047546505 0 0.0007816199460498579 0 0
          0.0012039218696587198 -0.000529055212934881 0 -0.0008503388581696344 0 0
          -0.0009435986334296765 0.0009515052802346044 0 0.0005279799312878419 0 0
          0.0010965265304439269 0.0003186963116301965 0 -0.000879361454374941 0 0
          -0.000487858226644569 0.0012950937922012083 0 0.00008834341388414488 0 0
          0.001100119180589904 0.0004495432701439861 0 -0.0006612982861345281 0 0
          0.000018100405252543945 0.0008020800758355287 0 -0.00022763444305255926 0 0
          0.0002433834444896829 -0.0007372894034762552 0 0.00014813439319255416 0 0
          -0.00035025406783953513 -0.00025557990602500494 0 0.00017585144612470484 0 0
          <InformationKey name="L2_NORM_RANGE" location="vtkDataArray" length="2">
            <Value index="0">
              0.00046789179466
            </Value>
            <Value index="1">
              0.0015660151533
            </Value>
          </InformationKey>
        </DataArray>
        <DataArray type="Float64" Name="J2 Stresses" format="ascii" RangeMin="47577199.30182994" RangeMax="1548722696.4039407">
          628598736.0752767 405097572.83967495 1333166272.2511637 931042990.8002614 1529296930.5348346 1419815001.0589
          884590944.3576488 1548722696.4039407 515498999.10521615 1272751555.9337702 47577199.30182994 110084070.13977325
          129303424.48093657
        </DataArray>
      </PointData>
      <CellData>
        <DataArray type="UInt8" Name="vtkGhostType" format="ascii" RangeMin="0" RangeMax="1">
          1 1 0 0 0 0
          0 0 0 0 0
        </DataArray>
        <DataArray type="Float64" Name="Gauss Stress" NumberOfComponents="6" format="ascii" RangeMin="8488.061077438711" RangeMax="26484.09914176628">
          -10058.506576154097 -7450.871527318528 0 3166.958712335448 0 0
          3328.2372573194734 -9443.71824255163 0 474.17726903472976 0 0
          -16530.90800967293 -10236.449096309678 0 5958.207212025959 0 0
          -18958.135352119185 -6672.825017999596 0 7348.321953333443 0 0
          8739.377646591769 -8981.519932829979 0 -2314.4820678493998 0 0
          -15760.878432798798 -167.77378921068134 0 5905.565102578316 0 0
          14384.38135479802 -2710.0838697502686 0 -6068.99721119517 0 0
          -6810.885877901514 13074.328162593249 0 2813.995758337391 0 0
          19137.323097851113 7190.258585235932 0 -8155.984594571305 0 0
          690.2987098557842 8287.221913859554 0 -1700.77085345071 0 0
          20398.6925809326 15232.64770393235 0 -7298.444510126484 0 0
          <InformationKey name="L2_NORM_RANGE" location="vtkDataArray" length="2">
            <Value index="0">
              8488.0610774
            </Value>
            <Value index="1">
              26484.099142
            </Value>
          </InformationKey>
        </DataArray>
        <DataArray type="Float64" Name="Gauss Strain" NumberOfComponents="6" format="ascii" RangeMin="0.0005913435181051926" RangeMax="0.001544526346655262">
          -0.0004523622008924881 -0.0001729727313743915 0 0.0003393170048930837 0 0
          0.000575006884185378 -0.0007934169193722407 0 0.00005080470739657824 0 0
          -0.0008151916758227209 -0.00014078536367665808 0 0.0006383793441456384 0 0
          -0.001115837345937099 0.0002004459041471424 0 0.0007873202092857261 0 0
          0.0009450098295004832 -0.0009536577682947046 0 -0.00024798022155529307 0 0
          -0.0011197851098709612 0.0005509046733706226 0 0.0006327391181333907 0 0
          0.0011242445206909404 -0.0007073053247963774 0 -0.0006502497011994824 0 0
          -0.0009534321399427239 0.0011771265072531433 0 0.00030149954553614896 0 0
          0.0011101567003737967 -0.00016988592597783037 0 -0.0008738554922754973 0 0
          -0.00024666516050528525 0.0005672908970665474 0 -0.00018222544858400474 0 0
          0.0009130263377833162 0.0003595215295332895 0 -0.0007819761975135519 0 0
          <InformationKey name="L2_NORM_RANGE" location="vtkDataArray" length="2">
            <Value index="0">
              0.00059134351811
            </Value>
            <Value index="1">
              0.0015445263467
            </Value>
          </InformationKey>
        </DataArray>
      </CellData>
      <Points>
        <DataArray type="Float32" Name="Points" NumberOfComponents="3" format="ascii" RangeMin="0.4000000059604645" RangeMax="1.0012492197622458">
          0.5 0 0 0.6000000238418579 0.05000000074505806 0
          0.6000000238418579 0 0 0.699999988079071 0.05000000074505806 0
          0.699999988079071 0 0 0.800000011920929 0.05000000074505806 0
          0.800000011920929 0 0 0.8999999761581421 0.05000000074505806 0
          0.8999999761581421 0 0 1 0.05000000074505806 0
          1 0 0 0.5 0.05000000074505806 0
          0.4000000059604645 0 0
          <InformationKey name="L2_NORM_RANGE" location="vtkDataArray" length="2">
            <Value index="0">
              0.40000000596
            </Value>
            <Value index="1">
              1.0012492198
            </Value>
          </InformationKey>
        </DataArray>
      </Points>
      <Cells>
        <DataArray type="Int64" Name="connectivity" format="ascii" RangeMin="0" RangeMax="12">
          0 11 12 1 11 0
          2 1 0 4 3 2
          3 1 2 6 5 4
          5 3 4 8 7 6
          7 5 6 10 9 8
          9 7 8
        </DataArray>
        <DataArray type="Int64" Name="offsets" format="ascii" RangeMin="3" RangeMax="33">
          3 6 9 12 15 18
          21 24 27 30 33
        </DataArray>
        <DataArray type="UInt8" Name="types" format="ascii" RangeMin="5" RangeMax="5">
          5 5 5 5 5 5
          5 5 5 5 5
        </DataArray>
      </Cells>
    </Piece>
  </UnstructuredGrid>
</VTKFile>
