<?xml version="1.0"?>
<VTKFile type="UnstructuredGrid" version="0.1" byte_order="LittleEndian" header_type="UInt32" compressor="vtkZLibDataCompressor">
  <UnstructuredGrid>
    <Piece NumberOfPoints="13" NumberOfCells="11">
      <PointData>
        <DataArray type="Float64" Name="Disp" NumberOfComponents="3" format="ascii" RangeMin="0.03863246179292915" RangeMax="0.22192648362339584">
          -0.006419246626563582 -0.06071276704446672 0 0.006967028784593401 -0.08752700414375067 0
          -0.007426097329133239 -0.08757390644585895 0 0.007801520432356318 -0.11809820449503325 0
          -0.00822815604035525 -0.11815519900662144 0 0.008369203223682937 -0.1514535257667436 0
          -0.00878251147759019 -0.15151441179335093 0 0.008636753603406625 -0.1864506613152335 0
          -0.009001019805838697 -0.1865290614204521 0 0.00860036620192655 -0.22174751059006037 0
          -0.00897216811143649 -0.2217450435360969 0 0.0059267821277188305 -0.06067936183711353 0
          -0.0052388995215225664 -0.03827559321533138 0
          <InformationKey name="L2_NORM_RANGE" location="vtkDataArray" length="2">
            <Value index="0">
              0.038632461793
            </Value>
            <Value index="1">
              0.22192648362
            </Value>
          </InformationKey>
        </DataArray>
        <DataArray type="Float64" Name="Nodal Stress" NumberOfComponents="6" format="ascii" RangeMin="7223.063394598659" RangeMax="63460.899868164925">
          -44632.25774600177 8099.591062220223 0 14100.523140706482 0 0
          54346.34191078691 10732.991252002035 0 -19207.080089509625 0 0
          -33955.999339644884 11781.79043268466 0 10928.551049785741 0 0
          47062.46986572938 14075.868648635302 0 -16991.349331006724 0 0
          -21764.90987769524 14683.805724036685 0 6740.356743472269 0 0
          37456.34157572928 16138.777309929605 0 -13804.375318089345 0 0
          -9399.478751225246 16843.33505500541 0 2359.538776506073 0 0
          26908.922251839253 18138.94527241523 0 -9043.691311372591 0 0
          -1134.8337962003052 15675.275747187541 0 -1126.698091035937 0 0
          15882.082741607572 11109.182277163154 0 -3603.137127123557 0 0
          -2719.1622160216752 6494.512097981076 0 -1612.4869780958343 0 0
          59886.21953827145 6749.968490115337 0 -19883.773456606777 0 0
          -53926.15374530936 4079.8172806756843 0 16972.02154875275 0 0
          <InformationKey name="L2_NORM_RANGE" location="vtkDataArray" length="2">
            <Value index="0">
              7223.0633946
            </Value>
            <Value index="1">
              63460.899868
            </Value>
          </InformationKey>
        </DataArray>
        <DataArray type="Float64" Name="Nodal Strain" NumberOfComponents="6" format="ascii" RangeMin="0.0007253963873261024" RangeMax="0.004919750297574283">
          -0.0034772895197937065 0.002172551423944365 0 0.0015107703365042661 0 0
          0.0034985604489132806 -0.0011742985502422446 0 -0.0020579014381617447 0 0
          -0.0028462067539990867 0.00205427072160765 0 0.0011709161839056155 0 0
          0.0028588953958151235 -0.0006753833060163848 0 -0.0018205017140364346 0 0
          -0.002079058052836685 0.0018261614759203075 0 0.0007221810796577433 0 0
          0.002099068065768891 -0.00018495667699535944 0 -0.0014790402126524298 0 0
          -0.0012729390199091393 0.0015387910307584308 0 0.00025280772605422214 0 0
          0.0012742464011165462 0.00033460601046397164 0 -0.0009689669262184918 0 0
          -0.0006408908335567198 0.0011601923318062639 0 -0.00012071765261099322 0 0
          0.0007376779716447141 0.0002262957790256693 0 -0.00038605040647752393 0 0
          -0.000426172733215158 0.000561006657570851 0 -0.0001727664619388394 0 0
          0.004036516806658128 -0.0016566529485014558 0 -0.002130404298922155 0 0
          -0.003997575884689088 0.002217349582380741 0 0.0018184308802235089 0 0
          <InformationKey name="L2_NORM_RANGE" location="vtkDataArray" length="2">
            <Value index="0">
              0.00072539638733
            </Value>
            <Value index="1">
              0.0049197502976
            </Value>
          </InformationKey>
        </DataArray>
        <DataArray type="Float64" Name="Sld_traction" NumberOfComponents="3" format="ascii" RangeMin="5485.369237322301" RangeMax="56400.48506461034">
          -48306.97717137723 -7105.083826151262 0 -50836.9401201732 11503.324620750556 0
          -39847.868738023484 -11059.203461838233 0 -42801.92714147002 14618.166773916653 0
          -28993.71309041173 -14117.829647476005 0 -31988.36615112883 16784.094830066726 0
          -16269.472905065617 -16149.992213012578 0 -18299.3317721851 17681.466846243726 0
          -4068.4728427436758 -15515.93710431935 0 178.81726385337444 6845.9112175654145 0
          1922.5854030656717 -5137.406061202545 0 -55893.010247596205 7548.91521911856 0
          -52375.49929198073 -4725.757825998416 0
          <InformationKey name="L2_NORM_RANGE" location="vtkDataArray" length="2">
            <Value index="0">
              5485.3692373
            </Value>
            <Value index="1">
              56400.485065
            </Value>
          </InformationKey>
        </DataArray>
        <DataArray type="Float64" Name="Velocity" NumberOfComponents="3" format="ascii" RangeMin="0.6326771298793344" RangeMax="15.57080053007915">
          -0.0433198492533553 1.6132816897812332 0 -0.01424609291736767 1.639054172756565 0
          -0.23721778296176046 1.7023920409255648 0 0.5186155139388413 0.36237866848685196 0
          -0.713936366465063 0.3804498245228447 0 1.0938953206115505 -3.357762695408777 0
          -1.3425606260735434 -3.381626238535018 0 1.4471489822183925 -9.119177893209395 0
          -1.6961911700248602 -9.231895820381553 0 1.429866581692656 -15.493092921031455 0
          -1.6559927100052876 -15.482490668233018 0 -0.15622438604686795 1.5855637384660737 0
          -0.03742980172971494 1.339464452759675 0
          <InformationKey name="L2_NORM_RANGE" location="vtkDataArray" length="2">
            <Value index="0">
              0.63267712988
            </Value>
            <Value index="1">
              15.57080053
            </Value>
          </InformationKey>
        </DataArray>
        <DataArray type="Float64" Name="Acceleration" NumberOfComponents="3" format="ascii" RangeMin="233.4406645645315" RangeMax="7009.189442893404">
          -55.30379098962638 -1483.6402279506128 0 -120.45229709336161 -802.9548744805993 0
          271.39114157850906 -692.1391097373917 0 275.3162754447944 -596.662412901054 0
          -81.72674451674925 -953.8895552760687 0 -651.9744983092885 -808.3068363009966 0
          218.0064767137469 83.4728697433402 0 -1114.2881887622636 1607.6286481602456 0
          453.2451500024247 2589.308875391233 0 -310.2592697031696 7002.319318049671 0
          -30.749817504981365 3576.499664187634 0 -47.002054178459105 -1623.993156196103 0
          -570.2621732608886 -192.12021845627623 0
          <InformationKey name="L2_NORM_RANGE" location="vtkDataArray" length="2">
            <Value index="0">
              233.44066456
            </Value>
            <Value index="1">
              7009.1894429
            </Value>
          </InformationKey>
        </DataArray>
        <DataArray type="Float64" Name="Sigma" NumberOfComponents="6" format="ascii" RangeMin="7784.705779310319" RangeMax="172760.19486356582">
          -134150.24347310825 21003.928667675857 0 47959.7801772536 0 0
          144906.11004987525 7050.534356414164 0 -51154.40277077617 0 0
          -106896.78561073764 23817.447073235697 0 40462.96241698444 0 0
          121615.02956223974 13800.72124397609 0 -43280.85956156428 0 0
          -74036.71383090054 26716.963215879303 0 29275.582582949562 0 0
          92056.67691335076 18023.068449758513 0 -32533.721831786854 0 0
          -39627.84112248753 26216.28469735511 0 16396.985793687698 0 0
          60349.64008079334 23359.22225776945 0 -18514.45001806126 0 0
          -15614.27406632276 25529.11221584158 0 2753.3116726933326 0 0
          37576.989212475826 14338.356657109129 0 -3204.4687290787224 0 0
          -2904.7657499755223 6570.20601463116 0 -2999.395427998974 0 0
          163017.79006217647 2868.5349862731214 0 -57123.17007637026 0 0
          -155785.03562641493 11367.546082299848 0 57539.77990226462 0 0
          <InformationKey name="L2_NORM_RANGE" location="vtkDataArray" length="2">
            <Value index="0">
              7784.7057793
            </Value>
            <Value index="1">
              172760.19486
            </Value>
          </InformationKey>
        </DataArray>
        <DataArray type="Float64" Name="Press" format="ascii" RangeMin="-13613.342361449775" RangeMax="5652.3421794339765">
          -13613.342361449775 4320.297066520197 -12690.891152635602 1215.0236230827136 -12258.552433476361 -1747.878697428177
          -10469.505862710937 -2771.157153749246 -6074.685058745759 -6877.005748057942 -7039.070851742508 5652.3421794339765
          -9425.944270896693
        </DataArray>
        <DataArray type="Float64" Name="Dev strain" NumberOfComponents="6" format="ascii" RangeMin="0.0008412899734847561" RangeMax="0.004859870880068748">
          -0.003227731153423699 0.002422109790314372 0 0.0015107703365042661 0 0
          0.0035575465168493896 -0.0011153124823061347 0 -0.0020579014381617447 0 0
          -0.002575532348250474 0.0023249451273562633 0 0.0011709161839056155 0 0
          0.002978051131126539 -0.0005562275707049692 0 -0.0018205017140364346 0 0
          -0.001788053821393543 0.0021171657073634493 0 0.0007221810796577433 0 0
          0.0022701975964463028 -0.000013827146317947895 0 -0.0014790402126524298 0 0
          -0.0010045213283292507 0.0018072087223383196 0 0.00025280772605422214 0 0
          0.0014478779761489715 0.0005082375854963974 0 -0.0009689669262184918 0 0
          -0.000422875914299153 0.0013782072510638307 0 -0.00012071765261099322 0 0
          0.000958515565909067 0.00044713337329002227 0 -0.00038605040647752393 0 0
          -0.000184834942944723 0.0008023444478412861 0 -0.0001727664619388394 0 0
          0.004025410116218286 -0.001667759638941298 0 -0.002130404298922155 0 0
          -0.003814217579352466 0.0024007078877173625 0 0.0018184308802235089 0 0
          <InformationKey name="L2_NORM_RANGE" location="vtkDataArray" length="2">
            <Value index="0">
              0.00084128997348
            </Value>
            <Value index="1">
              0.0048598708801
            </Value>
          </InformationKey>
        </DataArray>
        <DataArray type="Float64" Name="J2 Stresses" format="ascii" RangeMin="28051728.80183845" RangeMax="14107278324.755138">
          9793761550.34814 11177938612.957466 6406409611.386769 7958645862.236152 3311880493.071429 4664242144.393885
          1196044973.4605436 2179562376.052407 449665743.865383 811376449.9094061 28051728.80183845 14107278324.755138
          13026805782.328556
        </DataArray>
      </PointData>
      <CellData>
        <DataArray type="UInt8" Name="vtkGhostType" format="ascii" RangeMin="0" RangeMax="1">
          1 1 0 0 0 0
          0 0 0 0 0
        </DataArray>
        <DataArray type="Float64" Name="Gauss Stress" NumberOfComponents="6" format="ascii" RangeMin="8895.789706425152" RangeMax="60852.99371975638">
          -48101.47783008642 5951.021761112112 0 16125.463334382655 0 0
          56710.98450781596 9094.098298289182 0 -20105.930889964286 0 0
          -39374.95182717862 9962.657883253514 0 12422.779941153964 0 0
          -27684.296614142564 13533.570523353947 0 8819.228479456577 0 0
          50822.9278461149 12504.377403531087 0 -17990.766638452005 0 0
          -15361.271677884266 15493.459789792483 0 4379.615514950138 0 0
          42281.19504562271 15249.781800597357 0 -15512.999603467193 0 0
          -4735.9410610743 18596.423698586732 0 211.94914943992262 0 0
          32596.644719256077 17536.677896998237 0 -11550.39535205347 0 0
          -310.9374207895571 8815.637743011883 0 -1150.1841614614543 0 0
          22196.502422131154 15834.614390055733 0 -6321.86902481555 0 0
          <InformationKey name="L2_NORM_RANGE" location="vtkDataArray" length="2">
            <Value index="0">
              8895.7897064
            </Value>
            <Value index="1">
              60852.99372
            </Value>
          </InformationKey>
        </DataArray>
        <DataArray type="Float64" Name="Gauss Strain" NumberOfComponents="6" format="ascii" RangeMin="0.0007344440840065173" RangeMax="0.004570330893242566">
          -0.0036483563364744626 0.002142982905439666 0 0.001727728214398142 0 0
          0.003725995382762242 -0.0013758138539727719 0 -0.0021542068810676018 0 0
          -0.0031683057692003845 0.0021178666997744874 0 0.00133101213655221 0 0
          -0.0024607915625585387 0.0019554084878875165 0 0.0009449173370846334 0 0
          0.003183624224596382 -0.0009219347513947404 0 -0.0019275821398341436 0 0
          -0.0016505715409128935 0.0016552925449096157 0 0.00046924451945894326 0 0
          0.0024754502960945743 -0.0004207725515867145 0 -0.0016621071003714847 0 0
          -0.0010024394935976906 0.0014974567306517061 0 0.000022708837439991783 0 0
          0.0017020218407683544 0.0000884539669550146 0 -0.0012375423591485866 0 0
          -0.0003370540208782498 0.0006407933181004758 0 -0.0001232340172994416 0 0
          0.0010199425162216638 0.00033831165564215417 0 -0.000677343109801666 0 0
          <InformationKey name="L2_NORM_RANGE" location="vtkDataArray" length="2">
            <Value index="0">
              0.00073444408401
            </Value>
            <Value index="1">
              0.0045703308932
            </Value>
          </InformationKey>
        </DataArray>
      </CellData>
      <Points>
        <DataArray type="Float32" Name="Points" NumberOfComponents="3" format="ascii" RangeMin="0.4000000059604645" RangeMax="1.0012492197622458">
          0.5 0 0 0.6000000238418579 0.05000000074505806 0
          0.6000000238418579 0 0 0.699999988079071 0.05000000074505806 0
          0.699999988079071 0 0 0.800000011920929 0.05000000074505806 0
          0.800000011920929 0 0 0.8999999761581421 0.05000000074505806 0
          0.8999999761581421 0 0 1 0.05000000074505806 0
          1 0 0 0.5 0.05000000074505806 0
          0.4000000059604645 0 0
          <InformationKey name="L2_NORM_RANGE" location="vtkDataArray" length="2">
            <Value index="0">
              0.40000000596
            </Value>
            <Value index="1">
              1.0012492198
            </Value>
          </InformationKey>
        </DataArray>
      </Points>
      <Cells>
        <DataArray type="Int64" Name="connectivity" format="ascii" RangeMin="0" RangeMax="12">
          0 11 12 1 11 0
          2 1 0 4 3 2
          3 1 2 6 5 4
          5 3 4 8 7 6
          7 5 6 10 9 8
          9 7 8
        </DataArray>
        <DataArray type="Int64" Name="offsets" format="ascii" RangeMin="3" RangeMax="33">
          3 6 9 12 15 18
          21 24 27 30 33
        </DataArray>
        <DataArray type="UInt8" Name="types" format="ascii" RangeMin="5" RangeMax="5">
          5 5 5 5 5 5
          5 5 5 5 5
        </DataArray>
      </Cells>
    </Piece>
  </UnstructuredGrid>
</VTKFile>
