<?xml version="1.0"?>
<VTKFile type="UnstructuredGrid" version="0.1" byte_order="LittleEndian" header_type="UInt32" compressor="vtkZLibDataCompressor">
  <UnstructuredGrid>
    <Piece NumberOfPoints="13" NumberOfCells="11">
      <PointData>
        <DataArray type="Float64" Name="Disp" NumberOfComponents="3" format="ascii" RangeMin="0" RangeMax="0.031156694147552996">
          0 0 0 0 0 0
          0.00006750329649702713 -0.00023731996278515818 0 -0.00021851547774837403 -0.00018875393592222823 0
          0.0005181940723358205 -0.001523191937199981 0 -0.0006253573557909882 -0.0014461926157449227 0
          0.0010961297164302955 -0.005040741463101162 0 -0.0012970934675911152 -0.005050312758611719 0
          0.0016983026507823122 -0.01098662026829083 0 -0.0018937159802316739 -0.010965198586031781 0
          0.0023896027913332344 -0.019524117068167465 0 -0.0026030168661933346 -0.019516811685330038 0
          0.0031444497926640287 -0.030997613225949804 0
          <InformationKey name="L2_NORM_RANGE" location="vtkDataArray" length="2">
            <Value index="0">
              0
            </Value>
            <Value index="1">
              0.031156694148
            </Value>
          </InformationKey>
        </DataArray>
        <DataArray type="Float64" Name="Nodal Stress" NumberOfComponents="6" format="ascii" RangeMin="24466.167882573758" RangeMax="517154.68502791546">
          -458574.0283101024 -42635.24451403454 0 -235246.81662244943 0 0
          -35101.06698759377 56748.05804826466 0 6710.099629891938 0 0
          38426.60650425715 8889.992043823455 0 13064.295429610343 0 0
          -26178.27557203684 -16477.809508357495 0 10132.45309961499 0 0
          -2952.5934589542458 -22112.49924805226 0 -10045.54327696181 0 0
          -36898.99543614659 -12280.070043680164 0 10418.248787860352 0 0
          25661.088088260043 -3634.1433772628006 0 -6693.2693304354925 0 0
          -31443.19197449862 -3051.0470661647496 0 9151.884009092397 0 0
          26319.34745356054 -3603.089436483032 0 -8572.339925322432 0 0
          -34686.50968696045 -4086.5028548439277 0 10782.731051269893 0 0
          29280.9702254735 -3674.658110534471 0 -9398.044728271703 0 0
          -35881.05024560862 -3249.102911677703 0 11344.65880246893 0 0
          31636.083808833548 -1336.1120899020275 0 -11209.63908752873 0 0
          <InformationKey name="L2_NORM_RANGE" location="vtkDataArray" length="2">
            <Value index="0">
              24466.167883
            </Value>
            <Value index="1">
              517154.68503
            </Value>
          </InformationKey>
        </DataArray>
        <DataArray type="Float64" Name="Nodal Strain" NumberOfComponents="6" format="ascii" RangeMin="0.0016967916671095152" RangeMax="0.0422908686162023">
          -0.031232600432363224 0.01333226926007262 0 -0.02520501606669101 0 0
          -0.004533935429409007 0.005307042253004397 0 0.0007189392460598507 0 0
          0.0024272578915961024 -0.0007373793720217939 0 0.0013997459388868222 0 0
          -0.0012813836298470069 -0.00024204798016707723 0 0.001085619974958749 0 0
          0.0005788325832194201 -0.00147401446561251 0 -0.0010763082082459081 0 0
          -0.0021970686010218936 0.000440673405313795 0 0.0011162409415564664 0 0
          0.0019627256983493894 -0.001176049101528059 0 -0.0007171359996895171 0 0
          -0.002136976317244018 0.000905039208648897 0 0.0009805590009741853 0 0
          0.0020086351551287184 -0.0011973402259473787 0 -0.0009184649919988321 0 0
          -0.0023316613042527494 0.0009469108563311639 0 0.00115529261263606 0 0
          0.002222735662910053 -0.0013082245159479443 0 -0.0010069333637433965 0 0
          -0.002446892770697841 0.0010493873007947573 0 0.0012154991574073852 0 0
          0.002307438560984611 -0.0012252967138799142 0 -0.0012010327593780783 0 0
          <InformationKey name="L2_NORM_RANGE" location="vtkDataArray" length="2">
            <Value index="0">
              0.0016967916671
            </Value>
            <Value index="1">
              0.042290868616
            </Value>
          </InformationKey>
        </DataArray>
        <DataArray type="Float64" Name="Sld_traction" NumberOfComponents="3" format="ascii" RangeMin="13790.898796902613" RangeMax="58350.34377283688">
          -126.50989723139595 41377.599349449934 0 54195.85239869219 -21623.417888655225 0
          -36414.329469340686 -23291.73963380484 0 -8587.770565205421 10790.694432973314 0
          -12754.085406463948 -14848.182987801425 0 -27538.784885109497 14006.035184658951 0
          -26936.56300985026 -4413.999855418892 0 -27475.481477063597 3947.002271118141 0
          -26436.99030683313 -3266.0673553040065 0 -29972.464636875357 4093.339093552578 0
          -30098.73489702274 -3351.2317508744272 0 -33016.11514267781 3550.687749645858 0
          -33696.07572201269 -614.1563900984513 0
          <InformationKey name="L2_NORM_RANGE" location="vtkDataArray" length="2">
            <Value index="0">
              13790.898797
            </Value>
            <Value index="1">
              58350.343773
            </Value>
          </InformationKey>
        </DataArray>
        <DataArray type="Float64" Name="Velocity" NumberOfComponents="3" format="ascii" RangeMin="0" RangeMax="11.090433987704014">
          0 0 0 0 0 0
          0.1318354415426935 -0.47138074128109436 0 -0.24307731176007058 -0.476279372027886 0
          0.27874699430672534 -1.5231518085642142 0 -0.354278330727186 -1.5085778942210484 0
          0.3966451654052414 -3.0787582222679806 0 -0.5474542683386215 -3.074003742635138 0
          0.6303655540679441 -5.36749150869575 0 -0.7340956636199494 -5.3957517267135975 0
          0.6990083271742106 -8.40597630279391 0 -0.804496501169507 -8.471195204516794 0
          0.4621453366838255 -11.080800861102132 0
          <InformationKey name="L2_NORM_RANGE" location="vtkDataArray" length="2">
            <Value index="0">
              0
            </Value>
            <Value index="1">
              11.090433988
            </Value>
          </InformationKey>
        </DataArray>
        <DataArray type="Float64" Name="Acceleration" NumberOfComponents="3" format="ascii" RangeMin="0" RangeMax="1278.29752548878">
          0 0 0 0 0 0
          139.24792194603123 -791.5703419873533 0 -264.9118718003464 -887.0923828757407 0
          -277.83568081034036 -1039.2129551100102 0 70.68540646025463 -1010.1486285985629 0
          -331.67419273062137 204.65547308821624 0 170.79151578741084 352.1331908963775 0
          213.32466193548822 342.1578094039887 0 -202.2658706036703 280.9406282405944 0
          294.58163375605636 -830.4832461193955 0 -89.3398318518988 -839.7492929660602 0
          269.2828017872305 -1249.6124744625258 0
          <InformationKey name="L2_NORM_RANGE" location="vtkDataArray" length="2">
            <Value index="0">
              0
            </Value>
            <Value index="1">
              1278.2975255
            </Value>
          </InformationKey>
        </DataArray>
        <DataArray type="Float64" Name="Sigma" NumberOfComponents="6" format="ascii" RangeMin="55394.78905267654" RangeMax="1273585.2400611993">
          -1119860.7605448414 -185587.54563513072 0 -577484.6349460742 0 0
          97463.32963911488 153465.93335616786 0 114777.33379858738 0 0
          263776.48170549417 2982.583353291484 0 99204.66960376328 0 0
          -162970.80269965684 -64873.63548630658 0 -26353.242416666348 0 0
          -7605.346674049222 -39754.08685655458 0 -37820.02028502332 0 0
          -69198.63608026586 -11493.373243852193 0 42162.25925931062 0 0
          85560.19621765226 -2277.1939038168675 0 -24449.10090245365 0 0
          -88710.29811535805 2360.3229703558427 0 22936.91469008086 0 0
          78382.60254597737 -11538.861973231682 0 -26002.95416426362 0 0
          -92881.33017248663 -786.8713418208099 0 30942.97084274755 0 0
          88158.7149174965 -9874.510359062373 0 -30161.024281490627 0 0
          -97845.32257152809 1626.7649356972652 0 33125.989760181095 0 0
          93520.50930607591 -6959.307223239755 0 -33945.35809191032 0 0
          <InformationKey name="L2_NORM_RANGE" location="vtkDataArray" length="2">
            <Value index="0">
              55394.789053
            </Value>
            <Value index="1">
              1273585.2401
            </Value>
          </InformationKey>
        </DataArray>
        <DataArray type="Float64" Name="Press" format="ascii" RangeMin="-5619.506248798409" RangeMax="13399.9348590917">
          10988.860193465503 9889.859561949634 12318.01655578327 9432.413823469626 13399.9348590917 5158.300379242723
          3304.104057785102 -5615.020957034721 7301.37422230825 -3541.277473563052 6201.147076963832 -5619.506248798409
          5782.857597310791
        </DataArray>
        <DataArray type="Float64" Name="Dev strain" NumberOfComponents="6" format="ascii" RangeMin="0.0020648348074037595" RangeMax="0.04246119078549956">
          -0.03162711468686916 0.012937755005566686 0 -0.02520501606669101 0 0
          -0.004911688756981776 0.004929288925431626 0 0.0007189392460598507 0 0
          0.0020196940786255803 -0.0011449431849923158 0 0.0013997459388868222 0 0
          -0.0016476888254177212 -0.0006083531757377917 0 0.001085619974958749 0 0
          0.00020620413627435053 -0.0018466429125575795 0 -0.0010763082082459081 0 0
          -0.002399971199163694 0.00023777080717199482 0 0.0011162409415564664 0 0
          0.0018448313761097266 -0.001293943423767721 0 -0.0007171359996895171 0 0
          -0.0021046485009453813 0.0009373670249475339 0 0.0009805590009741853 0 0
          0.0019044658110590666 -0.00130150957001703 0 -0.0009184649919988321 0 0
          -0.0023153602642269544 0.0009632118963569596 0 0.00115529261263606 0 0
          0.0021275882020866032 -0.001403371976771394 0 -0.0010069333637433965 0 0
          -0.002386089099403081 0.0011101909720895172 0 0.0012154991574073852 0 0
          0.0022519346857270456 -0.0012808005891374807 0 -0.0012010327593780783 0 0
          <InformationKey name="L2_NORM_RANGE" location="vtkDataArray" length="2">
            <Value index="0">
              0.0020648348074
            </Value>
            <Value index="1">
              0.042461190785
            </Value>
          </InformationKey>
        </DataArray>
        <DataArray type="Float64" Name="J2 Stresses" format="ascii" RangeMin="1176702843.5053728" RangeMax="727637555951.1714">
          727637555951.1714 19818905751.089348 37253855669.99207 15557658903.358227 1176702843.5053728 2904688458.408116
          3812306028.1739593 4069069571.995056 3307527265.0761743 4553147191.703309 4162154331.794993 5062509556.039105
          4685330642.94464
        </DataArray>
      </PointData>
      <CellData>
        <DataArray type="UInt8" Name="vtkGhostType" format="ascii" RangeMin="0" RangeMax="0">
          0 0 0 0 0 0
          0 0 0 0 0
        </DataArray>
        <DataArray type="Float64" Name="Gauss Stress" NumberOfComponents="6" format="ascii" RangeMin="16139.268337942467" RangeMax="270470.97128570883">
          76636.43286205154 41071.72372145175 0 62542.92032856143 0 0
          -241808.0709630112 1352.569128509007 0 -121167.54384790786 0 0
          -70594.71213072262 -29376.815508303094 0 -7337.001147459676 0 0
          42783.565856710906 -22164.924583741697 0 11677.135634024533 0 0
          -23167.11816599286 -2854.286899106705 0 13550.024348979276 0 0
          10206.184253152256 -10554.104902701372 0 -6702.2873093887865 0 0
          -35021.31665005229 -3940.111517662057 0 9292.310456188266 0 0
          26740.985990443416 -2155.0918612113587 0 -9171.713458878807 0 0
          -35175.85815730528 -3998.0844701945152 0 11302.64544047934 0 0
          27873.743705565434 -4079.666616135278 0 -8407.002534335574 0 0
          30066.13335917353 -2947.518073709549 0 -10326.797537739956 0 0
          <InformationKey name="L2_NORM_RANGE" location="vtkDataArray" length="2">
            <Value index="0">
              16139.268338
            </Value>
            <Value index="1">
              270470.97129
            </Value>
          </InformationKey>
        </DataArray>
        <DataArray type="Float64" Name="Gauss Strain" NumberOfComponents="6" format="ascii" RangeMin="0.001729028734978684" RangeMax="0.02334074138329078">
          0.004007183642951834 0.00019667909217328371 0 0.006701027178060152 0 0
          -0.017320311109090412 0.008732614615001045 0 -0.01298223684084727 0 0
          -0.003993307455469363 0.0004228957540755861 0 -0.000786107265799251 0 0
          0.0038475734391844115 -0.0031111933937212253 0 0.0012511216750740574 0 0
          -0.001552855336888536 0.0006235194417064084 0 0.0014517883231049225 0 0
          0.001105945478893067 -0.0011183712163769643 0 -0.0007181022117202275 0 0
          -0.002360804349372947 0.000969324771954577 0 0.0009956046917344568 0 0
          0.0019870379943606503 -0.0011089703468880761 0 -0.0009826835848798722 0 0
          -0.002369772565872003 0.0009707031863184377 0 0.0012109977257656437 0 0
          0.0021366840724023626 -0.0012868956049227138 0 -0.0009007502715359537 0 0
          0.0022528494568591646 -0.001284327482378308 0 -0.0011064425933292807 0 0
          <InformationKey name="L2_NORM_RANGE" location="vtkDataArray" length="2">
            <Value index="0">
              0.001729028735
            </Value>
            <Value index="1">
              0.023340741383
            </Value>
          </InformationKey>
        </DataArray>
      </CellData>
      <Points>
        <DataArray type="Float32" Name="Points" NumberOfComponents="3" format="ascii" RangeMin="0" RangeMax="0.6020797527609908">
          0 0.05000000074505806 0 0 0 0
          0.10000000149011612 0.05000000074505806 0 0.10000000149011612 0 0
          0.20000000298023224 0.05000000074505806 0 0.20000000298023224 0 0
          0.30000001192092896 0.05000000074505806 0 0.30000001192092896 0 0
          0.4000000059604645 0.05000000074505806 0 0.4000000059604645 0 0
          0.5 0.05000000074505806 0 0.5 0 0
          0.6000000238418579 0.05000000074505806 0
          <InformationKey name="L2_NORM_RANGE" location="vtkDataArray" length="2">
            <Value index="0">
              0
            </Value>
            <Value index="1">
              0.60207975276
            </Value>
          </InformationKey>
        </DataArray>
      </Points>
      <Cells>
        <DataArray type="Int64" Name="connectivity" format="ascii" RangeMin="0" RangeMax="12">
          3 2 1 2 0 1
          5 4 3 4 2 3
          7 6 5 6 4 5
          9 8 7 8 6 7
          11 10 9 10 8 9
          12 10 11
        </DataArray>
        <DataArray type="Int64" Name="offsets" format="ascii" RangeMin="3" RangeMax="33">
          3 6 9 12 15 18
          21 24 27 30 33
        </DataArray>
        <DataArray type="UInt8" Name="types" format="ascii" RangeMin="5" RangeMax="5">
          5 5 5 5 5 5
          5 5 5 5 5
        </DataArray>
      </Cells>
    </Piece>
  </UnstructuredGrid>
</VTKFile>
