<?xml version="1.0"?>
<VTKFile type="UnstructuredGrid" version="0.1" byte_order="LittleEndian" header_type="UInt32" compressor="vtkZLibDataCompressor">
  <UnstructuredGrid>
    <Piece NumberOfPoints="13" NumberOfCells="11">
      <PointData>
        <DataArray type="Float64" Name="Disp" NumberOfComponents="3" format="ascii" RangeMin="0.04036209490084033" RangeMax="0.13880942938352175">
          -0.004549789542643063 -0.057112887466861814 0 0.003853076974730431 -0.07388763963806363 0
          -0.004434354709039549 -0.07389477571812864 0 0.0037812242365146513 -0.09028628529134804 0
          -0.004339509133631132 -0.0902765656565804 0 0.0037516926838084275 -0.1064365663802769 0
          -0.004307430576563663 -0.10642672388194727 0 0.003769715874419931 -0.1225605507557005 0
          -0.004310677409783664 -0.12256059781391608 0 0.003775368307630881 -0.1387437046934112 0
          -0.004318699757296097 -0.13874223047862985 0 0.003935260878794864 -0.05707248030099168 0
          -0.004456717163113983 -0.04011528856823102 0
          <InformationKey name="L2_NORM_RANGE" location="vtkDataArray" length="2">
            <Value index="0">
              0.040362094901
            </Value>
            <Value index="1">
              0.13880942938
            </Value>
          </InformationKey>
        </DataArray>
        <DataArray type="Float64" Name="Nodal Stress" NumberOfComponents="6" format="ascii" RangeMin="535.1049591956713" RangeMax="29524.790598768992">
          1865.5431521343019 12548.434555872209 0 -3272.87484518413 0 0
          7512.689297318197 5352.667861320368 0 -430.12249171070044 0 0
          1977.682991045144 1846.9899674398032 0 -1789.3345180629879 0 0
          -719.2977529372642 -741.0614162193314 0 1341.3749277090787 0 0
          1011.8438634200553 -1644.4719805588636 0 -496.504141324015 0 0
          -1946.673522981698 -2219.809892590051 0 1148.5327148065367 0 0
          151.4726951317498 -2007.9606543446114 0 259.8588190260739 0 0
          -694.1555946343489 -939.8052061115507 0 248.41059404530122 0 0
          333.6253163907652 -290.3301590414739 0 301.2305833907231 0 0
          448.0942985900718 228.49253809966453 0 -246.4671976290925 0 0
          591.3070914622663 223.57144026943567 0 -21.73668047007483 0 0
          23311.93715584815 16923.030947224528 0 -6471.311266059238 0 0
          -6812.048957513396 21093.218283444883 0 -538.9980026013528 0 0
          <InformationKey name="L2_NORM_RANGE" location="vtkDataArray" length="2">
            <Value index="0">
              535.1049592
            </Value>
            <Value index="1">
              29524.790599
            </Value>
          </InformationKey>
        </DataArray>
        <DataArray type="Float64" Name="Nodal Strain" NumberOfComponents="6" format="ascii" RangeMin="0.000034714554883055865" RangeMax="0.002145462195497757">
          -0.0003149052947001286 0.0008296902128432185 0 -0.00035066516198401393 0 0
          0.0003454539547612867 0.00011402308661866213 0 -0.000046084552683289306 0 0
          0.00007529914338037445 0.00006129631942265942 0 -0.00019171441264960584 0 0
          -0.000024911931773399905 -0.000027243752839335675 0 0.00014371874225454416 0 0
          0.00013100570383567763 -0.00015359956516206364 0 -0.0000531968722847159 0 0
          -0.00005976918404904807 -0.00008903379507851445 0 0.00012305707658641463 0 0
          0.00008253235873600397 -0.00014883550013646332 0 0.000027842016324222202 0 0
          -0.00001601807082704098 -0.00004233767205674116 0 0.000026615420790567987 0 0
          0.00003419931399367873 -0.00003265305837406118 0 0.00003227470536329176 0 0
          0.000023846287824302832 3.1752777175919116e-7 0 -0.000026407199745974203 0 0
          0.00003425152652339633 -0.000005148721818692674 0 -0.0000023289300503651587 0 0
          0.001060744405873992 0.00037621874066431855 0 -0.000693354778506347 0 0
          -0.001239904149945417 0.0017499459115858274 0 -0.00005774978599300215 0 0
          <InformationKey name="L2_NORM_RANGE" location="vtkDataArray" length="2">
            <Value index="0">
              3.4714554883e-05
            </Value>
            <Value index="1">
              0.0021454621955
            </Value>
          </InformationKey>
        </DataArray>
        <DataArray type="Float64" Name="Sld_traction" NumberOfComponents="3" format="ascii" RangeMin="169.2990941978081" RangeMax="24291.962135208254">
          2285.739459547671 -13264.522182608129 0 1328.895787743346 4665.123439686453 0
          4553.672271400211 -2848.861903619468 0 3736.1909848066043 -856.0750178007387 0
          2375.834574671154 1391.9455579512567 0 2280.791863424059 -2105.2814165124673 0
          256.2705057001382 2052.1929055660453 0 211.10075735268097 -744.1719414720268 0
          -617.995803660511 529.2798066410514 0 -181.4541766870278 -59.22913189827747 0
          16.895924325122472 -168.4538840080514 0 -11731.594859756833 15823.848159800162 0
          -8233.843369911487 -22853.954750505574 0
          <InformationKey name="L2_NORM_RANGE" location="vtkDataArray" length="2">
            <Value index="0">
              169.2990942
            </Value>
            <Value index="1">
              24291.962135
            </Value>
          </InformationKey>
        </DataArray>
        <DataArray type="Float64" Name="Velocity" NumberOfComponents="3" format="ascii" RangeMin="6.56377907658704" RangeMax="11.34058895149688">
          -0.10438339919847943 -6.562949022521323 0 0.14688221389116868 -7.103233761460542 0
          -0.336197175038481 -7.1493289616726425 0 0.12809331178593716 -8.23750742354889 0
          -0.40045966632829866 -8.2504519852164 0 0.0954727855462229 -9.182370695124515 0
          -0.3444986911860949 -9.144006038850375 0 0.17775090184051506 -10.143198140417914 0
          -0.3699788799348874 -10.133392949588094 0 0.2150145757123451 -11.280531914232613 0
          -0.39480808909243126 -11.333714498768721 0 -0.10568010171101674 -6.6163672888542475 0
          -0.09559275846198168 -6.831984690262902 0
          <InformationKey name="L2_NORM_RANGE" location="vtkDataArray" length="2">
            <Value index="0">
              6.5637790766
            </Value>
            <Value index="1">
              11.340588951
            </Value>
          </InformationKey>
        </DataArray>
        <DataArray type="Float64" Name="Acceleration" NumberOfComponents="3" format="ascii" RangeMin="107.67515862440196" RangeMax="3995.9420376248004">
          -420.7843233106802 3721.9978146521953 0 384.8040356803317 1334.491055210944 0
          -552.5035768034362 1325.5355418787458 0 43.38557973246844 324.34590131214554 0
          -332.21841851705744 289.10748677459287 0 349.2996636702113 -435.27114437760383 0
          -105.70809946567874 -20.487495994979326 0 -221.89167888434804 -1537.852354442226 0
          183.66493233180654 -591.3006200814903 0 -238.29947717406526 2052.5939669173276 0
          -562.3150720844867 -906.8092947025007 0 443.5259345695073 3971.2513787748676 0
          485.3692285804134 3734.0368613232167 0
          <InformationKey name="L2_NORM_RANGE" location="vtkDataArray" length="2">
            <Value index="0">
              107.67515862
            </Value>
            <Value index="1">
              3995.9420376
            </Value>
          </InformationKey>
        </DataArray>
        <DataArray type="Float64" Name="Sigma" NumberOfComponents="6" format="ascii" RangeMin="849.9913977382049" RangeMax="58290.511605061096">
          -1138.4856273747137 22031.20725837304 0 -5431.3207063895425 0 0
          13057.727290805167 5321.414727785667 0 3753.6577998682988 0 0
          3770.8021839955763 2094.536286976626 0 -4889.759406972993 0 0
          -4658.984409249177 -1139.145212113719 0 4061.1113129274017 0 0
          3416.029284503682 -2831.437770626373 0 -2331.675294119752 0 0
          -5305.617998206879 -3102.0386730869222 0 2419.042857261722 0 0
          613.3028397013259 -3548.256104757247 0 -38.546864574926076 0 0
          -2320.0793833186726 -1520.9789672968473 0 -52.53156142993794 0 0
          -294.6073658244841 -996.3463199428879 0 948.2397182186282 0 0
          838.5596585282656 619.1782967048894 0 -942.3120674258844 0 0
          721.6391457920829 446.72800137731156 0 -46.43718633652156 0 0
          51320.88638000097 25311.811351550954 0 -11102.367785940525 0 0
          -28317.0722997536 30026.508310572724 0 12900.605475245142 0 0
          <InformationKey name="L2_NORM_RANGE" location="vtkDataArray" length="2">
            <Value index="0">
              849.99139774
            </Value>
            <Value index="1">
              58290.511605
            </Value>
          </InformationKey>
        </DataArray>
        <DataArray type="Float64" Name="Press" format="ascii" RangeMin="-8763.913692104117" RangeMax="1110.9344348629493">
          -7732.241981623682 -2628.4205258549046 -965.8589167939072 -147.17226621934867 1110.9344348629493 417.864277684002
          949.9187299206878 912.3055281667931 797.0417216562782 34.65820638608602 -226.851073240623 -6806.730042822212
          -8763.913692104117
        </DataArray>
        <DataArray type="Float64" Name="Dev strain" NumberOfComponents="6" format="ascii" RangeMin="0.000031264223195861435" RangeMax="0.002273506200536326">
          -0.00009171027792633595 0.001052885229617011 0 -0.00035066516198401393 0 0
          0.00046486058351428137 0.00023342971537165664 0 -0.000046084552683289306 0 0
          0.0001287742821651146 0.00011477145820739957 0 -0.00019171441264960584 0 0
          -0.000016568363888432903 -0.000018900184954368687 0 0.00014371874225454416 0 0
          0.00010960376798676755 -0.00017500150101097374 0 -0.0000531968722847159 0 0
          -0.00008177521160148476 -0.00011103982263095117 0 0.00012305707658641463 0 0
          0.00005197334639152495 -0.00017939451248094235 0 0.000027842016324222202 0 0
          -0.000044054608196757594 -0.00007037420942645778 0 0.000026615420790567987 0 0
          0.000012177750137358804 -0.0000546746222303811 0 0.00003227470536329176 0 0
          0.00001305088280741412 -0.000010477877245129518 0 -0.000026407199745974203 0 0
          0.00003087654633088634 -0.000008523702011202658 0 -0.0000023289300503651587 0 0
          0.0012936813877662515 0.0006091557225565782 0 -0.000693354778506347 0 0
          -0.0009050548285703885 0.002084795232960856 0 -0.00005774978599300215 0 0
          <InformationKey name="L2_NORM_RANGE" location="vtkDataArray" length="2">
            <Value index="0">
              3.1264223196e-05
            </Value>
            <Value index="1">
              0.0022735062005
            </Value>
          </InformationKey>
        </DataArray>
        <DataArray type="Float64" Name="J2 Stresses" format="ascii" RangeMin="360703.5850457604" RangeMax="1668076228.9763086">
          250709932.54647785 102933335.07269418 15280452.448664038 15625050.043950982 11202325.380060297 20349055.22242906
          6483502.344258531 3848762.5731664347 764539.3854327243 765270.0401148157 360703.5850457604 1668076228.9763086
          893330297.8841639
        </DataArray>
      </PointData>
      <CellData>
        <DataArray type="UInt8" Name="vtkGhostType" format="ascii" RangeMin="0" RangeMax="1">
          1 1 0 0 0 0
          0 0 0 0 0
        </DataArray>
        <DataArray type="Float64" Name="Gauss Stress" NumberOfComponents="6" format="ascii" RangeMin="54.73505527930026" RangeMax="19849.618090317705">
          -479.18575455911923 18022.213734648903 0 -1211.0276723616425 0 0
          15357.578497710208 11832.346929136285 0 -4260.010230820588 0 0
          1454.5074743845134 6040.212282954279 0 -2189.140771164746 0 0
          841.9167703665926 -626.0478146379244 0 -1053.4411293884482 0 0
          2809.3644522278014 845.1180312601376 0 975.003235274236 0 0
          400.8105228219224 -2334.3383686676343 0 16.27356618901456 0 0
          -1722.3155588749246 -1896.9984031664708 0 1382.8262920231243 0 0
          219.29402343397612 -1135.4384707510742 0 285.7204307379215 0 0
          -1577.435335350914 -1963.7284031231777 0 775.9881437522859 0 0
          623.4800977658684 224.80294431368475 0 -13.503178514592605 0 0
          -10.707211468577867 -51.38051144189602 0 -15.534636879064863 0 0
          <InformationKey name="L2_NORM_RANGE" location="vtkDataArray" length="2">
            <Value index="0">
              54.735055279
            </Value>
            <Value index="1">
              19849.61809
            </Value>
          </InformationKey>
        </DataArray>
        <DataArray type="Float64" Name="Gauss Strain" NumberOfComponents="6" format="ascii" RangeMin="0.0000038372162434181065" RangeMax="0.0014757548359674011">
          -0.0006778780444202546 0.0013044147579948904 0 -0.0001297529648958903 0 0
          0.000674386073795862 0.0002966826914486561 0 -0.00045642966758792017 0 0
          -0.00011182847622090181 0.00037949703898300174 0 -0.00023455079691050848 0 0
          0.0000824957626918253 -0.00007478615713008718 0 -0.00011286869243447656 0 0
          0.00017048610261412376 -0.00003996887106098307 0 0.00010446463235081098 0 0
          0.00011199855051112426 -0.00018105311643418546 0 0.0000017435963773944222 0 0
          -0.000055272596949406365 -0.0000739886159806435 0 0.00014815995985962045 0 0
          0.000056215232772108076 -0.00008893467731914729 0 0.00003061290329334873 0 0
          -0.00004254079527066614 -0.00008392933824626576 0 0.00008314158683060207 0 0
          0.00003650561611493045 -0.000006209793183517819 0 -0.0000014467691265634966 0 0
          0.0000010702174465978743 -0.0000032876361219719404 0 -0.0000016644253798997984 0 0
          <InformationKey name="L2_NORM_RANGE" location="vtkDataArray" length="2">
            <Value index="0">
              3.8372162434e-06
            </Value>
            <Value index="1">
              0.001475754836
            </Value>
          </InformationKey>
        </DataArray>
      </CellData>
      <Points>
        <DataArray type="Float32" Name="Points" NumberOfComponents="3" format="ascii" RangeMin="0.4000000059604645" RangeMax="1.0012492197622458">
          0.5 0 0 0.6000000238418579 0.05000000074505806 0
          0.6000000238418579 0 0 0.699999988079071 0.05000000074505806 0
          0.699999988079071 0 0 0.800000011920929 0.05000000074505806 0
          0.800000011920929 0 0 0.8999999761581421 0.05000000074505806 0
          0.8999999761581421 0 0 1 0.05000000074505806 0
          1 0 0 0.5 0.05000000074505806 0
          0.4000000059604645 0 0
          <InformationKey name="L2_NORM_RANGE" location="vtkDataArray" length="2">
            <Value index="0">
              0.40000000596
            </Value>
            <Value index="1">
              1.0012492198
            </Value>
          </InformationKey>
        </DataArray>
      </Points>
      <Cells>
        <DataArray type="Int64" Name="connectivity" format="ascii" RangeMin="0" RangeMax="12">
          0 11 12 1 11 0
          2 1 0 4 3 2
          3 1 2 6 5 4
          5 3 4 8 7 6
          7 5 6 10 9 8
          9 7 8
        </DataArray>
        <DataArray type="Int64" Name="offsets" format="ascii" RangeMin="3" RangeMax="33">
          3 6 9 12 15 18
          21 24 27 30 33
        </DataArray>
        <DataArray type="UInt8" Name="types" format="ascii" RangeMin="5" RangeMax="5">
          5 5 5 5 5 5
          5 5 5 5 5
        </DataArray>
      </Cells>
    </Piece>
  </UnstructuredGrid>
</VTKFile>
