<?xml version="1.0"?>
<VTKFile type="UnstructuredGrid" version="0.1" byte_order="LittleEndian" header_type="UInt32" compressor="vtkZLibDataCompressor">
  <UnstructuredGrid>
    <Piece NumberOfPoints="13" NumberOfCells="11">
      <PointData>
        <DataArray type="Float64" Name="Disp" NumberOfComponents="3" format="ascii" RangeMin="0" RangeMax="0.0014413347226850076">
          0 0 0 0 0 0
          -0.0000023692703088222587 0.0000022716502199136976 0 0.00000854636680472831 -0.0000030245003801269987 0
          -0.00004510443115911711 0.0000833327106284738 0 0.00004348439388212428 0.00007730559295319626 0
          -0.00010998127014934678 0.0003863174717604993 0 0.00010399246223937939 0.00039562574183155466 0
          -0.00014669451913910296 0.0009097749775927068 0 0.00012846074378632284 0.0009328521310270343 0
          -0.00007578949887900336 0.001401733551731947 0 0.00005732671026960866 0.0014401942338126243 0
          0.00017259226347514497 0.0012861600404066517 0
          <InformationKey name="L2_NORM_RANGE" location="vtkDataArray" length="2">
            <Value index="0">
              0
            </Value>
            <Value index="1">
              0.0014413347227
            </Value>
          </InformationKey>
        </DataArray>
        <DataArray type="Float64" Name="Nodal Stress" NumberOfComponents="6" format="ascii" RangeMin="1971.5587915430394" RangeMax="30471.54120835942">
          27327.303986951913 -129.84529130771557 0 13480.223314833976 0 0
          2007.591533841607 -5338.187174609801 0 -1064.1813181153293 0 0
          -2674.8475250209367 -616.7738471247482 0 -1107.8025450018233 0 0
          1716.6260774441596 1741.5452181546225 0 -769.0365325188991 0 0
          64.26357579774039 1843.2787440337431 0 696.5900753884773 0 0
          1853.6401840333049 799.1520095962896 0 -832.0092838892276 0 0
          -1607.7748866624406 -669.9354431373929 0 1063.7622479996214 0 0
          -1098.0907730897954 -1732.4847831759319 0 -86.41988524073548 0 0
          -895.3534929940273 -3879.4018472366706 0 1703.5705564406965 0 0
          -6304.390501252798 -5420.764990983848 0 1641.2801638305784 0 0
          1365.827739343894 -7787.118841671529 0 1382.5876697971723 0 0
          -13365.195787358502 -9031.998218623768 0 4410.349648359197 0 0
          5951.815390056661 -9900.08709107724 0 -718.7303772981123 0 0
          <InformationKey name="L2_NORM_RANGE" location="vtkDataArray" length="2">
            <Value index="0">
              1971.5587915
            </Value>
            <Value index="1">
              30471.541208
            </Value>
          </InformationKey>
        </DataArray>
        <DataArray type="Float64" Name="Nodal Strain" NumberOfComponents="6" format="ascii" RangeMin="0.00008663453527856179" RangeMax="0.0026239250409544846">
          0.001956587616614698 -0.0009852498060559766 0 0.001444309640875069 0 0
          0.00033404893722475065 -0.00045299878153790045 0 -0.0001140194269409281 0 0
          -0.00016903290010418303 0.00005147499395612284 0 -0.0001186931298216239 0 0
          0.00006041810488334633 0.00006308801281661019 0 -0.0000823967713413106 0 0
          -0.00006124112830136653 0.00012936763972391953 0 0.00007463465093447972 0 0
          0.00010386172708822575 -0.00000911914874431163 0 -0.00008914385184527438 0 0
          -0.00009091479750669603 0.000009568000013844808 0 0.00011397452657138802 0 0
          -0.00001656059867870213 -0.00008453138547364532 0 -0.00000925927341865023 0 0
          0.00007459624504459341 -0.0002451232214814041 0 0.0001825254167615032 0 0
          -0.0002567148575543481 -0.00016204069573981793 0 0.00017585144612470484 0 0
          0.0003756705114414042 -0.000605002336524534 0 0.00014813439319255416 0 0
          -0.0006320854770033299 -0.00016781430892460843 0 0.0004725374623241998 0 0
          0.0007787042096853773 -0.000919713913293255 0 -0.00007700682613908347 0 0
          <InformationKey name="L2_NORM_RANGE" location="vtkDataArray" length="2">
            <Value index="0">
              8.6634535279e-05
            </Value>
            <Value index="1">
              0.002623925041
            </Value>
          </InformationKey>
        </DataArray>
        <DataArray type="Float64" Name="Sld_traction" NumberOfComponents="3" format="ascii" RangeMin="1392.6020833929058" RangeMax="12089.695702958723">
          -347.8231444469959 -3760.3930963289517 0 -2810.296793279552 2956.893337054208 0
          1969.0111494119835 1583.0642351605848 0 852.3512252356153 -1101.2892224613875 0
          1168.2302166941677 1207.758341125705 0 2343.719121056664 -1026.0503779719902 0
          2898.3882521109817 -911.4821110359005 0 1585.5580926677908 1438.8070037452355 0
          2610.4139457441693 -4345.082174868809 0 -1766.6459593099241 4983.18401187373 0
          -401.78337274110265 -8123.366156024529 0 -8346.522027683664 8620.278194695904 0
          -7395.667966622181 -9563.7250858448 0
          <InformationKey name="L2_NORM_RANGE" location="vtkDataArray" length="2">
            <Value index="0">
              1392.6020834
            </Value>
            <Value index="1">
              12089.695703
            </Value>
          </InformationKey>
        </DataArray>
        <DataArray type="Float64" Name="Velocity" NumberOfComponents="3" format="ascii" RangeMin="0" RangeMax="1.46807441820297">
          0 0 0 0 0 0
          -0.007864219561792906 0.02469700957651185 0 0.026651297271549974 0.02187887571311002 0
          -0.06511329991640064 0.18722389752117397 0 0.0792648140942355 0.185963221951471 0
          -0.12359484900131226 0.6213191796304862 0 0.1469805756580383 0.6413089058838333 0
          -0.10623565476225708 1.1934421530952548 0 0.13116357447075408 1.2253372688875166 0
          0.06886982978175901 1.4373844971628942 0 -0.024788302827750276 1.467865129167155 0
          0.3883249915103718 0.6863130502411248 0
          <InformationKey name="L2_NORM_RANGE" location="vtkDataArray" length="2">
            <Value index="0">
              0
            </Value>
            <Value index="1">
              1.4680744182
            </Value>
          </InformationKey>
        </DataArray>
        <DataArray type="Float64" Name="Acceleration" NumberOfComponents="3" format="ascii" RangeMin="0" RangeMax="1350.700280502289">
          0 0 0 0 0 0
          -23.887293346821657 78.87954864157663 0 59.82589964498948 81.28256163818065 0
          -95.32955917913952 383.5308863443625 0 124.73784878915504 392.7458388601531 0
          -103.52206705706298 934.3048600208708 0 167.89985070055775 966.9303944569854 0
          28.110263196190175 1318.1708078650188 0 35.28219471517214 1350.239391546937 0
          363.6473843973161 793.4147799579512 0 -233.42802108355932 771.8732812580366 0
          523.007053161854 -970.1421180850207 0
          <InformationKey name="L2_NORM_RANGE" location="vtkDataArray" length="2">
            <Value index="0">
              0
            </Value>
            <Value index="1">
              1350.7002805
            </Value>
          </InformationKey>
        </DataArray>
        <DataArray type="Float64" Name="Sigma" NumberOfComponents="6" format="ascii" RangeMin="3245.0027329398126" RangeMax="75972.01080307981">
          67528.57140686177 7358.1607629834325 0 34021.99199632113 0 0
          -5472.139623003342 -12764.347635042766 0 -7929.251544845261 0 0
          -16458.19951100729 1346.232675750296 0 -6193.8391884610755 0 0
          10857.309725371597 5821.458376281182 0 1569.2420150594335 0 0
          105.76821892866428 2802.5885992754484 0 2567.431653995096 0 0
          3849.107425116672 652.9480860154072 0 -3461.8238668061676 0 0
          -5165.9963743052795 -1339.1474479281715 0 2933.4938726456967 0 0
          -1021.988094316519 -2510.377417310483 0 -1784.261274174747 0 0
          -1225.320737691014 -6260.06402980941 0 3088.9223680880095 0 0
          -14281.623585746056 -7352.067698232064 0 1085.5204074984103 0 0
          7521.727179503316 -12787.575374115198 0 373.30032946727806 0 0
          -32962.94394568817 -11760.292133076946 0 8042.055400040654 0 0
          22525.57109988796 -16683.644658718047 0 -6992.823922403739 0 0
          <InformationKey name="L2_NORM_RANGE" location="vtkDataArray" length="2">
            <Value index="0">
              3245.0027329
            </Value>
            <Value index="1">
              75972.010803
            </Value>
          </InformationKey>
        </DataArray>
        <DataArray type="Float64" Name="Press" format="ascii" RangeMin="-1063.2824495703935" RangeMax="5744.983566100375">
          -931.8372308642756 -890.6308206063113 -1063.2824495703935 -899.2659350422509 -862.327625150705 -79.00406055373514
          541.7033720035238 1448.7111420568035 2040.686693167856 2391.946751313695 4392.035747393211 2763.3381247617135
          5744.983566100375
        </DataArray>
        <DataArray type="Float64" Name="Dev strain" NumberOfComponents="6" format="ascii" RangeMin="0.0001383539316541942" RangeMax="0.00263695346011784">
          0.001990673221363852 -0.0009511642013068222 0 0.001444309640875069 0 0
          0.00036762122002596744 -0.00041942649873668366 0 -0.0001140194269409281 0 0
          -0.00013405178979247336 0.00008645610426783261 0 -0.0001186931298216239 0 0
          0.00009082420798113131 0.00009349411591439517 0 -0.0000823967713413106 0 0
          -0.000038467066338083555 0.0001521417016872025 0 0.00007463465093447972 0 0
          0.00010554573798882761 -0.000007435137843709778 0 -0.00008914385184527438 0 0
          -0.00011224811138480447 -0.000011765313864263621 0 0.00011397452657138802 0 0
          -0.00006468556794490317 -0.00013265635473984634 0 -0.00000925927341865023 0 0
          6.106049697574731e-7 -0.00031910886155624006 0 0.0001825254167615032 0 0
          -0.00035025406783953513 -0.00025557990602500494 0 0.00017585144612470484 0 0
          0.0002433834444896829 -0.0007372894034762552 0 0.00014813439319255416 0 0
          -0.0007523076820157229 -0.00028803651393700144 0 0.0004725374623241998 0 0
          0.0006232508589772866 -0.0010751672640013457 0 -0.00007700682613908347 0 0
          <InformationKey name="L2_NORM_RANGE" location="vtkDataArray" length="2">
            <Value index="0">
              0.00013835393165
            </Value>
            <Value index="1">
              0.0026369534601
            </Value>
          </InformationKey>
        </DataArray>
        <DataArray type="Float64" Name="J2 Stresses" format="ascii" RangeMin="4469124.2947635045" RangeMax="2596499227.882203">
          2596499227.882203 112154698.81629024 145933247.75381827 76500906.17516844 5580771.210946031 10617040.707756944
          16391763.788526377 4469124.2947635045 22730266.632783256 129303424.48093657 110084070.13977325 628598736.0752767
          405097572.83967495
        </DataArray>
      </PointData>
      <CellData>
        <DataArray type="UInt8" Name="vtkGhostType" format="ascii" RangeMin="0" RangeMax="0">
          0 0 0 0 0 0
          0 0 0 0 0
        </DataArray>
        <DataArray type="Float64" Name="Gauss Stress" NumberOfComponents="6" format="ascii" RangeMin="893.3369741655481" RangeMax="15876.485702395139">
          -4642.0695379526605 -2816.61192941008 0 -4184.616239415633 0 0
          14237.493923936716 -2315.2348991166723 0 6632.967087671595 0 0
          4323.86258289008 2478.7991469417816 0 224.9499340827865 0 0
          -2773.3325254901256 2381.801213847859 0 -685.7218398021815 0 0
          -142.48886333284463 -428.3887752388852 0 -770.8637561117392 0 0
          -536.9163479869535 572.2536412205891 0 679.7005532782089 0 0
          -3549.1959437384116 -3413.7215196045345 0 796.727167137224 0 0
          -1127.4013330282096 -2026.1625626066277 0 1412.7183221863197 0 0
          -10058.506576154097 -7450.871527318528 0 3166.958712335448 0 0
          279.8173493136719 -5858.345970093968 0 1515.9143683512323 0 0
          3328.2372573194734 -9443.71824255163 0 474.17726903472976 0 0
          <InformationKey name="L2_NORM_RANGE" location="vtkDataArray" length="2">
            <Value index="0">
              893.33697417
            </Value>
            <Value index="1">
              15876.485702
            </Value>
          </InformationKey>
        </DataArray>
        <DataArray type="Float64" Name="Gauss Strain" NumberOfComponents="6" format="ascii" RangeMin="0.00008659409645340791" RangeMax="0.001472539517896668">
          -0.00023098311237483007 -0.00003539836860241068 0 -0.00044835173993738924 0 0
          0.0010996508123925037 -0.0006738558472203593 0 0.0007106750451076709 0 0
          0.000220318786387085 0.00002263341824976728 0 0.00002410177865172714 0 0
          -0.0002831595094581468 0.00026917624832806583 0 -0.00007347019712166227 0 0
          0.000005121823163328442 -0.00002551031025517593 0 -0.00008259254529768634 0 0
          -0.00005878879775694631 0.00006005084394386185 0 0.00007282505927980811 0 0
          -0.00013159537028115326 -0.00011708025340966634 0 0.0000853636250504169 0 0
          -0.000008165717980349701 -0.00010446156400660879 0 0.0001513626773771057 0 0
          -0.0004523622008924881 -0.0001729727313743915 0 0.0003393170048930837 0 0
          0.00022921359531147538 -0.0004284467603393433 0 0.0001624193966090606 0 0
          0.000575006884185378 -0.0007934169193722407 0 0.00005080470739657824 0 0
          <InformationKey name="L2_NORM_RANGE" location="vtkDataArray" length="2">
            <Value index="0">
              8.6594096453e-05
            </Value>
            <Value index="1">
              0.0014725395179
            </Value>
          </InformationKey>
        </DataArray>
      </CellData>
      <Points>
        <DataArray type="Float32" Name="Points" NumberOfComponents="3" format="ascii" RangeMin="0" RangeMax="0.6020797527609908">
          0 0.05000000074505806 0 0 0 0
          0.10000000149011612 0.05000000074505806 0 0.10000000149011612 0 0
          0.20000000298023224 0.05000000074505806 0 0.20000000298023224 0 0
          0.30000001192092896 0.05000000074505806 0 0.30000001192092896 0 0
          0.4000000059604645 0.05000000074505806 0 0.4000000059604645 0 0
          0.5 0.05000000074505806 0 0.5 0 0
          0.6000000238418579 0.05000000074505806 0
          <InformationKey name="L2_NORM_RANGE" location="vtkDataArray" length="2">
            <Value index="0">
              0
            </Value>
            <Value index="1">
              0.60207975276
            </Value>
          </InformationKey>
        </DataArray>
      </Points>
      <Cells>
        <DataArray type="Int64" Name="connectivity" format="ascii" RangeMin="0" RangeMax="12">
          3 2 1 2 0 1
          5 4 3 4 2 3
          7 6 5 6 4 5
          9 8 7 8 6 7
          11 10 9 10 8 9
          12 10 11
        </DataArray>
        <DataArray type="Int64" Name="offsets" format="ascii" RangeMin="3" RangeMax="33">
          3 6 9 12 15 18
          21 24 27 30 33
        </DataArray>
        <DataArray type="UInt8" Name="types" format="ascii" RangeMin="5" RangeMax="5">
          5 5 5 5 5 5
          5 5 5 5 5
        </DataArray>
      </Cells>
    </Piece>
  </UnstructuredGrid>
</VTKFile>
