<?xml version="1.0"?>
<VTKFile type="UnstructuredGrid" version="0.1" byte_order="LittleEndian" header_type="UInt32" compressor="vtkZLibDataCompressor">
  <UnstructuredGrid>
    <Piece NumberOfPoints="13" NumberOfCells="11">
      <PointData>
        <DataArray type="Float64" Name="Disp" NumberOfComponents="3" format="ascii" RangeMin="0.005544345653628675" RangeMax="0.09052113366041957">
          -0.0019699021954898716 -0.011550823136053677 0 0.0027947952976442878 -0.021034802846679312 0
          -0.0028676405825685146 -0.021024926734836878 0 0.003742861716070828 -0.034254200696280525 0
          -0.0037780205505070054 -0.03429643460365356 0 0.004477587727209122 -0.050945559291298376 0
          -0.004564130061546148 -0.05098961987225022 0 0.005005352669879995 -0.07019212612291129 0
          -0.004979983029917294 -0.07032417969382358 0 0.004997294944576204 -0.09038308847569029 0
          -0.004991033523685296 -0.09036941706776803 0 0.001894025003350586 -0.011585380571772434 0
          -0.0012322969357904533 -0.005405664897952207 0
          <InformationKey name="L2_NORM_RANGE" location="vtkDataArray" length="2">
            <Value index="0">
              0.0055443456536
            </Value>
            <Value index="1">
              0.09052113366
            </Value>
          </InformationKey>
        </DataArray>
        <DataArray type="Float64" Name="Nodal Stress" NumberOfComponents="6" format="ascii" RangeMin="10562.037095588132" RangeMax="43660.30825850569">
          -40493.53591066872 -8659.930831905256 0 13838.412649785389 0 0
          34949.7160087776 -5228.5906645874065 0 -12024.47517680038 0 0
          -39051.871542645014 -2036.9571668975336 0 13845.588955223913 0 0
          39617.13999591582 4553.867808534204 0 -15352.641413873314 0 0
          -31224.345848236106 7592.026655313945 0 10625.994479757575 0 0
          38608.65094585289 11555.23334993629 0 -15616.96556520358 0 0
          -17830.63084254548 14939.671505386523 0 5929.976532676095 0 0
          35181.27527255919 22372.00237531707 0 -12819.573701385154 0 0
          -3773.2020438340282 21643.29564634438 0 470.32544137066424 0 0
          25944.90512389429 17282.071078248842 0 -8308.302020259474 0 0
          -3246.304465346311 9599.310155009069 0 -2978.4861045155367 0 0
          28670.484330910316 -9422.581898388671 0 -8194.867035685586 0 0
          -35495.76861048934 -9668.478378376058 0 11892.931828262004 0 0
          <InformationKey name="L2_NORM_RANGE" location="vtkDataArray" length="2">
            <Value index="0">
              10562.037096
            </Value>
            <Value index="1">
              43660.308259
            </Value>
          </InformationKey>
        </DataArray>
        <DataArray type="Float64" Name="Nodal Strain" NumberOfComponents="6" format="ascii" RangeMin="0.0010366786909636208" RangeMax="0.003389528093750377">
          -0.0025831121781940067 0.0008276312231020784 0 0.0014826870696198627 0 0
          0.0026831436672193794 -0.0016216749049268715 0 -0.0012883366260857552 0 0
          -0.0027166709256568754 0.0012492127574589267 0 0.0014834559594882767 0 0
          0.002667157577974909 -0.0010896215849588362 0 -0.001644925865772141 0 0
          -0.0025014542268495055 0.0016574428271022854 0 0.0011384994085454545 0 0
          0.0023450738764917677 -0.0005535065802135824 0 -0.0016732463105575263 0 0
          -0.0018071761853741956 0.0017039276376185186 0 0.0006353546285010103 0 0
          0.0017139481489214766 0.0003415260527883913 0 -0.0013735257537198379 0 0
          -0.00104248927621473 0.0016807069048758142 0 0.000050392011575428355 0 0
          0.001235990684626419 0.0003078298940215503 0 -0.0008901752164563721 0 0
          -0.0005747113959179175 0.000801604456263016 0 -0.00031912351119809323 0 0
          0.0023844125200074753 -0.0016969874331317018 0 -0.0008780214681091701 0 0
          -0.002190109244378665 0.0005771004233477579 0 0.0012742426958852148 0 0
          <InformationKey name="L2_NORM_RANGE" location="vtkDataArray" length="2">
            <Value index="0">
              0.001036678691
            </Value>
            <Value index="1">
              0.0033895280938
            </Value>
          </InformationKey>
        </DataArray>
        <DataArray type="Float64" Name="Sld_traction" NumberOfComponents="3" format="ascii" RangeMin="8335.707123286282" RangeMax="43158.880557647906">
          -37647.03152922516 8965.66883681945 0 -38091.26913380414 -3964.6485701011134 0
          -41153.02368991161 3194.716354317801 0 -42800.114317716674 5553.304005698105 0
          -36911.11913522396 -6525.190403169377 0 -39340.34340516148 13068.104277180742 0
          -26220.263758361543 -13342.399289033376 0 -28700.74579063107 22596.49811400481 0
          -11481.928809857098 -20079.225726668054 0 -2286.9830708469854 8820.126010637467 0
          2343.155776984399 -7999.602130730647 0 -29543.199631252897 -9010.795699225118 0
          -30418.067430106443 9750.699831902275 0
          <InformationKey name="L2_NORM_RANGE" location="vtkDataArray" length="2">
            <Value index="0">
              8335.7071233
            </Value>
            <Value index="1">
              43158.880558
            </Value>
          </InformationKey>
        </DataArray>
        <DataArray type="Float64" Name="Velocity" NumberOfComponents="3" format="ascii" RangeMin="5.753517156183018" RangeMax="14.202787332088324">
          -0.4617328402374189 -7.460781894035927 0 0.2371636533556563 -8.844819897438857 0
          -0.4123287570907922 -8.861862442270427 0 0.14121364076880938 -10.02047822721937 0
          -0.38462368506900557 -9.994454671047036 0 0.21458645513993357 -11.101756231291118 0
          -0.43808906478794124 -11.104135312545713 0 0.30332675873860493 -12.625632848962375 0
          -0.4973484569420761 -12.660216404919154 0 0.24979788105910045 -14.200590446145082 0
          -0.48605183651400874 -14.158044975764835 0 0.2921472487910862 -7.471496689996152 0
          -0.5887424252624917 -5.723315649445553 0
          <InformationKey name="L2_NORM_RANGE" location="vtkDataArray" length="2">
            <Value index="0">
              5.7535171562
            </Value>
            <Value index="1">
              14.202787332
            </Value>
          </InformationKey>
        </DataArray>
        <DataArray type="Float64" Name="Acceleration" NumberOfComponents="3" format="ascii" RangeMin="384.4968326822128" RangeMax="3350.921966952774">
          -596.1874900122774 -1181.0773279956757 0 180.6805648691079 -3222.349452864023 0
          -227.0904311167908 -3343.218204769446 0 -526.6886706284045 -2388.8575249785563 0
          270.85471940977953 -2070.340778779101 0 128.63928539372955 -1482.517665856833 0
          362.3420043505886 -1896.1715393742797 0 -628.9054208846637 -83.8437992518102 0
          174.89390217044013 -483.2653698095405 0 -479.43525479791333 646.153289455131 0
          1101.3493240290586 2320.541393318178 0 519.1405230101923 -1038.4759794761221 0
          -88.44060611124513 374.1872172233161 0
          <InformationKey name="L2_NORM_RANGE" location="vtkDataArray" length="2">
            <Value index="0">
              384.49683268
            </Value>
            <Value index="1">
              3350.921967
            </Value>
          </InformationKey>
        </DataArray>
        <DataArray type="Float64" Name="Sigma" NumberOfComponents="6" format="ascii" RangeMin="14655.9371889646" RangeMax="120468.66888873736">
          -111698.77188420923 -6957.668417181223 0 38128.07248871082 0 0
          103179.58046297876 -13840.493889009773 0 -38708.16747828672 0 0
          -111473.66697182375 2254.331640255862 0 42707.051330186034 0 0
          111985.11195765481 1434.5867902047553 0 -44384.42119029069 0 0
          -94190.63139582507 18020.445012516197 0 37961.86433001477 0 0
          103885.75023891115 11571.55930617882 0 -40554.83366685048 0 0
          -60723.78191321272 23807.663267625496 0 26912.206161098653 0 0
          83194.44547336022 29504.061907845942 0 -29438.304573276248 0 0
          -29762.87886329533 36090.15081501124 0 11710.89357575987 0 0
          67338.39689662897 27314.664737251856 0 -13896.422783830934 0 0
          1011.5568816323093 13788.137362878333 0 -4864.207604995541 0 0
          86688.83769812917 -19718.075261084887 0 -29330.52369938726 0 0
          -96158.09952179242 -9475.483368473382 0 30662.847890321624 0 0
          <InformationKey name="L2_NORM_RANGE" location="vtkDataArray" length="2">
            <Value index="0">
              14655.937189
            </Value>
            <Value index="1">
              120468.66889
            </Value>
          </InformationKey>
        </DataArray>
        <DataArray type="Float64" Name="Press" format="ascii" RangeMin="-15602.468613451965" RangeMax="9802.565516923327">
          -3000.9612268228125 8652.054796202177 -6584.861180665333 5446.787904580509 -9907.99533278108 -588.7949583236652
          -12775.790027140247 -1907.8683309673556 -8275.697722487068 -13103.214708592493 -15602.468613451965 9802.565516923327
          -153.48153601770355
        </DataArray>
        <DataArray type="Float64" Name="Dev strain" NumberOfComponents="6" format="ascii" RangeMin="0.001314767151216229" RangeMax="0.0033505949084639618">
          -0.0026193179238744565 0.0007914254774216288 0 0.0014826870696198627 0 0
          0.002540316175005865 -0.0017645023971403855 0 -0.0012883366260857552 0 0
          -0.002644586288031784 0.0013212973950840175 0 0.0014834559594882767 0 0
          0.0026440674760747048 -0.001112711686859041 0 -0.001644925865772141 0 0
          -0.0022958213777067135 0.0018630756762450787 0 0.0011384994085454545 0 0
          0.002480078105349421 -0.00041850235135592917 0 -0.0016732463105575263 0 0
          -0.0015100578526459464 0.0020010459703467677 0 0.0006353546285010103 0 0
          0.0019140737297309257 0.0005416516335978403 0 -0.0013735257537198379 0 0
          -0.000720898171885461 0.002002298009205083 0 0.000050392011575428355 0 0
          0.001622037966875363 0.0006938771762704943 0 -0.0008901752164563721 0 0
          -0.00010521273825735047 0.001271103113923583 0 -0.00031912351119809323 0 0
          0.002173230272542285 -0.0019081696805968921 0 -0.0008780214681091701 0 0
          -0.0022965726880450604 0.0004706369796813622 0 0.0012742426958852148 0 0
          <InformationKey name="L2_NORM_RANGE" location="vtkDataArray" length="2">
            <Value index="0">
              0.0013147671512
            </Value>
            <Value index="1">
              0.0033505949085
            </Value>
          </InformationKey>
        </DataArray>
        <DataArray type="Float64" Name="J2 Stresses" format="ascii" RangeMin="101483118.5373137" RangeMax="6763855880.812837">
          6625949873.048122 5793373105.185786 6671703277.974452 6763855880.812837 4958581526.449266 5874248677.175399
          2308157970.1684017 4112556157.378201 1128450229.1264176 2688552944.704944 101483118.5373137 4166948441.8472733
          4903135004.540826
        </DataArray>
      </PointData>
      <CellData>
        <DataArray type="UInt8" Name="vtkGhostType" format="ascii" RangeMin="0" RangeMax="1">
          1 1 0 0 0 0
          0 0 0 0 0
        </DataArray>
        <DataArray type="Float64" Name="Gauss Stress" NumberOfComponents="6" format="ascii" RangeMin="13618.808702364055" RangeMax="43175.7470011503">
          -38173.30365126324 -9834.368097552227 0 13153.465559881732 0 0
          31207.768454400466 -8354.192826991062 0 -9970.206229654388 0 0
          -40308.875334780074 -6492.5327590737 0 14042.318780203386 0 0
          -34908.41833961997 3554.431611370304 0 12094.83148997004 0 0
          37068.33565630908 -879.197979477266 0 -13461.845779463798 0 0
          -24767.081129457212 10042.36242269184 0 8106.412274754317 0 0
          38876.74280473889 8658.862907458513 0 -15659.130175708808 0 0
          -10083.857127914172 22147.506636629336 0 3061.5983878607594 0 0
          37027.98682754245 16536.943721739663 0 -14360.310693009362 0 0
          535.2312901448022 13403.857290203297 0 -2349.912271022202 0 0
          32494.39424821564 23207.365566020708 0 -10541.277927115772 0 0
          <InformationKey name="L2_NORM_RANGE" location="vtkDataArray" length="2">
            <Value index="0">
              13618.808702
            </Value>
            <Value index="1">
              43175.747001
            </Value>
          </InformationKey>
        </DataArray>
        <DataArray type="Float64" Name="Gauss Strain" NumberOfComponents="6" format="ascii" RangeMin="0.001066688797334335" RangeMax="0.003343797059497772">
          -0.002375437114463366 0.0006608774091485276 0 0.0014092998814159 0 0
          0.0025274903477068575 -0.001711291218156521 0 -0.001068236381748685 0 0
          -0.0026473292110888026 0.000975850350594024 0 0.001504534155021791 0 0
          -0.002620402438950366 0.001500617198655735 0 0.00129587480249679 0 0
          0.0026791381890034086 -0.0013866689862594142 0 -0.001442340619228264 0 0
          -0.002127733024343082 0.0016018502133871748 0 0.0008685441722951054 0 0
          0.0024676650965006876 -0.0007699648924936377 0 -0.0016777639473973722 0 0
          -0.0015112578890163458 0.0019421025143276016 0 0.0003280283986993674 0 0
          0.0020542510690480455 -0.00014121783514511183 0 -0.0015386047171081453 0 0
          -0.0004404783824969176 0.000938302974652207 0 -0.0002517763147523788 0 0
          0.001492193676086093 0.0004971548887080634 0 -0.0011294226350481182 0 0
          <InformationKey name="L2_NORM_RANGE" location="vtkDataArray" length="2">
            <Value index="0">
              0.0010666887973
            </Value>
            <Value index="1">
              0.0033437970595
            </Value>
          </InformationKey>
        </DataArray>
      </CellData>
      <Points>
        <DataArray type="Float32" Name="Points" NumberOfComponents="3" format="ascii" RangeMin="0.4000000059604645" RangeMax="1.0012492197622458">
          0.5 0 0 0.6000000238418579 0.05000000074505806 0
          0.6000000238418579 0 0 0.699999988079071 0.05000000074505806 0
          0.699999988079071 0 0 0.800000011920929 0.05000000074505806 0
          0.800000011920929 0 0 0.8999999761581421 0.05000000074505806 0
          0.8999999761581421 0 0 1 0.05000000074505806 0
          1 0 0 0.5 0.05000000074505806 0
          0.4000000059604645 0 0
          <InformationKey name="L2_NORM_RANGE" location="vtkDataArray" length="2">
            <Value index="0">
              0.40000000596
            </Value>
            <Value index="1">
              1.0012492198
            </Value>
          </InformationKey>
        </DataArray>
      </Points>
      <Cells>
        <DataArray type="Int64" Name="connectivity" format="ascii" RangeMin="0" RangeMax="12">
          0 11 12 1 11 0
          2 1 0 4 3 2
          3 1 2 6 5 4
          5 3 4 8 7 6
          7 5 6 10 9 8
          9 7 8
        </DataArray>
        <DataArray type="Int64" Name="offsets" format="ascii" RangeMin="3" RangeMax="33">
          3 6 9 12 15 18
          21 24 27 30 33
        </DataArray>
        <DataArray type="UInt8" Name="types" format="ascii" RangeMin="5" RangeMax="5">
          5 5 5 5 5 5
          5 5 5 5 5
        </DataArray>
      </Cells>
    </Piece>
  </UnstructuredGrid>
</VTKFile>
