<?xml version="1.0"?>
<VTKFile type="UnstructuredGrid" version="0.1" byte_order="LittleEndian" header_type="UInt32" compressor="vtkZLibDataCompressor">
  <UnstructuredGrid>
    <Piece NumberOfPoints="13" NumberOfCells="11">
      <PointData>
        <DataArray type="Float64" Name="Disp" NumberOfComponents="3" format="ascii" RangeMin="0.04291838115710903" RangeMax="0.1893457092843771">
          -0.006381997361700333 -0.06579834288552826 0 0.006069736738134227 -0.09083886695929122 0
          -0.006625818533936555 -0.09091607785048372 0 0.006012849988724256 -0.11626529773734773 0
          -0.006564139343427977 -0.11629703733470728 0 0.005849075982852638 -0.1411104004383238 0
          -0.006384397513225847 -0.1411103886186563 0 0.005727773442388905 -0.1652870892297489 0
          -0.006271278891976397 -0.16526128207846108 0 0.005733723959077312 -0.1892468954768199 0
          -0.006262177022188632 -0.18924212734839624 0 0.005812197878503498 -0.0656894763003978 0
          -0.00563095083836224 -0.042547383395490246 0
          <InformationKey name="L2_NORM_RANGE" location="vtkDataArray" length="2">
            <Value index="0">
              0.042918381157
            </Value>
            <Value index="1">
              0.18934570928
            </Value>
          </InformationKey>
        </DataArray>
        <DataArray type="Float64" Name="Nodal Stress" NumberOfComponents="6" format="ascii" RangeMin="3356.475587253689" RangeMax="60417.30149327788">
          -11202.642167799077 25959.271194103607 0 1227.517923541248 0 0
          31901.803864722548 22812.233627437876 0 -11356.25056239635 0 0
          486.2498639490476 19094.955291216746 0 -2734.9970729814477 0 0
          13518.343025383148 13052.300254871128 0 -3521.8994451730673 0 0
          4621.789782582352 8838.964299791758 0 -3669.071658002134 0 0
          725.5889215629383 3117.033378302194 0 1460.337473076595 0 0
          2988.084845912854 -182.67730291838322 0 -2202.183695095559 0 0
          -5532.364884551236 -4031.8723910345125 0 2869.2038008277837 0 0
          18.848895046108897 -4859.186866369716 0 -176.67602934258915 0 0
          -5623.260261504894 -4625.254070128538 0 1479.4784797838993 0 0
          413.89720132081607 -3304.2107552196626 0 420.4863370663793 0 0
          50815.58812499025 26287.479437968163 0 -19416.352593610067 0 0
          -31259.100082405712 22816.69500997699 0 9088.910656978382 0 0
          <InformationKey name="L2_NORM_RANGE" location="vtkDataArray" length="2">
            <Value index="0">
              3356.4755873
            </Value>
            <Value index="1">
              60417.301493
            </Value>
          </InformationKey>
        </DataArray>
        <DataArray type="Float64" Name="Nodal Strain" NumberOfComponents="6" format="ascii" RangeMin="0.0002583100310057598" RangeMax="0.004216399899621852">
          -0.0017273055546322064 0.0022543280198573682 0 0.00013151977752227657 0 0
          0.001463977646500258 0.0004900951210769003 0 -0.001216741131685323 0 0
          -0.0006472305558328089 0.0013465593113744447 0 -0.00029303540067658363 0 0
          0.000499442349853399 0.00044950919586996815 0 -0.00037734636912568583 0 0
          0.000014450545191890994 0.00046629067203575594 0 -0.00039311482050022865 0 0
          -0.0000594948405420113 0.00019673135125148036 0 0.00015646472925820665 0 0
          0.00021995882124086041 -0.00011976569470534355 0 -0.0002359482530459528 0 0
          -0.00025117347778814145 -0.00009040642491134962 0 0.000307414692945834 0 0
          0.00017488873773078336 -0.00034775795099234084 0 -0.000018929574572420266 0 0
          -0.00023647380188861612 -0.0001295445670982922 0 0.00015851555140541777 0 0
          0.00014757161278076056 -0.0002507970968485765 0 0.000045052107542826364 0 0
          0.002690846314714727 0.0000628346696766458 0 -0.002080323492172507 0 0
          -0.0030476748276710153 0.002746160360798561 0 0.0009738118561048265 0 0
          <InformationKey name="L2_NORM_RANGE" location="vtkDataArray" length="2">
            <Value index="0">
              0.00025831003101
            </Value>
            <Value index="1">
              0.0042163998996
            </Value>
          </InformationKey>
        </DataArray>
        <DataArray type="Float64" Name="Sld_traction" NumberOfComponents="3" format="ascii" RangeMin="2456.6168879849606" RangeMax="51432.59845925517">
          -18942.95325910421 -25330.871191073536 0 -21763.0283548067 22065.51196303986 0
          -1977.9149624111421 -19807.068908108344 0 -3856.5760591267053 12097.37146997446 0
          6334.318258477615 -9857.061811772463 0 5648.269561675838 2298.9338278009227 0
          6782.327216814819 -794.2200006369103 0 6577.558135578733 -4216.415307507955 0
          2732.33877059654 4289.28241268284 0 356.364040388747 -2653.2173271451625 0
          -432.8118001517755 2418.1895045637534 0 -44133.49883180087 26411.104958604217 0
          -38685.39041250258 -22751.940257378636 0
          <InformationKey name="L2_NORM_RANGE" location="vtkDataArray" length="2">
            <Value index="0">
              2456.616888
            </Value>
            <Value index="1">
              51432.598459
            </Value>
          </InformationKey>
        </DataArray>
        <DataArray type="Float64" Name="Velocity" NumberOfComponents="3" format="ascii" RangeMin="0.8837093485683067" RangeMax="14.911641838354424">
          -0.14175792243547125 2.7652014817457844 0 0.9283953845149268 0.6946610083536418 0
          -0.5598460550343456 0.683750398471183 0 1.3012159539223838 -3.1235745371699593 0
          -0.8851000804238877 -3.2022283239974683 0 1.21591989203927 -7.641769922233314 0
          -0.8822414125981457 -7.667576362082063 0 1.0218201876844264 -11.446774917374468 0
          -0.7368508945127166 -11.421772087344207 0 1.0495888831819844 -14.87465715543262 0
          -0.6709712242578355 -14.87675142505721 0 0.45330555960748126 2.728424103982076 0
          0.21015647868557435 3.1798544513549762 0
          <InformationKey name="L2_NORM_RANGE" location="vtkDataArray" length="2">
            <Value index="0">
              0.88370934857
            </Value>
            <Value index="1">
              14.911641838
            </Value>
          </InformationKey>
        </DataArray>
        <DataArray type="Float64" Name="Acceleration" NumberOfComponents="3" format="ascii" RangeMin="745.485465207498" RangeMax="5236.840352910589">
          536.0102363126838 1344.7304501874569 0 -187.8812776469042 3109.635663240775 0
          258.53131277619593 3131.976751174694 0 150.6721785281411 3116.4940310892916 0
          -341.6477446700412 2900.577754965784 0 189.273614408625 1817.3223205881682 0
          -475.24122605686443 2664.1905734331394 0 645.7557756973426 -782.8484514426364 0
          -733.5502472964665 132.86313833013492 0 1238.4878421952217 -1529.1408290559666 0
          -1562.8584374439188 -4998.196713454069 0 -776.9897515595826 1160.513327148371 0
          307.0363862743676 -1182.2351142794223 0
          <InformationKey name="L2_NORM_RANGE" location="vtkDataArray" length="2">
            <Value index="0">
              745.48546521
            </Value>
            <Value index="1">
              5236.8403529
            </Value>
          </InformationKey>
        </DataArray>
        <DataArray type="Float64" Name="Sigma" NumberOfComponents="6" format="ascii" RangeMin="4070.0635026090326" RangeMax="140287.87592800346">
          -45722.56615392855 44812.28785965119 0 17046.668231591968 0 0
          73804.01747790213 29201.160579005907 0 -20539.70295920364 0 0
          -8588.184541329407 30752.051638545312 0 644.616417653675 0 0
          26432.020947859208 17238.739266204273 0 -2448.6407835721493 0 0
          9457.953939608895 13778.42513509556 0 -7757.644127739808 0 0
          -2602.462049279995 4246.156942678833 0 7194.809738731987 0 0
          9986.770007999872 19.126241110265255 0 -7619.949457560122 0 0
          -13542.03699857316 -5448.790644994233 0 7559.019198699238 0 0
          4875.476900620601 -7572.008170578782 0 -2456.5213429086134 0 0
          -13966.93934169893 -6538.868856752655 0 2034.462279943462 0 0
          1174.1723336451973 -3752.336286309207 0 1052.0022056153343 0 0
          127659.11556133543 35644.5154020428 0 -45970.71750845347 0 0
          -99685.36243274368 36943.15176511319 0 44826.43021060371 0 0
          <InformationKey name="L2_NORM_RANGE" location="vtkDataArray" length="2">
            <Value index="0">
              4070.0635026
            </Value>
            <Value index="1">
              140287.87593
            </Value>
          </InformationKey>
        </DataArray>
        <DataArray type="Float64" Name="Press" format="ascii" RangeMin="-17285.683489538427" RangeMax="2441.804674431418">
          -17285.683489538427 -6481.694232549131 -10321.256479607164 -5240.475748623758 -4185.79669231084 -2374.4485396109035
          321.93569944748015 -242.70351805247435 1380.451969384534 2134.6452608238287 2441.804674431418 -6127.572527211296
          -15495.13725806113
        </DataArray>
        <DataArray type="Float64" Name="Dev strain" NumberOfComponents="6" format="ascii" RangeMin="0.00032017141982453035" RangeMax="0.004231176178114898">
          -0.0012667429707202426 0.0027148906037693316 0 0.00013151977752227657 0 0
          0.001777882687004487 0.0008040001615811298 0 -0.001216741131685323 0 0
          -0.00032924436826781476 0.0016645454989394387 0 -0.00029303540067658363 0 0
          0.0007057313486859544 0.0006557981947025235 0 -0.00037734636912568583 0 0
          0.00016428372825883755 0.0006161238551027025 0 -0.00039311482050022865 0 0
          0.000022224184726049357 0.00027845037651954104 0 0.00015646472925820665 0 0
          0.00023813749576933718 -0.00010158702017686684 0 -0.0002359482530459528 0 0
          -0.0002562590460933858 -0.00009549199321659401 0 0.000307414692945834 0 0
          0.00013075083393397142 -0.0003918958547891527 0 -0.000018929574572420266 0 0
          -0.00029673534714952393 -0.00018980611235919993 0 0.00015851555140541777 0 0
          0.00007258316118191052 -0.00032578554844742656 0 0.000045052107542826364 0 0
          0.0030040401980379406 0.00037602855299985905 0 -0.002080323492172507 0 0
          -0.0026051306654815234 0.003188704522988053 0 0.0009738118561048265 0 0
          <InformationKey name="L2_NORM_RANGE" location="vtkDataArray" length="2">
            <Value index="0">
              0.00032017141982
            </Value>
            <Value index="1">
              0.0042311761781
            </Value>
          </InformationKey>
        </DataArray>
        <DataArray type="Float64" Name="J2 Stresses" format="ascii" RangeMin="8006031.297480172" RangeMax="9312017349.134937">
          2121994323.907799 3255340236.932766 509826679.4293206 499411891.85986376 154694206.5667622 25342650.544039294
          64383877.93683509 120822735.59342642 42061415.64893983 119950859.44238175 8006031.297480172 9312017349.134937
          6153336184.200357
        </DataArray>
      </PointData>
      <CellData>
        <DataArray type="UInt8" Name="vtkGhostType" format="ascii" RangeMin="0" RangeMax="1">
          1 1 0 0 0 0
          0 0 0 0 0
        </DataArray>
        <DataArray type="Float64" Name="Gauss Stress" NumberOfComponents="6" format="ascii" RangeMin="3865.0289886489754" RangeMax="52330.06396258115">
          -18885.73543338255 26163.853917332108 0 5300.793644580735 0 0
          41948.538878670064 26587.671197133677 0 -16487.917412021718 0 0
          -4865.122473016849 23558.955291835897 0 -949.4727699860005 0 0
          2518.087141865646 14007.229039767793 0 -3187.2228312194284 0 0
          23201.475807883962 18382.841674325147 0 -7447.909108374039 0 0
          3534.6507886181703 3935.132928803465 0 -2727.594615522648 0 0
          7162.263952547533 7820.866787811054 0 -1003.8250575266557 0 0
          926.6313536089519 -3847.32947456107 0 -839.1505339231662 0 0
          -2817.648466023061 -1159.5746064736784 0 2377.959826623702 0 0
          -653.4627342644503 -3968.7704696669534 0 209.9810475500609 0 0
          -6453.7019091652 -5429.091320056594 0 2378.9867119113624 0 0
          <InformationKey name="L2_NORM_RANGE" location="vtkDataArray" length="2">
            <Value index="0">
              3865.0289886
            </Value>
            <Value index="1">
              52330.063963
            </Value>
          </InformationKey>
        </DataArray>
        <DataArray type="Float64" Name="Gauss Strain" NumberOfComponents="6" format="ascii" RangeMin="0.00027788386409940345" RangeMax="0.003464831690537288">
          -0.0022834044565749013 0.0025433372595730992 0 0.0005679421762050791 0 0
          0.0020467645200073735 0.0004009572684141893 0 -0.0017665625798594692 0 0
          -0.0011889000084953426 0.001856536894881737 0 -0.00010172922535564273 0 0
          -0.00032039481271558927 0.0009105846763453551 0 -0.00034148816048779583 0 0
          0.0010007182121943852 0.00048443598359879764 0 -0.0007979902616115041 0 0
          0.00011193459458688854 0.0001548433953210271 0 -0.00029224228023456945 0 0
          0.000232273611331572 0.00030283820082409194 0 -0.00010755268473499878 0 0
          0.00020359257792067767 -0.0003079032250975391 0 -0.00008990898577748206 0 0
          -0.00015984722591330156 0.000017803544752703767 0 0.00025478140999539667 0 0
          0.00009506589289778763 -0.00026014565018105205 0 0.000022497969380363698 0 0
          -0.00026708258922406453 -0.00015730288324814246 0 0.00025489143341907443 0 0
          <InformationKey name="L2_NORM_RANGE" location="vtkDataArray" length="2">
            <Value index="0">
              0.0002778838641
            </Value>
            <Value index="1">
              0.0034648316905
            </Value>
          </InformationKey>
        </DataArray>
      </CellData>
      <Points>
        <DataArray type="Float32" Name="Points" NumberOfComponents="3" format="ascii" RangeMin="0.4000000059604645" RangeMax="1.0012492197622458">
          0.5 0 0 0.6000000238418579 0.05000000074505806 0
          0.6000000238418579 0 0 0.699999988079071 0.05000000074505806 0
          0.699999988079071 0 0 0.800000011920929 0.05000000074505806 0
          0.800000011920929 0 0 0.8999999761581421 0.05000000074505806 0
          0.8999999761581421 0 0 1 0.05000000074505806 0
          1 0 0 0.5 0.05000000074505806 0
          0.4000000059604645 0 0
          <InformationKey name="L2_NORM_RANGE" location="vtkDataArray" length="2">
            <Value index="0">
              0.40000000596
            </Value>
            <Value index="1">
              1.0012492198
            </Value>
          </InformationKey>
        </DataArray>
      </Points>
      <Cells>
        <DataArray type="Int64" Name="connectivity" format="ascii" RangeMin="0" RangeMax="12">
          0 11 12 1 11 0
          2 1 0 4 3 2
          3 1 2 6 5 4
          5 3 4 8 7 6
          7 5 6 10 9 8
          9 7 8
        </DataArray>
        <DataArray type="Int64" Name="offsets" format="ascii" RangeMin="3" RangeMax="33">
          3 6 9 12 15 18
          21 24 27 30 33
        </DataArray>
        <DataArray type="UInt8" Name="types" format="ascii" RangeMin="5" RangeMax="5">
          5 5 5 5 5 5
          5 5 5 5 5
        </DataArray>
      </Cells>
    </Piece>
  </UnstructuredGrid>
</VTKFile>
