<?xml version="1.0"?>
<VTKFile type="UnstructuredGrid" version="0.1" byte_order="LittleEndian" header_type="UInt32" compressor="vtkZLibDataCompressor">
  <UnstructuredGrid>
    <Piece NumberOfPoints="13" NumberOfCells="11">
      <PointData>
        <DataArray type="Float64" Name="Disp" NumberOfComponents="3" format="ascii" RangeMin="0.0007941807554705479" RangeMax="0.07607233531394716">
          -0.0015939217765464533 -0.005006765199413277 0 0.0025802320880503565 -0.013370853683771219 0
          -0.0025089156991893687 -0.01337623906425963 0 0.0034560278748880127 -0.025321133973424795 0
          -0.0033446852011396744 -0.02536251592250699 0 0.004124411697887499 -0.040415276353847396 0
          -0.004037789355880702 -0.04045783726880704 0 0.004583799177903529 -0.05775784528541737 0
          -0.004404502150222849 -0.057874724313197665 0 0.004582812597966353 -0.07593416904667841 0
          -0.00440677725621324 -0.075916829330347 0 0.0016643047087607583 -0.005025288623725831 0
          -0.0007460091305665783 -0.00027238474529802173 0
          <InformationKey name="L2_NORM_RANGE" location="vtkDataArray" length="2">
            <Value index="0">
              0.00079418075547
            </Value>
            <Value index="1">
              0.076072335314
            </Value>
          </InformationKey>
        </DataArray>
        <DataArray type="Float64" Name="Nodal Stress" NumberOfComponents="6" format="ascii" RangeMin="8587.189855762701" RangeMax="44386.35557443957">
          -38837.57653172996 -5207.535651457997 0 14257.66536849799 0 0
          38986.41899119055 -133.60833280481722 0 -13918.524682753567 0 0
          -34763.80396006832 2661.917889604263 0 12389.248893237815 0 0
          41174.426438980474 7104.780145408057 0 -14977.89263170836 0 0
          -27248.33336663646 8812.868784520235 0 9196.60984800988 0 0
          37093.76237640964 11504.2819782331 0 -14447.540544588894 0 0
          -15416.851831542574 14195.597496149534 0 5032.024741834213 0 0
          32041.43860580314 20343.499425450038 0 -11274.23901017499 0 0
          -3366.224516522535 19225.69835574366 0 373.5255245687672 0 0
          23197.214803843413 14763.65857816064 0 -7548.404356106944 0 0
          -2572.228132503736 7715.722517841297 0 -2755.194744649991 0 0
          30809.709959143554 -8413.047314313077 0 -10271.808962303658 0 0
          -37121.469396436376 -13360.057549136409 0 13988.711016468935 0 0
          <InformationKey name="L2_NORM_RANGE" location="vtkDataArray" length="2">
            <Value index="0">
              8587.1898558
            </Value>
            <Value index="1">
              44386.355574
            </Value>
          </InformationKey>
        </DataArray>
        <DataArray type="Float64" Name="Nodal Strain" NumberOfComponents="6" format="ascii" RangeMin="0.0008435199638061789" RangeMax="0.0034598633098596224">
          -0.002588129193285784 0.0010150894724576414 0 0.001527607003767642 0 0
          0.0027895159398280693 -0.0014019155591714352 0 -0.0014912705017235963 0 0
          -0.0025781973503478887 0.0014317014192598869 0 0.0013274195242754803 0 0
          0.0026872883118768892 -0.000963030933863013 0 -0.0016047742105401816 0 0
          -0.002261054839921184 0.0016026453905598902 0 0.0009853510551439157 0 0
          0.0022386872419495074 -0.0005030428007122658 0 -0.0015479507726345245 0 0
          -0.0016081893271155244 0.0015645731008514874 0 0.0005391455080536656 0 0
          0.0015621206352198662 0.0003087700087534621 0 -0.0012079541796616061 0 0
          -0.00092707669245674 0.0014934864724289233 0 0.00004002059191808221 0 0
          0.00112967039391165 0.0002260750840170668 0 -0.0008087576095828869 0 0
          -0.0004592920993874561 0.0006429883274352262 0 -0.0002951994369267848 0 0
          0.0025011595440214353 -0.0017012787352774891 0 -0.0011005509602468203 0 0
          -0.002174388615847727 0.00037147693922012705 0 0.0014987904660502432 0 0
          <InformationKey name="L2_NORM_RANGE" location="vtkDataArray" length="2">
            <Value index="0">
              0.00084351996381
            </Value>
            <Value index="1">
              0.0034598633099
            </Value>
          </InformationKey>
        </DataArray>
        <DataArray type="Float64" Name="Sld_traction" NumberOfComponents="3" format="ascii" RangeMin="7051.931199480206" RangeMax="41529.055193031745">
          -40595.709729996044 6229.299887907686 0 -41055.32186749905 877.4009347484428 0
          -39324.201750590364 -1557.9446461967925 0 -40797.724496817966 7759.387933826766 0
          -33187.71407401408 -8114.063656535095 0 -35737.43430915381 12801.843310948212 0
          -23035.25747149184 -12853.191972712166 0 -25308.200379748876 20425.855909570433 0
          -10088.479154671226 -17953.300315878692 0 -1997.7920291070743 7357.815236906345 0
          2267.2289833446316 -6677.529960942475 0 -34557.7679094131 -7366.484059144213 0
          -35144.96219065509 14260.5436006874 0
          <InformationKey name="L2_NORM_RANGE" location="vtkDataArray" length="2">
            <Value index="0">
              7051.9311995
            </Value>
            <Value index="1">
              41529.055193
            </Value>
          </InformationKey>
        </DataArray>
        <DataArray type="Float64" Name="Velocity" NumberOfComponents="3" format="ascii" RangeMin="4.559429779816278" RangeMax="14.762913349393994">
          -0.29022799764941776 -5.627333979244872 0 0.19196276583220623 -6.48307842837733 0
          -0.30512100966749944 -6.435512898884068 0 0.43245404159682166 -7.845655218492092 0
          -0.4820470136656565 -7.8733826912461 0 0.49176560350331155 -9.958809643610843 0
          -0.6145923465429515 -9.959429894340646 0 0.539780225214326 -12.242928826025455 0
          -0.6536133024468133 -12.238694356332678 0 0.5791668121606015 -14.697248411878693 0
          -0.6824606984301047 -14.747130499077226 0 0.1672933403885691 -5.648687206097056 0
          -0.3838331851852583 -4.543244655862818 0
          <InformationKey name="L2_NORM_RANGE" location="vtkDataArray" length="2">
            <Value index="0">
              4.5594297798
            </Value>
            <Value index="1">
              14.762913349
            </Value>
          </InformationKey>
        </DataArray>
        <DataArray type="Float64" Name="Acceleration" NumberOfComponents="3" format="ascii" RangeMin="385.20688341796455" RangeMax="2753.1509104838306">
          253.1778048362752 -2485.8185015864346 0 -90.27878982220773 -1501.133485259029 0
          12.674936270205308 -1509.4808820032722 0 -55.792131027620144 -1960.7884924759974 0
          -76.00806221647775 -2171.8031808227706 0 -682.9975821204855 -803.3755095037172 0
          -9.33544084056814 -393.2392970358542 0 155.99848793322167 -681.5642466220288 0
          137.63578883903426 -359.7787273634144 0 -179.3026074050888 347.16264201209196 0
          -708.5316001968667 -1142.3703466933957 0 -269.432706205158 -2607.142988322071 0
          -321.37787404322154 -2734.329204388785 0
          <InformationKey name="L2_NORM_RANGE" location="vtkDataArray" length="2">
            <Value index="0">
              385.20688342
            </Value>
            <Value index="1">
              2753.1509105
            </Value>
          </InformationKey>
        </DataArray>
        <DataArray type="Float64" Name="Sigma" NumberOfComponents="6" format="ascii" RangeMin="12147.480098764638" RangeMax="119527.75852354213">
          -111919.90758539308 -2645.8835590806448 0 41878.61798019432 0 0
          109602.62748544457 -6786.435853814921 0 -42266.28827589138 0 0
          -104536.93967509699 9204.973905037587 0 40042.48780167282 0 0
          111518.0797411323 4233.328527058229 0 -41413.31141812564 0 0
          -85948.61839690186 18782.1673987162 0 33896.641316656576 0 0
          96905.16929111946 11221.585640449062 0 -36866.81303251387 0 0
          -54441.652478913704 22102.814710612663 0 23497.231375785348 0 0
          75397.53224569943 27159.514615388347 0 -25544.042306741743 0 0
          -26611.821469750616 32583.18409174126 0 10325.978009153081 0 0
          59868.158420845444 23125.632187108597 0 -12806.220019012417 0 0
          1868.0276341293675 11217.689270941926 0 -4270.2684843703155 0 0
          91208.93608237916 -18644.135768828288 0 -35853.46668330313 0 0
          -102415.67906904464 -15756.975862856361 0 36017.298657526175 0 0
          <InformationKey name="L2_NORM_RANGE" location="vtkDataArray" length="2">
            <Value index="0">
              12147.480099
            </Value>
            <Value index="1">
              119527.75852
            </Value>
          </InformationKey>
        </DataArray>
        <DataArray type="Float64" Name="Press" format="ascii" RangeMin="-13995.011156034789" RangeMax="11096.899993651643">
          -3394.2594619030206 7816.500404950304 -7628.748236263537 4458.054652067538 -9699.259175647974 -460.8553051269273
          -11326.291332449053 -2082.759270113377 -7653.033991190915 -11638.248446108013 -13995.011156034789 11096.899993651643
          965.5229505708576
        </DataArray>
        <DataArray type="Float64" Name="Dev strain" NumberOfComponents="6" format="ascii" RangeMin="0.001105916436917002" RangeMax="0.0034155276961166936">
          -0.0026202661538217748 0.0009829525119216505 0 0.001527607003767642 0 0
          0.0026692542086403075 -0.001522177290359197 0 -0.0014912705017235963 0 0
          -0.0024760637255231963 0.001533835044084579 0 0.0013274195242754803 0 0
          0.002688931293459016 -0.0009613879522808868 0 -0.0016047742105401816 0 0
          -0.0020552328282285675 0.0018084674022525071 0 0.0009853510551439157 0 0
          0.0023649995558334405 -0.00037673048682833294 0 -0.0015479507726345245 0 0
          -0.001339149832139293 0.001833612595827719 0 0.0005391455080536656 0 0
          0.0017482941769436607 0.0004949435504772573 0 -0.0012079541796616061 0 0
          -0.0006333816868970018 0.0017871814779886622 0 0.00004002059191808221 0 0
          0.0014776026804873734 0.0005740073705927904 0 -0.0008087576095828869 0 0
          -0.00003713759269666572 0.0010651428341260166 0 -0.0002951994369267848 0 0
          0.0022584104602204873 -0.0019440278190784373 0 -0.0011005509602468203 0 0
          -0.002338003364045399 0.00020786219102245505 0 0.0014987904660502432 0 0
          <InformationKey name="L2_NORM_RANGE" location="vtkDataArray" length="2">
            <Value index="0">
              0.0011059164369
            </Value>
            <Value index="1">
              0.0034155276961
            </Value>
          </InformationKey>
        </DataArray>
        <DataArray type="Float64" Name="J2 Stresses" format="ascii" RangeMin="69221838.14278986" RangeMax="6704987867.848334">
          6704987867.848334 6476005612.810724 5907201857.950424 6655867180.437438 4157212981.402345 5098058385.606809
          1864243941.9650407 3374338075.784542 911582919.2084682 2100495446.1722786 69221838.14278986 4654704678.2256975
          5692938254.404451
        </DataArray>
      </PointData>
      <CellData>
        <DataArray type="UInt8" Name="vtkGhostType" format="ascii" RangeMin="0" RangeMax="1">
          1 1 0 0 0 0
          0 0 0 0 0
        </DataArray>
        <DataArray type="Float64" Name="Gauss Stress" NumberOfComponents="6" format="ascii" RangeMin="11453.343797916043" RangeMax="43112.82956899811">
          -38152.829029913024 -9459.610569481938 0 14014.149984805794 0 0
          34803.5989730432 -4185.7714150083075 0 -12080.37899300007 0 0
          -36686.90902275392 -1144.617600358077 0 13218.272501991925 0 0
          -30612.477030236852 6450.1723569893475 0 10841.939233401255 0 0
          40409.85812407807 3765.8911330117344 0 -14545.703964114738 0 0
          -21657.16913264003 10206.72064551799 0 6842.35321997602 0 0
          38924.19026888086 9511.673912505375 0 -14794.494377994313 0 0
          -8906.00876557275 20261.142941329643 0 2759.7223593989 0 0
          34663.71438340528 15538.003019586906 0 -12971.207987823424 0 0
          612.690330630161 11213.403985486017 0 -2250.170164743216 0 0
          29093.275829793987 20498.09639560863 0 -9341.428105533694 0 0
          <InformationKey name="L2_NORM_RANGE" location="vtkDataArray" length="2">
            <Value index="0">
              11453.343798
            </Value>
            <Value index="1">
              43112.829569
            </Value>
          </InformationKey>
        </DataArray>
        <DataArray type="Float64" Name="Gauss Strain" NumberOfComponents="6" format="ascii" RangeMin="0.000890128494998323" RangeMax="0.003373527148636426">
          -0.0023873588389408625 0.000686914567533898 0 0.001501516069800621 0 0
          0.002635463191467669 -0.0015419693501092795 0 -0.0012943263206785791 0 0
          -0.0025796143016124924 0.0012284883507870628 0 0.001416243482356277 0 0
          -0.0024169688006236804 0.001554029348007698 0 0.0011616363464358485 0 0
          0.0027519223255408716 -0.0011742169949305208 0 -0.0015584682818694366 0 0
          -0.0019114663896713595 0.0015025218008455714 0 0.0007331092735688593 0 0
          0.002440596665187726 -0.0007107443729953609 0 -0.0015851243976422477 0 0
          -0.0013597557311598263 0.0017652962374368583 0 0.00029568453850702483 0 0
          0.0019210509195437017 -0.00012813244086540927 0 -0.0013897722844096524 0 0
          -0.0003567151187223465 0.0007790756300122099 0 -0.0002410896605082019 0 0
          0.0013460162594278345 0.0004251041771936886 0 -0.0010008672970214672 0 0
          <InformationKey name="L2_NORM_RANGE" location="vtkDataArray" length="2">
            <Value index="0">
              0.000890128495
            </Value>
            <Value index="1">
              0.0033735271486
            </Value>
          </InformationKey>
        </DataArray>
      </CellData>
      <Points>
        <DataArray type="Float32" Name="Points" NumberOfComponents="3" format="ascii" RangeMin="0.4000000059604645" RangeMax="1.0012492197622458">
          0.5 0 0 0.6000000238418579 0.05000000074505806 0
          0.6000000238418579 0 0 0.699999988079071 0.05000000074505806 0
          0.699999988079071 0 0 0.800000011920929 0.05000000074505806 0
          0.800000011920929 0 0 0.8999999761581421 0.05000000074505806 0
          0.8999999761581421 0 0 1 0.05000000074505806 0
          1 0 0 0.5 0.05000000074505806 0
          0.4000000059604645 0 0
          <InformationKey name="L2_NORM_RANGE" location="vtkDataArray" length="2">
            <Value index="0">
              0.40000000596
            </Value>
            <Value index="1">
              1.0012492198
            </Value>
          </InformationKey>
        </DataArray>
      </Points>
      <Cells>
        <DataArray type="Int64" Name="connectivity" format="ascii" RangeMin="0" RangeMax="12">
          0 11 12 1 11 0
          2 1 0 4 3 2
          3 1 2 6 5 4
          5 3 4 8 7 6
          7 5 6 10 9 8
          9 7 8
        </DataArray>
        <DataArray type="Int64" Name="offsets" format="ascii" RangeMin="3" RangeMax="33">
          3 6 9 12 15 18
          21 24 27 30 33
        </DataArray>
        <DataArray type="UInt8" Name="types" format="ascii" RangeMin="5" RangeMax="5">
          5 5 5 5 5 5
          5 5 5 5 5
        </DataArray>
      </Cells>
    </Piece>
  </UnstructuredGrid>
</VTKFile>
