<?xml version="1.0"?>
<VTKFile type="UnstructuredGrid" version="0.1" byte_order="LittleEndian" header_type="UInt32" compressor="vtkZLibDataCompressor">
  <UnstructuredGrid>
    <Piece NumberOfPoints="13" NumberOfCells="11">
      <PointData>
        <DataArray type="Float64" Name="Disp" NumberOfComponents="3" format="ascii" RangeMin="0" RangeMax="0.08055579641777919">
          0 0 0 0 0 0
          0.0011255589270952658 -0.0035633391052810994 0 -0.0019527241022052884 -0.003512620934861194 0
          0.002911399061615783 -0.013101012147306737 0 -0.003260339685812905 -0.013045597009062777 0
          0.003616764175404124 -0.02811019496030011 0 -0.0046041692602102596 -0.028307536661758975 0
          0.003915911483064865 -0.045093791824605364 0 -0.004679276974760912 -0.04514577769025299 0
          0.00402500267423416 -0.06265809213219055 0 -0.004824562584574703 -0.06268508059286139 0
          0.004056616849134465 -0.08045359032536711 0
          <InformationKey name="L2_NORM_RANGE" location="vtkDataArray" length="2">
            <Value index="0">
              0
            </Value>
            <Value index="1">
              0.080555796418
            </Value>
          </InformationKey>
        </DataArray>
        <DataArray type="Float64" Name="Nodal Stress" NumberOfComponents="6" format="ascii" RangeMin="8761.489729120063" RangeMax="3475134.891733987">
          -2997209.3928194325 -622021.8418364655 0 -1645110.087386351 0 0
          -182278.83759550075 133243.74468403342 0 -57622.60404346398 0 0
          236521.45409413314 60049.13841704099 0 34558.28694874587 0 0
          -68387.82676297284 9791.205099881161 0 42084.68340195036 0 0
          -30206.146114570332 -42330.80325755722 0 -71878.60938165378 0 0
          -85277.41221320082 30.493424153963737 0 14240.807525761762 0 0
          91836.31232192315 44509.63047825202 0 -19512.918381989097 0 0
          -17708.159037197045 40229.22606120323 0 -3091.4257056569895 0 0
          36943.828521494725 20162.478605628465 0 -13518.926338288875 0 0
          -12111.756875440497 12106.284584789477 0 310.82624453118336 0 0
          17201.15430519968 9575.183715786754 0 -4850.481437774821 0 0
          -3447.895347678532 7996.446187854721 0 -965.6957645536141 0 0
          6922.52274664018 5619.301869558126 0 -2387.0212861831983 0 0
          <InformationKey name="L2_NORM_RANGE" location="vtkDataArray" length="2">
            <Value index="0">
              8761.4897291
            </Value>
            <Value index="1">
              3475134.8917
            </Value>
          </InformationKey>
        </DataArray>
        <DataArray type="Float64" Name="Nodal Strain" NumberOfComponents="6" format="ascii" RangeMin="0.0004188971320608229" RangeMax="0.26796122673490436">
          -0.19187131942151428 0.06261306104094647 0 -0.176261795077109 0 0
          -0.017778622138394106 0.016027368820127414 0 -0.006173850433228282 0 0
          0.01474977749182948 -0.004157970616430397 0 0.0037026736016513456 0 0
          -0.005234530665208098 0.0031417941772405402 0 0.004509073221637538 0 0
          -0.0006457674632708345 -0.0019448378714480052 0 -0.007701279576605762 0 0
          -0.006092332780376988 0.003047799966482455 0 0.0015258008063316177 0 0
          0.004970106934485511 -0.00010060897733639673 0 -0.002090669826641689 0 0
          -0.0027016265762713335 0.0035059503985572687 0 -0.00033122418274896323 0 0
          0.001918756372762893 0.00012075459606293594 0 -0.001448456393388094 0 0
          -0.0012974927977025168 0.0012972973587506945 0 0.00003330281191405542 0 0
          0.0008866830319504507 0.00006961475451335098 0 -0.000519694439761588 0 0
          -0.0005318656029718494 0.0006943138472638563 0 -0.00010346740334503011 0 0
          0.0002937765579900798 0.0001541457497312884 0 -0.00025575228066248553 0 0
          <InformationKey name="L2_NORM_RANGE" location="vtkDataArray" length="2">
            <Value index="0">
              0.00041889713206
            </Value>
            <Value index="1">
              0.26796122673
            </Value>
          </InformationKey>
        </DataArray>
        <DataArray type="Float64" Name="Sld_traction" NumberOfComponents="3" format="ascii" RangeMin="6575.3870178255875" RangeMax="407635.60589936393">
          -73631.04716254475 116701.20548744664 0 401358.60408321756 71260.49484330403 0
          -277801.2174004755 -118389.193847528 0 -12620.014987224358 -11042.302477975882 0
          -60462.998094409166 -12006.425435303257 0 -70491.9588646237 -25.15494900230124 0
          -70582.87965648207 38763.94333551925 0 -18432.96292549695 -35576.54174297885 0
          -20787.986042737648 19959.766560384116 0 -6023.856876164039 -15175.53930883074 0
          -10481.05403625287 9442.752431662146 0 -2334.3429913281007 -7866.805596375952 0
          -3657.836225872139 5464.059715896848 0
          <InformationKey name="L2_NORM_RANGE" location="vtkDataArray" length="2">
            <Value index="0">
              6575.3870178
            </Value>
            <Value index="1">
              407635.6059
            </Value>
          </InformationKey>
        </DataArray>
        <DataArray type="Float64" Name="Velocity" NumberOfComponents="3" format="ascii" RangeMin="0" RangeMax="6.034280068655857">
          0 0 0 0 0 0
          0.1374442299663588 -0.47133120319090394 0 -0.23543707017870236 -0.4875189598103645 0
          0.2133954479082978 -1.442724495758036 0 -0.27912459405213447 -1.4600165098915037 0
          0.11988225821844031 -2.374561104981233 0 -0.2962573667395485 -2.362880735296471 0
          0.18581193043896732 -3.230828229206566 0 -0.34952686483187656 -3.2289935537810477 0
          0.2851636925896087 -4.554856373543494 0 -0.4451626846648012 -4.581437229477828 0
          0.26019753491689923 -6.028667613146416 0
          <InformationKey name="L2_NORM_RANGE" location="vtkDataArray" length="2">
            <Value index="0">
              0
            </Value>
            <Value index="1">
              6.0342800687
            </Value>
          </InformationKey>
        </DataArray>
        <DataArray type="Float64" Name="Acceleration" NumberOfComponents="3" format="ascii" RangeMin="0" RangeMax="6710.131470990864">
          0 0 0 0 0 0
          -445.8164248463848 824.9760374459562 0 442.3422071942092 758.2739816082005 0
          -1048.266201180408 3863.0158335885812 0 726.8359045606842 4034.1083543570803 0
          -36.692592854792906 6569.374029377408 0 30.895912344743465 6710.060342544052 0
          1172.9057728528066 3843.6231512147842 0 -993.2374413202032 3471.9454116404922 0
          338.16165403174364 151.77045184663893 0 -260.77424762196335 241.0257714347954 0
          -158.1733936288706 814.6412414173092 0
          <InformationKey name="L2_NORM_RANGE" location="vtkDataArray" length="2">
            <Value index="0">
              0
            </Value>
            <Value index="1">
              6710.131471
            </Value>
          </InformationKey>
        </DataArray>
        <DataArray type="Float64" Name="Sigma" NumberOfComponents="6" format="ascii" RangeMin="18244.003667740275" RangeMax="8453042.61233045">
          -7300406.804782018 -1730504.319545151 0 -3894013.9561386257 0 0
          747880.8282182439 536810.0805307829 0 592346.0935825816 0 0
          1642387.39231633 214403.37346192866 0 615241.4691492659 0 0
          -812519.2736780299 -157990.07221997518 0 -166834.1888379442 0 0
          -144531.45770657054 -151114.52548332207 0 -233759.22486129287 0 0
          -86104.78892314213 5073.30563254381 0 150710.75169254176 0 0
          283716.85256360366 114288.80033519011 0 -42982.55827054922 0 0
          -88280.23963388147 85839.09923253562 0 -13057.064744480813 0 0
          83701.48774661575 8337.819925588768 0 -17807.819995402788 0 0
          -33033.4743057133 15904.45921978269 0 12115.284838363286 0 0
          42772.72022050618 16892.035600860236 0 -10514.078004265511 0 0
          -9776.764186410393 15581.498198302023 0 739.0666480119035 0 0
          16539.13429745497 7082.8709429856135 0 -3022.1922050523826 0 0
          <InformationKey name="L2_NORM_RANGE" location="vtkDataArray" length="2">
            <Value index="0">
              18244.003668
            </Value>
            <Value index="1">
              8453042.6123
            </Value>
          </InformationKey>
        </DataArray>
        <DataArray type="Float64" Name="Press" format="ascii" RangeMin="-40424.613639007905" RangeMax="61125.641387774034">
          61125.641387774034 47788.036777178604 51668.49819900087 22782.4952959145 45870.55391181234 17412.699623592875
          -31423.338321900133 -40424.613639007905 -1972.036394123581 -6589.156392157169 -5462.032377706292 -7203.959249347396
          -2512.1527770937096
        </DataArray>
        <DataArray type="Float64" Name="Dev strain" NumberOfComponents="6" format="ascii" RangeMin="0.000562967332623558" RangeMax="0.26892898393568065">
          -0.1938508535085833 0.0606335269538775 0 -0.176261795077109 0 0
          -0.019467895710672707 0.014338095247848825 0 -0.006173850433228282 0 0
          0.01308862198992537 -0.005819126118334498 0 0.0037026736016513456 0 0
          -0.00641600034496371 0.00196032449748493 0 0.004509073221637538 0 0
          -0.001764395062041639 -0.003063465470218807 0 -0.007701279576605762 0 0
          -0.006436762871383796 0.002703369875475645 0 0.0015258008063316177 0 0
          0.005537563304856174 0.0004668473930342645 0 -0.002090669826641689 0 0
          -0.0018131894095015143 0.004394387565327088 0 -0.00033122418274896323 0 0
          0.002343593066592292 0.000545591289892335 0 -0.001448456393388094 0 0
          -0.000993827176318713 0.0016009629801344986 0 0.00003330281191405542 0 0
          0.0010796670043327844 0.00026259872689568493 0 -0.000519694439761588 0 0
          -0.0003285787956925208 0.000897600654543185 0 -0.00010346740334503011 0 0
          0.00041750391934791665 0.00027787311108912524 0 -0.00025575228066248553 0 0
          <InformationKey name="L2_NORM_RANGE" location="vtkDataArray" length="2">
            <Value index="0">
              0.00056296733262
            </Value>
            <Value index="1">
              0.26892898394
            </Value>
          </InformationKey>
        </DataArray>
        <DataArray type="Float64" Name="J2 Stresses" format="ascii" RangeMin="164138423.48319045" RangeMax="31936128530286.613">
          31936128530286.613 511463871533.57214 1466333092835.982 349532628150.47687 35523314841.35602 9398319221.702774
          47240466234.197586 7623497568.369709 3617008759.3013725 708776155.5686445 1085059689.9711587 169320656.90773395
          164138423.48319045
        </DataArray>
      </PointData>
      <CellData>
        <DataArray type="UInt8" Name="vtkGhostType" format="ascii" RangeMin="0" RangeMax="0">
          0 0 0 0 0 0
          0 0 0 0 0
        </DataArray>
        <DataArray type="Float64" Name="Gauss Stress" NumberOfComponents="6" format="ascii" RangeMin="11670.589595021745" RangeMax="1839246.728558321">
          566662.6590428791 238487.47068161005 0 346917.79129796766 0 0
          -1583185.469294496 -272902.8963961618 0 -895475.4644689258 0 0
          -319029.9238254742 -72655.18107981121 0 -83294.22066889842 0 0
          268552.73611281905 8540.107721786357 0 71549.35181667624 0 0
          18298.85722308827 50255.317620984795 0 31557.0428925039 0 0
          28313.507049132066 35.83189930566823 0 -42010.34381310011 0 0
          -28866.01087275589 20365.190650872806 0 -6249.866633840102 0 0
          68439.37077376878 44881.910379427616 0 -24615.814336810938 0 0
          -6430.888763609459 9707.614999911364 0 780.0911607032263 0 0
          26472.50283247386 9037.029860748218 0 -5402.204387101673 0 0
          11452.315309134452 8126.086779333489 0 -4265.7345204353305 0 0
          <InformationKey name="L2_NORM_RANGE" location="vtkDataArray" length="2">
            <Value index="0">
              11670.589595
            </Value>
            <Value index="1">
              1839246.7286
            </Value>
          </InformationKey>
        </DataArray>
        <DataArray type="Float64" Name="Gauss Strain" NumberOfComponents="6" format="ascii" RangeMin="0.0007189245938826562" RangeMax="0.1457965483463115">
          0.03195849455014816 -0.003203132774273534 0 0.037169763353353674 0 0
          -0.10333814436402967 0.03704927416079186 0 -0.09594379976452774 0 0
          -0.020193023806112046 0.0062042700594947065 0 -0.008924380785953402 0 0
          0.01887733444656614 -0.008981161452473085 0 0.007666001980358169 0 0
          -0.0004877715419574376 0.002936134929245762 0 0.0033811117384825603 0 0
          0.0020211136499628025 -0.0010086372589471694 0 -0.004501108265689299 0 0
          -0.0027891861570137357 0.002485585434803625 0 -0.0006696285679114395 0 0
          0.0032856011131467836 0.0007615874994673743 0 -0.00263740867894403 0 0
          -0.0008060497331117955 0.0009230756701225781 0 0.00008358119578963141 0 0
          0.0015681419930071252 -0.00029994439682062217 0 -0.0005788076129037506 0 0
          0.0005278051371048364 0.0001714235089118761 0 -0.0004570429843323568 0 0
          <InformationKey name="L2_NORM_RANGE" location="vtkDataArray" length="2">
            <Value index="0">
              0.00071892459388
            </Value>
            <Value index="1">
              0.14579654835
            </Value>
          </InformationKey>
        </DataArray>
      </CellData>
      <Points>
        <DataArray type="Float32" Name="Points" NumberOfComponents="3" format="ascii" RangeMin="0" RangeMax="0.6020797527609908">
          0 0.05000000074505806 0 0 0 0
          0.10000000149011612 0.05000000074505806 0 0.10000000149011612 0 0
          0.20000000298023224 0.05000000074505806 0 0.20000000298023224 0 0
          0.30000001192092896 0.05000000074505806 0 0.30000001192092896 0 0
          0.4000000059604645 0.05000000074505806 0 0.4000000059604645 0 0
          0.5 0.05000000074505806 0 0.5 0 0
          0.6000000238418579 0.05000000074505806 0
          <InformationKey name="L2_NORM_RANGE" location="vtkDataArray" length="2">
            <Value index="0">
              0
            </Value>
            <Value index="1">
              0.60207975276
            </Value>
          </InformationKey>
        </DataArray>
      </Points>
      <Cells>
        <DataArray type="Int64" Name="connectivity" format="ascii" RangeMin="0" RangeMax="12">
          3 2 1 2 0 1
          5 4 3 4 2 3
          7 6 5 6 4 5
          9 8 7 8 6 7
          11 10 9 10 8 9
          12 10 11
        </DataArray>
        <DataArray type="Int64" Name="offsets" format="ascii" RangeMin="3" RangeMax="33">
          3 6 9 12 15 18
          21 24 27 30 33
        </DataArray>
        <DataArray type="UInt8" Name="types" format="ascii" RangeMin="5" RangeMax="5">
          5 5 5 5 5 5
          5 5 5 5 5
        </DataArray>
      </Cells>
    </Piece>
  </UnstructuredGrid>
</VTKFile>
