<?xml version="1.0"?>
<VTKFile type="UnstructuredGrid" version="0.1" byte_order="LittleEndian" header_type="UInt32" compressor="vtkZLibDataCompressor">
  <UnstructuredGrid>
    <Piece NumberOfPoints="13" NumberOfCells="11">
      <PointData>
        <DataArray type="Float64" Name="Disp" NumberOfComponents="3" format="ascii" RangeMin="0" RangeMax="0.004911367814150574">
          0 0 0 0 0 0
          -0.0003399763387277501 0.0010505606996913477 0 0.0004823748088865949 0.0010852601301758384 0
          -0.0005052260064674211 0.0031667024892748953 0 0.0005225868113863683 0.003232699398331556 0
          -0.00011597636748361 0.004842850184252741 0 0.00027878049369362175 0.00490344932085671 0
          0.00043469368606018316 0.00454602236512746 0 -0.00033664223441351795 0.00457540425956483 0
          0.0010789447553548423 0.0017624167479367396 0 -0.0009761233904655962 0.0017654156300880922 0
          0.001733929830165096 -0.0036629615234530163 0
          <InformationKey name="L2_NORM_RANGE" location="vtkDataArray" length="2">
            <Value index="0">
              0
            </Value>
            <Value index="1">
              0.0049113678142
            </Value>
          </InformationKey>
        </DataArray>
        <DataArray type="Float64" Name="Nodal Stress" NumberOfComponents="6" format="ascii" RangeMin="17078.928049697628" RangeMax="723916.9788544537">
          606491.7190415058 183011.87303672257 0 350328.7617873091 0 0
          29103.58715122018 12715.468999491812 0 28262.29000643407 0 0
          -45180.556832511014 -12397.029065556813 0 1328.1168071843038 0 0
          -3045.404623415663 -21492.211634116476 0 -4479.223208638292 0 0
          8257.790880821938 -8683.144935732562 0 15617.805216213597 0 0
          -8207.49152159284 -13642.128108397972 0 6182.168464526666 0 0
          -5558.615387835461 -20202.277719444406 0 -358.59996354079175 0 0
          -25576.671697829046 -17282.8920722376 0 10947.328480151464 0 0
          15483.867084099105 -8877.297364549346 0 -5117.81283567792 0 0
          -28006.665458120915 -5495.009692202321 0 10333.799215010938 0 0
          25042.83807271969 -3324.1651179824953 0 -8659.186647589062 0 0
          -29926.223368393392 -2405.6643783475033 0 10135.623558533442 0 0
          28804.41644849902 -520.3973448469145 0 -9957.8487314388 0 0
          <InformationKey name="L2_NORM_RANGE" location="vtkDataArray" length="2">
            <Value index="0">
              17078.92805
            </Value>
            <Value index="1">
              723916.97885
            </Value>
          </InformationKey>
        </DataArray>
        <DataArray type="Float64" Name="Nodal Strain" NumberOfComponents="6" format="ascii" RangeMin="0.000955371854385805" RangeMax="0.05325188560001233">
          0.03678469875165318 -0.008588141891716448 0 0.03753522447721168 0 0
          0.001624703760819591 -0.00013116604115130485 0 0.0030281025006893628 0 0
          -0.002784431592838044 0.0007280892393356207 0 0.00014229822934117524 0 0
          0.0005500500852601838 -0.0014263935230291892 0 -0.0004799167723541029 0 0
          0.0008999545249063015 -0.0009151457411531096 0 0.001673336273165742 0 0
          -0.0000990305333852753 -0.0006813130248286825 0 0.000662375192627857 0 0
          0.0003244659622776244 -0.0012444978589661916 0 -0.00003842142466508481 0 0
          -0.0012096589758364465 -0.0003210397302373626 0 0.0011729280514447998 0 0
          0.0014230368404552698 -0.0011870879218999213 0 -0.00054833708953692 0 0
          -0.0018042257580014112 0.000607737359775581 0 0.0011071927730368861 0 0
          0.001907494330836496 -0.0011318274395958814 0 -0.0009277699979559708 0 0
          -0.002051670798515689 0.0008969605218463707 0 0.001085959666985726 0 0
          0.0020760439372087495 -0.0010659003977926016 0 -0.0010669123640827283 0 0
          <InformationKey name="L2_NORM_RANGE" location="vtkDataArray" length="2">
            <Value index="0">
              0.00095537185439
            </Value>
            <Value index="1">
              0.0532518856
            </Value>
          </InformationKey>
        </DataArray>
        <DataArray type="Float64" Name="Sld_traction" NumberOfComponents="3" format="ascii" RangeMin="14613.216320673766" RangeMax="101854.93142994225">
          26737.213747796093 2132.557013113837 0 -88869.11549161379 -49766.52859439212 0
          62691.69236654996 18305.825527926292 0 -4703.3618984340665 15703.897923772547 0
          8362.403844810513 -11984.001550863737 0 -4252.437987783287 15483.211304195214 0
          -3896.2397908519197 -18691.37082267129 0 -23243.24032618869 16733.321783878047 0
          -21845.136674897956 -8173.813693081056 0 -28381.43618687124 6923.901140133159 0
          -27260.369093563288 -3022.5657620684915 0 -29515.45188696369 2667.7029038126593 0
          -29811.241226338087 103.70599073117123 0
          <InformationKey name="L2_NORM_RANGE" location="vtkDataArray" length="2">
            <Value index="0">
              14613.216321
            </Value>
            <Value index="1">
              101854.93143
            </Value>
          </InformationKey>
        </DataArray>
        <DataArray type="Float64" Name="Velocity" NumberOfComponents="3" format="ascii" RangeMin="0" RangeMax="3.3857758296575216">
          0 0 0 0 0 0
          -0.07836221715787207 0.29335165989194495 0 0.11315728213240989 0.32198472475809686 0
          0.009783036038560844 0.6084988043663362 0 0.025426400288539097 0.6337803770773307 0
          0.20377338687026797 0.2914341185932954 0 -0.1253199811328699 0.27717426490306996 0
          0.27693484324938256 -0.58131042675888 0 -0.21658407816155936 -0.5785631267770588 0
          0.3673456631143085 -1.6933082198647766 0 -0.2933084439318435 -1.6768575866125406 0
          0.5542447737316974 -3.340103396525948 0
          <InformationKey name="L2_NORM_RANGE" location="vtkDataArray" length="2">
            <Value index="0">
              0
            </Value>
            <Value index="1">
              3.3857758297
            </Value>
          </InformationKey>
        </DataArray>
        <DataArray type="Float64" Name="Acceleration" NumberOfComponents="3" format="ascii" RangeMin="0" RangeMax="3089.576154648047">
          0 0 0 0 0 0
          316.1638672654858 -925.0711913203312 0 -370.7668935128635 -945.513189333104 0
          359.3108832942215 -2532.9775987356784 0 -271.89394550627196 -2583.2397673456308 0
          -134.13063597230314 -3086.6632125749447 0 106.8279129231085 -3064.1247562852977 0
          -398.23444444588483 -1737.9550464640422 0 442.82359473180753 -1638.2540932806837 0
          -66.54890659300446 -389.9827711250225 0 116.1300268378917 -357.77555616226164 0
          310.10008346322 -1039.9748269187285 0
          <InformationKey name="L2_NORM_RANGE" location="vtkDataArray" length="2">
            <Value index="0">
              0
            </Value>
            <Value index="1">
              3089.5761546
            </Value>
          </InformationKey>
        </DataArray>
        <DataArray type="Float64" Name="Sigma" NumberOfComponents="6" format="ascii" RangeMin="46706.18048845244" RangeMax="1735853.6433408982">
          1473656.98689393 435899.93818190735 0 807164.2955257515 0 0
          -170094.59800288817 -31107.528659980162 0 -93973.02765773408 0 0
          -318530.84197316354 -75923.19791115931 0 -119040.51624453242 0 0
          122280.01103683055 -12231.450960614253 0 32907.16764572221 0 0
          45394.341081973784 11956.643934494947 0 45147.9236516783 0 0
          -43256.56741407412 -14876.442729773999 0 -9435.471534550408 0 0
          -11566.193803779403 -44576.21015327538 0 -11376.755293317776 0 0
          -60413.7289887732 -28503.227144841036 0 30349.346419179175 0 0
          52896.59003497803 -11910.815756339143 0 -23018.341223518677 0 0
          -78009.83931174889 -2692.775270918257 0 27497.527814965837 0 0
          74365.93339345475 -10568.720662453248 0 -27620.699861995246 0 0
          -84783.27230193262 1027.8304946248245 0 29949.159442184915 0 0
          82703.14011572982 -5541.901720707441 0 -30061.073889880077 0 0
          <InformationKey name="L2_NORM_RANGE" location="vtkDataArray" length="2">
            <Value index="0">
              46706.180488
            </Value>
            <Value index="1">
              1735853.6433
            </Value>
          </InformationKey>
        </DataArray>
        <DataArray type="Float64" Name="Press" format="ascii" RangeMin="-10329.441226084316" RangeMax="15113.791164913162">
          -10329.441226084316 -6619.267449026251 -5443.507744590021 2025.3017482500982 -2225.3650997626755 -795.5518543982616
          15113.791164913162 8498.086868722945 7880.987939028026 -2014.5997437054189 7107.568761573595 -3736.5970008109916
          5280.94256912622
        </DataArray>
        <DataArray type="Float64" Name="Dev strain" NumberOfComponents="6" format="ascii" RangeMin="0.0010376815870000334" RangeMax="0.05340795551373386">
          0.03707685640920483 -0.008295984234164798 0 0.03753522447721168 0 0
          0.0018285797642263724 0.00007270996225547754 0 0.0030281025006893628 0 0
          -0.0026225155684483424 0.0008900052637253211 0 0.00014229822934117524 0 0
          0.0005815999498513425 -0.0013948436584380302 0 -0.0004799167723541029 0 0
          0.0009035926421400791 -0.0009115076239193319 0 0.001673336273165742 0 0
          -0.00019286068106647925 -0.0007751431725098861 0 0.000662375192627857 0 0
          -0.000008103799202713969 -0.0015770676204465298 0 -0.00003842142466508481 0 0
          -0.0014899206657832218 -0.0006013014201841375 0 0.0011729280514447998 0 0
          0.0011775777279234543 -0.0014325470344317367 0 -0.00054833708953692 0 0
          -0.0018716394627838 0.000540323654993192 0 0.0011071927730368861 0 0
          0.0017756343618229157 -0.001263687408609462 0 -0.0009277699979559708 0 0
          -0.0020346054892581935 0.0009140258311038658 0 0.001085959666985726 0 0
          0.002008589182655173 -0.0011333551523461782 0 -0.0010669123640827283 0 0
          <InformationKey name="L2_NORM_RANGE" location="vtkDataArray" length="2">
            <Value index="0">
              0.001037681587
            </Value>
            <Value index="1">
              0.053407955514
            </Value>
          </InformationKey>
        </DataArray>
        <DataArray type="Float64" Name="J2 Stresses" format="ascii" RangeMin="1068476617.1401198" RangeMax="1343715385557.039">
          1343715385557.039 17157657786.338121 57155775761.53598 7821725166.500573 1611387520.7358766 1068476617.1401198
          1092765315.6187866 2461397011.017504 1602419392.8255816 3235421543.035981 3011720718.176963 3818867886.6980224
          3661178070.6952176
        </DataArray>
      </PointData>
      <CellData>
        <DataArray type="UInt8" Name="vtkGhostType" format="ascii" RangeMin="0" RangeMax="0">
          0 0 0 0 0 0
          0 0 0 0 0
        </DataArray>
        <DataArray type="Float64" Name="Gauss Stress" NumberOfComponents="6" format="ascii" RangeMin="14347.69592296378" RangeMax="390671.4653940311">
          -125460.96746152909 -43099.88365903996 0 -60035.45875218141 0 0
          320879.77683272585 102158.99839702237 0 198050.25054116157 0 0
          41140.72316627311 -5382.288320601381 0 22873.206587616693 0 0
          -52166.686983487285 -27280.525344460395 0 -13661.80831571063 0 0
          -30806.72134246296 -21713.184616217524 0 3179.0398637703356 0 0
          888.1513582908283 -11801.044912600737 0 8111.898941270034 0 0
          -23720.834400499516 -9580.781036017626 0 11609.511003542113 0 0
          4136.511071696528 -17832.462360597143 0 -1348.583365885761 0 0
          -29023.602067723208 -3625.7644738964987 0 9941.995798385171 0 0
          20742.21369119337 -4066.1182442714826 0 -7713.837756849369 0 0
          26979.238512380267 -2143.6258528823464 0 -9244.204769896807 0 0
          <InformationKey name="L2_NORM_RANGE" location="vtkDataArray" length="2">
            <Value index="0">
              14347.695923
            </Value>
            <Value index="1">
              390671.46539
            </Value>
          </InformationKey>
        </DataArray>
        <DataArray type="Float64" Name="Gauss Strain" NumberOfComponents="6" format="ascii" RangeMin="0.0013249674725357087" RangeMax="0.028965376134717846">
          -0.007422216116572081 0.0014021857194088984 0 -0.006432370580590867 0 0
          0.0192714484024439 -0.004162920715667177 0 0.02121966970083874 0 0
          0.0031308476661838433 -0.0018537607074098526 0 0.002450700705816074 0 0
          -0.002751887450804077 -0.000085512989479769 0 -0.001463765176683281 0 0
          -0.0014250092167395856 -0.00045070171035614654 0 0.0003406114139753928 0 0
          0.00048490527247079993 -0.0008746514708390111 0 0.0008691320294217893 0 0
          -0.0013521745630350505 0.0001628311545880092 0 0.0012438761789509405 0 0
          0.0009323387322853647 -0.0014214798497461008 0 -0.00014449107491633188 0 0
          -0.0019436228450553546 0.0007775740399975074 0 0.0010652138355412683 0 0
          0.0016268052009520797 -0.0010312303635620116 0 -0.000826482616805289 0 0
          0.0020036465313443886 -0.0011166603649337484 0 -0.0009904505110603721 0 0
          <InformationKey name="L2_NORM_RANGE" location="vtkDataArray" length="2">
            <Value index="0">
              0.0013249674725
            </Value>
            <Value index="1">
              0.028965376135
            </Value>
          </InformationKey>
        </DataArray>
      </CellData>
      <Points>
        <DataArray type="Float32" Name="Points" NumberOfComponents="3" format="ascii" RangeMin="0" RangeMax="0.6020797527609908">
          0 0.05000000074505806 0 0 0 0
          0.10000000149011612 0.05000000074505806 0 0.10000000149011612 0 0
          0.20000000298023224 0.05000000074505806 0 0.20000000298023224 0 0
          0.30000001192092896 0.05000000074505806 0 0.30000001192092896 0 0
          0.4000000059604645 0.05000000074505806 0 0.4000000059604645 0 0
          0.5 0.05000000074505806 0 0.5 0 0
          0.6000000238418579 0.05000000074505806 0
          <InformationKey name="L2_NORM_RANGE" location="vtkDataArray" length="2">
            <Value index="0">
              0
            </Value>
            <Value index="1">
              0.60207975276
            </Value>
          </InformationKey>
        </DataArray>
      </Points>
      <Cells>
        <DataArray type="Int64" Name="connectivity" format="ascii" RangeMin="0" RangeMax="12">
          3 2 1 2 0 1
          5 4 3 4 2 3
          7 6 5 6 4 5
          9 8 7 8 6 7
          11 10 9 10 8 9
          12 10 11
        </DataArray>
        <DataArray type="Int64" Name="offsets" format="ascii" RangeMin="3" RangeMax="33">
          3 6 9 12 15 18
          21 24 27 30 33
        </DataArray>
        <DataArray type="UInt8" Name="types" format="ascii" RangeMin="5" RangeMax="5">
          5 5 5 5 5 5
          5 5 5 5 5
        </DataArray>
      </Cells>
    </Piece>
  </UnstructuredGrid>
</VTKFile>
