<?xml version="1.0"?>
<VTKFile type="UnstructuredGrid" version="0.1" byte_order="LittleEndian" header_type="UInt32" compressor="vtkZLibDataCompressor">
  <UnstructuredGrid>
    <Piece NumberOfPoints="13" NumberOfCells="11">
      <PointData>
        <DataArray type="Float64" Name="Disp" NumberOfComponents="3" format="ascii" RangeMin="0.001373875724821647" RangeMax="0.035602585406185265">
          -0.000584634843663165 0.00291538646443577 0 0.0012156234955434195 -0.0007096834807275784 0
          -0.0011758251803435913 -0.0007106121674473123 0 0.0017892593838484594 -0.00663657352123781 0
          -0.0017301079683850157 -0.006653518209128281 0 0.0022914418902181197 -0.014746926010335927 0
          -0.002256705618060224 -0.014764334385301843 0 0.0027075704698504826 -0.024721517209160042 0
          -0.0025805001237959183 -0.02482149897074898 0 0.002710725236043182 -0.035499240221438466 0
          -0.002599352959342902 -0.03548350814000846 0 0.0006423744725474359 0.0029034606836607114 0
          -0.000049401945324653324 0.00424238118918243 0
          <InformationKey name="L2_NORM_RANGE" location="vtkDataArray" length="2">
            <Value index="0">
              0.0013738757248
            </Value>
            <Value index="1">
              0.035602585406
            </Value>
          </InformationKey>
        </DataArray>
        <DataArray type="Float64" Name="Nodal Stress" NumberOfComponents="6" format="ascii" RangeMin="7219.0061679807895" RangeMax="29840.146542532682">
          -26227.96297260277 -4332.814316169244 0 9313.59808581703 0 0
          23397.53744589078 -1011.4725149341625 0 -8567.099084667576 0 0
          -24702.365180813624 510.00789553001687 0 8369.904979366753 0 0
          25908.658159034072 2411.5386374434056 0 -9187.6599153155 0 0
          -21476.43366965125 2950.0999434727564 0 7097.385058893572 0 0
          24696.655038314617 4670.495006446321 0 -9633.067019713804 0 0
          -13459.674922877546 7599.1325741821765 0 4924.785394797144 0 0
          24145.585454367094 14973.787056073135 0 -9121.99265210502 0 0
          -3018.2285726413784 15326.552386226163 0 807.9803323830463 0 0
          19176.623479831553 12458.792411901184 0 -6664.722734169095 0 0
          -2055.8242538955124 6523.8760443383335 0 -2307.9597155383935 0 0
          16837.028056384224 -6498.429725337719 0 -6040.663319043875 0 0
          -24032.79709036146 -9799.579608398362 0 8918.278260909103 0 0
          <InformationKey name="L2_NORM_RANGE" location="vtkDataArray" length="2">
            <Value index="0">
              7219.006168
            </Value>
            <Value index="1">
              29840.146543
            </Value>
          </InformationKey>
        </DataArray>
        <DataArray type="Float64" Name="Nodal Strain" NumberOfComponents="6" format="ascii" RangeMin="0.0007045519846478002" RangeMax="0.0021968262597041543">
          -0.0017186825581798685 0.0006272262264380101 0 0.0009978855091946819 0 0
          0.0017073766930969902 -0.0009078743741342537 0 -0.0009179034733572402 0 0
          -0.0017826692234699025 0.000918656463281202 0 0.0008967755335035806 0 0
          0.0017644920600223127 -0.0007530564601481164 0 -0.0009843921337838039 0 0
          -0.001639391688670545 0.0009777369127355988 0 0.0007604341134528827 0 0
          0.001597243395363675 -0.0005484166080507846 0 -0.0010321143235407647 0 0
          -0.0012328029435691884 0.0010234978596872105 0 0.0005276555780139798 0 0
          0.0011899065661664663 0.00020721388063497066 0 -0.0009773563555826805 0 0
          -0.0007629646261253187 0.0012025476194676321 0 0.00008656932132675498 0 0
          0.0009248019481343544 0.00020503433371324355 0 -0.0007140774358038315 0 0
          -0.00037984016257604854 0.0005394134408061493 0 -0.00024728139809339925 0 0
          0.0014347316370752203 -0.001065495982394988 0 -0.0006472139270404151 0 0
          -0.0013666433775830203 0.00015834420977016894 0 0.0009555298136688325 0 0
          <InformationKey name="L2_NORM_RANGE" location="vtkDataArray" length="2">
            <Value index="0">
              0.00070455198465
            </Value>
            <Value index="1">
              0.0021968262597
            </Value>
          </InformationKey>
        </DataArray>
        <DataArray type="Float64" Name="Sld_traction" NumberOfComponents="3" format="ascii" RangeMin="5878.584687473977" RangeMax="26376.596162919483">
          -25857.68657220958 4979.987361093031 0 -25822.805932793628 -482.23558643399764 0
          -25742.069985322993 127.17882126389372 0 -26242.90452401497 2652.3173424711745 0
          -23602.520553824863 -2717.5311954492045 0 -25310.559532699037 5997.98086580789 0
          -19118.1960246322 -6340.475719216968 0 -21019.012729256447 15378.395071952766 0
          -9556.461763223288 -13833.22786658292 0 -2321.0926751606294 5898.060424989631 0
          1605.3758184574115 -5655.132749044509 0 -21013.212140347772 -5810.133754415261 0
          -21868.997894790293 10649.816285570043 0
          <InformationKey name="L2_NORM_RANGE" location="vtkDataArray" length="2">
            <Value index="0">
              5878.5846875
            </Value>
            <Value index="1">
              26376.596163
            </Value>
          </InformationKey>
        </DataArray>
        <DataArray type="Float64" Name="Velocity" NumberOfComponents="3" format="ascii" RangeMin="0.7762022684287196" RangeMax="11.791771412154908">
          -0.4896686496730189 -0.6230840820828154 0 0.48236789551165526 -2.5664526889249277 0
          -0.45868112367665403 -2.5512746057499847 0 0.5581282328707118 -4.489467543777075 0
          -0.5086239235429146 -4.470239958335842 0 0.7025714089774775 -6.908385723104828 0
          -0.5924452164403572 -6.954126174591224 0 0.6030995857694672 -9.44887771858065 0
          -0.5929596266630798 -9.458916736893363 0 0.5891296460992669 -11.777045440032941 0
          -0.5234049788093564 -11.72097749811665 0 0.5057949025005044 -0.5887796515831669 0
          -0.3578965000161699 1.2446092675418576 0
          <InformationKey name="L2_NORM_RANGE" location="vtkDataArray" length="2">
            <Value index="0">
              0.77620226843
            </Value>
            <Value index="1">
              11.791771412
            </Value>
          </InformationKey>
        </DataArray>
        <DataArray type="Float64" Name="Acceleration" NumberOfComponents="3" format="ascii" RangeMin="456.4763896955309" RangeMax="2262.1278646218525">
          276.59038464445905 -1749.7714528971887 0 -166.3463270231357 -507.32658828331205 0
          280.09150375743957 -360.44339898569706 0 523.4737348601411 -686.3125849476664 0
          -193.09066770995543 -887.86185238493 0 -101.27065991935683 -2157.9288809373743 0
          -39.46459578412566 -2261.783593003145 0 -363.6975274233416 -614.8197706499141 0
          -93.00189123105372 -772.0565727107337 0 350.40925817126595 -1970.549373093494 0
          111.4736270024896 -1130.8844080120607 0 -210.3495721793874 -1819.074365438197 0
          -160.19875102258646 -2008.090695357149 0
          <InformationKey name="L2_NORM_RANGE" location="vtkDataArray" length="2">
            <Value index="0">
              456.4763897
            </Value>
            <Value index="1">
              2262.1278646
            </Value>
          </InformationKey>
        </DataArray>
        <DataArray type="Float64" Name="Sigma" NumberOfComponents="6" format="ascii" RangeMin="11317.026389452589" RangeMax="77693.07930852071">
          -72331.83072776604 -2946.6053327054033 0 26864.389478125137 0 0
          68690.03363058067 -5100.349334454186 0 -26724.253674963766 0 0
          -70801.59067346774 5011.234579023808 0 25925.687487214054 0 0
          73138.1776216299 -388.67880981472535 0 -26208.21389201876 0 0
          -63784.10525362783 9136.673545444906 0 23885.28048495662 0 0
          67208.22539310553 2727.1045845916206 0 -25900.317901051014 0 0
          -44453.54684208806 11343.312948389188 0 20148.313895908657 0 0
          57631.08741472802 20295.471135736592 0 -22053.87169997138 0 0
          -22609.244457796565 26027.982139994503 0 10230.640079201938 0 0
          51179.032287409704 20744.097213808047 0 -11998.271674602142 0 0
          2361.4419346574814 10419.696769030468 0 -3732.103633376685 0 0
          53757.85269626303 -13277.213907086856 0 -21831.607004887923 0 0
          -63256.0820088083 -10987.57661769179 0 21762.87403354287 0 0
          <InformationKey name="L2_NORM_RANGE" location="vtkDataArray" length="2">
            <Value index="0">
              11317.026389
            </Value>
            <Value index="1">
              77693.079309
            </Value>
          </InformationKey>
        </DataArray>
        <DataArray type="Float64" Name="Press" format="ascii" RangeMin="-12777.60861461679" RangeMax="7105.204904468299">
          -1971.575521031612 5133.615377073391 -4748.448098208977 3534.2101233524745 -6032.711542550576 571.4081734652223
          -7716.760268086111 -647.1682866543568 -5595.300548799316 -10365.450936477246 -12777.60861461679 7105.204904468299
          517.5893852668323
        </DataArray>
        <DataArray type="Float64" Name="Dev strain" NumberOfComponents="6" format="ascii" RangeMin="0.0009431325421204941" RangeMax="0.0021757788172787973">
          -0.0017437341317630578 0.0006021746528548211 0 0.0009978855091946819 0 0
          0.0016240402048476451 -0.0009912108623835987 0 -0.0009179034733572402 0 0
          -0.001725647423910425 0.0009756782628406792 0 0.0008967755335035806 0 0
          0.0017485754974951265 -0.000768973022675302 0 -0.0009843921337838039 0 0
          -0.0015190040665635123 0.001098124534842632 0 0.0007604341134528827 0 0
          0.001660289385672556 -0.00048537061774190396 0 -0.0010321143235407647 0 0
          -0.0010599455211696498 0.0011963552820867488 0 0.0005276555780139798 0 0
          0.0013098505367519098 0.0003271578512204142 0 -0.0009773563555826805 0 0
          -0.0005365020945129316 0.0014290101510800192 0 0.00008656932132675498 0 0
          0.001219789366637831 0.0005000217522167204 0 -0.0007140774358038315 0 0
          -0.000009161870482207835 0.0009100917328999899 0 -0.00024728139809339925 0 0
          0.0012800047531543938 -0.0012202228663158142 0 -0.0006472139270404151 0 0
          -0.0014764710320701105 0.000048516555283078295 0 0.0009555298136688325 0 0
          <InformationKey name="L2_NORM_RANGE" location="vtkDataArray" length="2">
            <Value index="0">
              0.00094313254212
            </Value>
            <Value index="1">
              0.0021757788173
            </Value>
          </InformationKey>
        </DataArray>
        <DataArray type="Float64" Name="J2 Stresses" format="ascii" RangeMin="60555393.76721728" RangeMax="2846389667.3675942">
          2800711965.2165637 2550713575.372839 2687024174.870811 2846389667.3675942 2218572099.2022157 2429897946.796763
          1153882925.955422 1988217506.8524692 620483393.7236822 1560795088.3402116 60555393.76721728 1652250333.9277952
          2179435047.0673275
        </DataArray>
      </PointData>
      <CellData>
        <DataArray type="UInt8" Name="vtkGhostType" format="ascii" RangeMin="0" RangeMax="1">
          1 1 0 0 0 0
          0 0 0 0 0
        </DataArray>
        <DataArray type="Float64" Name="Gauss Stress" NumberOfComponents="6" format="ascii" RangeMin="9687.636154318181" RangeMax="29733.665548954334">
          -25392.947090535938 -7186.725696260176 0 8931.88550226003 0 0
          20127.766786529257 -3685.641271245455 0 -7230.490400575522 0 0
          -25343.265337606772 -1540.7094434343262 0 8688.607763458476 0 0
          -22898.155940957586 2170.7599324156363 0 7867.584693383973 0 0
          24981.99932698658 1147.1946123239284 0 -9002.260026589493 0 0
          -18069.163446593946 3343.00914708475 0 6044.425493271425 0 0
          24878.401505124904 3182.6686914963066 0 -9407.75043603772 0 0
          -7796.977662898798 14569.179040193501 0 2775.0274250464063 0 0
          24197.748528156757 8857.789429147386 0 -9268.625235037913 0 0
          730.9565547924194 9484.472007646553 0 -1833.2450762589642 0 0
          23197.65182413675 16819.876905869405 0 -7940.501098457193 0 0
          <InformationKey name="L2_NORM_RANGE" location="vtkDataArray" length="2">
            <Value index="0">
              9687.6361543
            </Value>
            <Value index="1">
              29733.665549
            </Value>
          </InformationKey>
        </DataArray>
        <DataArray type="Float64" Name="Gauss Strain" NumberOfComponents="6" format="ascii" RangeMin="0.0007382003121464984" RangeMax="0.002150929491555866">
          -0.0015571131601718466 0.0003935534177862707 0 0.0009569877323850033 0 0
          0.0015693276730108562 -0.0009821089046078632 0 -0.0007746954000616632 0 0
          -0.0017552079011349728 0.0007950659446692185 0 0.0009309222603705513 0 0
          -0.001713109707654672 0.0009728455644924592 0 0.0008429555028625686 0 0
          0.001743457287201759 -0.00081027178936924 0 -0.0009645278599917317 0 0
          -0.001410047715724023 0.0008841136335986944 0 0.0006476170171362239 0 0
          0.0016633619399554832 -0.0006611808615047249 0 -0.0010079732610040414 0 0
          -0.0010772547987853963 0.0013191191336887787 0 0.00029732436696925784 0 0
          0.0014120609866845044 -0.00023150605963792766 0 -0.000993066989468348 0 0
          -0.0002865199606450613 0.0006513566950178816 0 -0.00019641911531346036 0 0
          0.0010562652408001461 0.0003729322138429311 0 -0.0008507679748346994 0 0
          <InformationKey name="L2_NORM_RANGE" location="vtkDataArray" length="2">
            <Value index="0">
              0.00073820031215
            </Value>
            <Value index="1">
              0.0021509294916
            </Value>
          </InformationKey>
        </DataArray>
      </CellData>
      <Points>
        <DataArray type="Float32" Name="Points" NumberOfComponents="3" format="ascii" RangeMin="0.4000000059604645" RangeMax="1.0012492197622458">
          0.5 0 0 0.6000000238418579 0.05000000074505806 0
          0.6000000238418579 0 0 0.699999988079071 0.05000000074505806 0
          0.699999988079071 0 0 0.800000011920929 0.05000000074505806 0
          0.800000011920929 0 0 0.8999999761581421 0.05000000074505806 0
          0.8999999761581421 0 0 1 0.05000000074505806 0
          1 0 0 0.5 0.05000000074505806 0
          0.4000000059604645 0 0
          <InformationKey name="L2_NORM_RANGE" location="vtkDataArray" length="2">
            <Value index="0">
              0.40000000596
            </Value>
            <Value index="1">
              1.0012492198
            </Value>
          </InformationKey>
        </DataArray>
      </Points>
      <Cells>
        <DataArray type="Int64" Name="connectivity" format="ascii" RangeMin="0" RangeMax="12">
          0 11 12 1 11 0
          2 1 0 4 3 2
          3 1 2 6 5 4
          5 3 4 8 7 6
          7 5 6 10 9 8
          9 7 8
        </DataArray>
        <DataArray type="Int64" Name="offsets" format="ascii" RangeMin="3" RangeMax="33">
          3 6 9 12 15 18
          21 24 27 30 33
        </DataArray>
        <DataArray type="UInt8" Name="types" format="ascii" RangeMin="5" RangeMax="5">
          5 5 5 5 5 5
          5 5 5 5 5
        </DataArray>
      </Cells>
    </Piece>
  </UnstructuredGrid>
</VTKFile>
