<?xml version="1.0"?>
<VTKFile type="UnstructuredGrid" version="0.1" byte_order="LittleEndian" header_type="UInt32" compressor="vtkZLibDataCompressor">
  <UnstructuredGrid>
    <Piece NumberOfPoints="88" NumberOfCells="239">
      <PointData>
        <DataArray type="Float64" Name="nsi_BC" NumberOfComponents="3" format="ascii" RangeMin="0" RangeMax="1">
          1 0 0 1 0 0
          1 0 0 1 0 0
          1 0 0 0 0 0
          1 0 0 0 0 0
          1 0 0 0 0 0
          1 0 0 0 0 0
          0 0 0 0 0 0
          1 0 0 0 0 0
          0 0 0 1 0 0
          1 0 0 1 0 0
          0 0 0 1 0 0
          1 0 0 0 0 0
          0 0 0 0 0 0
          1 0 0 1 0 0
          0 0 0 0 0 0
          0 0 0 0 0 0
          1 0 0 0 0 0
          0 0 0 0 0 0
          1 0 0 1 0 0
          0 0 0 1 0 0
          1 0 0 0 0 0
          0 0 0 0 0 0
          0 0 0 1 0 0
          0 0 0 0 0 0
          1 0 0 0 0 0
          0 0 0 0 0 0
          1 0 0 1 0 0
          0 0 0 0 0 0
          1 0 0 0 0 0
          0 0 0 1 0 0
          0 0 0 0 0 0
          1 0 0 0 0 0
          0 0 0 1 0 0
          0 0 0 0 0 0
          0 0 0 1 0 0
          1 0 0 0 0 0
          0 0 0 1 0 0
          0 0 0 1 0 0
          0 0 0 0 0 0
          1 0 0 1 0 0
          1 0 0 1 0 0
          0 0 0 0 0 0
          1 0 0 0 0 0
          1 0 0 0 0 0
          <InformationKey name="L2_NORM_RANGE" location="vtkDataArray" length="2">
            <Value index="0">
              0
            </Value>
            <Value index="1">
              1
            </Value>
          </InformationKey>
        </DataArray>
        <DataArray type="Float64" Name="nsi_FIXNO" NumberOfComponents="3" format="ascii" RangeMin="1.7320508075688772" RangeMax="1.7320508075688772">
          1 1 1 1 1 1
          1 1 1 1 1 1
          1 1 1 1 1 1
          1 1 1 1 1 1
          1 1 1 -1 -1 -1
          1 1 1 1 1 1
          1 1 1 1 1 1
          1 1 1 -1 -1 -1
          -1 -1 -1 1 1 1
          1 1 1 1 1 1
          1 1 1 1 1 1
          1 1 1 1 1 1
          1 1 1 -1 -1 -1
          1 1 1 1 1 1
          1 1 1 -1 -1 -1
          1 1 1 1 1 1
          1 1 1 1 1 1
          -1 -1 -1 1 1 1
          1 1 1 1 1 1
          1 1 1 1 1 1
          1 1 1 1 1 1
          1 1 1 1 1 1
          1 1 1 1 1 1
          1 1 1 1 1 1
          1 1 1 1 1 1
          1 1 1 1 1 1
          1 1 1 1 1 1
          1 1 1 1 1 1
          1 1 1 1 1 1
          1 1 1 1 1 1
          1 1 1 1 1 1
          1 1 1 1 1 1
          1 1 1 1 1 1
          1 1 1 1 1 1
          1 1 1 1 1 1
          1 1 1 -1 -1 -1
          1 1 1 1 1 1
          1 1 1 1 1 1
          1 1 1 1 1 1
          1 1 1 1 1 1
          1 1 1 1 1 1
          1 1 1 1 1 1
          1 1 1 1 1 1
          1 1 1 1 1 1
          <InformationKey name="L2_NORM_RANGE" location="vtkDataArray" length="2">
            <Value index="0">
              1.7320508076
            </Value>
            <Value index="1">
              1.7320508076
            </Value>
          </InformationKey>
        </DataArray>
        <DataArray type="Float64" Name="tem_BC" format="ascii" RangeMin="0" RangeMax="12">
          0 0 0 0 0 12
          0 12 0 0 0 12
          12 12 0 0 0 0
          0 0 12 0 0 12
          12 0 0 0 12 0
          12 12 0 12 0 12
          0 0 12 0 0 12
          12 12 12 0 12 12
          0 12 12 12 0 0
          12 12 0 12 12 0
          12 12 0 12 12 0
          12 12 12 0 0 0
          12 0 12 7.64356 12 12
          0 7.64356 8.129456 8.136573 12 12
          7.64356 12 8.129456 12
        </DataArray>
        <DataArray type="Float64" Name="tem_FIXNO" format="ascii" RangeMin="-1" RangeMax="1">
          -1 -1 -1 -1 -1 1
          -1 1 -1 -1 -1 1
          1 1 -1 -1 -1 -1
          -1 -1 1 -1 -1 1
          1 -1 -1 -1 1 -1
          1 1 -1 1 -1 1
          -1 -1 1 -1 -1 1
          1 1 1 -1 1 1
          -1 1 1 1 -1 -1
          1 1 -1 1 1 -1
          1 1 -1 1 1 -1
          1 1 1 -1 -1 -1
          1 -1 1 1 1 1
          -1 1 1 1 1 1
          1 1 1 1
        </DataArray>
        <DataArray type="Float64" Name="Velocity" NumberOfComponents="3" format="ascii" RangeMin="0" RangeMax="1.1072775145051683">
          1 0 0 1 0 0
          1 0 0 1 0 0
          1 0 0 0 0 0
          1 0 0 0 0 0
          1 0 0 0.9960740363993443 0.35886894585310675 0.32421148628964497
          1 0 0 0 0 0
          0 0 0 0 0 0
          1 0 0 0.869599753233777 0.0683005781983422 0.09142329849998233
          0.8619922701553742 0.25470955503503284 0.1404414177141517 1 0 0
          1 0 0 1 0 0
          0 0 0 1 0 0
          1 0 0 0 0 0
          0 0 0 0.6699892617851737 0.13724526282108476 -0.029619542300456218
          1 0 0 1 0 0
          0 0 0 0.6137320879876942 0.19552039527590007 -0.005300565364999197
          0 0 0 0 0 0
          1 0 0 0 0 0
          0.7847122113380256 -0.026763398504898766 0.0769973430778529 0 0 0
          1 0 0 1 0 0
          0 0 0 1 0 0
          1 0 0 0 0 0
          0 0 0 0 0 0
          0 0 0 1 0 0
          0 0 0 0 0 0
          1 0 0 0 0 0
          0 0 0 0 0 0
          1 0 0 1 0 0
          0 0 0 0 0 0
          1 0 0 0 0 0
          0 0 0 1 0 0
          0 0 0 0 0 0
          1 0 0 0 0 0
          0 0 0 1 0 0
          0 0 0 0 0 0
          0 0 0 1 0 0
          1 0 0 0.7909434215408637 0.04221089909024655 -0.10719124949455641
          0 0 0 1 0 0
          0 0 0 1 0 0
          0 0 0 0 0 0
          1 0 0 1 0 0
          1 0 0 1 0 0
          0 0 0 0 0 0
          1 0 0 0 0 0
          1 0 0 0 0 0
          <InformationKey name="L2_NORM_RANGE" location="vtkDataArray" length="2">
            <Value index="0">
              0
            </Value>
            <Value index="1">
              1.1072775145
            </Value>
          </InformationKey>
        </DataArray>
        <DataArray type="Float64" Name="Pressure" format="ascii" RangeMin="0" RangeMax="14.83863549671067">
          0 10.245449742830596 10.286513942979784 11.148030376593836 11.60998214306474 11.249864671013222
          12.379580150295167 12.037970719931169 12.625948295425081 12.864065860795208 12.983293820395277 12.396891552542392
          12.836085396785654 12.83719575984102 12.093445865156747 13.450791654995227 13.162980516006535 13.221496987127475
          13.527799660701886 12.464512560766503 13.100013067491066 12.733127666282316 13.611679587610817 13.49550016226536
          13.607522644692226 13.76252818335348 13.016445526655932 13.783186486579844 12.84453176319093 13.745897388922705
          13.579914223429062 13.143867908600432 13.359965838646714 14.042220362908276 13.826112581417727 14.046149600852896
          13.987692030304828 13.448032195738113 13.435491949703795 14.108510484608955 14.074890945493575 14.048002116029224
          14.083370159792452 14.104380211381935 14.112625559573596 13.818976993869741 14.12258361933888 13.782839496934825
          14.256887046800648 14.13545551102076 14.112254629769323 14.128240190594392 14.10713334563681 14.049139234949607
          14.298997610361871 14.15760075091782 14.359408551419529 14.14964625037577 14.093439945134003 14.062975079859816
          14.139508952769413 14.185437083557485 14.422314579050592 14.203154815036472 14.128261216007997 14.216425337300278
          14.161229781788036 14.153663911184069 14.15282524489024 14.217441239313377 14.538907342225366 14.443706962726454
          14.149516836178124 14.475601224578698 14.183374168594991 14.593506437334812 14.217977120439784 14.178073220069999
          14.293296863873067 14.710672736223767 14.423646579845796 14.432060237529779 14.273566030955443 14.204077854447519
          14.83863549671067 14.208753114093644 14.590079688899063 14.36274340843948
        </DataArray>
        <DataArray type="Float64" Name="DISSI_NS" format="ascii" RangeMin="0" RangeMax="5049.135728586084">
          0 2.9097580067632194 2.8625128627275696 1.386169501152011 0.06473597982244404 234.8360740236288
          0.05563699817281994 0.5014195981640605 0.08888509804413024 0.14266991839475646 0.12090671884404298 5049.135728586084
          2082.1100191558708 1452.7959148959278 9.232760512009334e-34 0.05309201838526456 0.059628677148232716 0.02429232035723651
          0.06803858912270026 0.03173984187719225 222.7558151907885 0.024535012215137725 0.06349156192625643 387.2905782750452
          385.03441627503327 0.06933103614311696 0.03834396048396345 0.009011831866232584 9.84938775510204e-7 0.023204244622672416
          55.35762283129851 118.87122979391934 0.017504084572924277 507.2126970287188 0.0393428796269874 507.95559274608917
          0.08255523703135975 0.026594278464856385 56.524894069259446 0.02997074245813993 0.06006546638966099 421.4341459280077
          204.8703655694991 330.3948510344752 383.9159667082734 0.026449277871880963 4.75798783221134 86.75173747207285
          0.06461624200844972 21.271405928306013 59.280999447774114 164.53650099480728 0.2670453997709141 0.00854611606692929
          493.5025388589557 234.709140784292 0.0015230186394919144 17.445425951208602 242.77771574072312 0.03644360673322553
          10.525968285267597 156.94231868974558 0.08196228992444607 58.548436637649154 49.97691939866258 0.16275498920590323
          11.238072355688358 59.20436401119065 5.58122050193613 0.1333193970643678 0.008987641766682944 0.062050403682599814
          39.846865478176824 0.07240572639824425 4.70614999265018 0.0010151578383899627 21.872504494961273 108.10839810802267
          0.07659235373137227 0.009126593862231712 0.03645107393562108 0.07163386563044068 84.16423291052459 41.31705598955771
          0.007355992145237733 76.62350723835512 0.03529348432152697 9.879818586897468
        </DataArray>
        <DataArray type="Float64" Name="Temperature" format="ascii" RangeMin="-1.2570960580257817" RangeMax="12.000000000000002">
          0.4147990333019272 -1.2570960580257817 -0.3476655785531277 -1.0472873708659374 0.5075176583381664 11.999999999999998
          -0.5836603666252147 12 -0.6163017791978902 1.6152674963883726 0.39006738180905937 12.000000000000002
          11.999999999999998 12 0.3190033688668612 1.5524864964417369 1.1980078734817285 -0.23663256802537114
          0.7116543147373008 -1.0791832489934112 11.999999999999998 -0.3900517450560136 -0.31833713416278914 11.999999999999996
          11.999999999999998 4.216366013262425 -0.1966493961045244 1.1954188808169393 12 3.1708102726132084
          11.999999999999998 12 -0.7123422590301268 12 2.602208013914216 11.999999999999998
          2.380089880292433 0.13309067232320504 12.000000000000002 0.8028845826512442 -0.9249933597536099 12
          12 12.000000000000002 12 -0.09486094234645033 12.000000000000002 12
          2.2774551242604586 11.999999999999998 12.000000000000002 12 3.163454842103587 -0.10270683864021765
          11.999999999999998 12.000000000000002 4.395249951790163 12.000000000000002 12 1.3531825739859142
          11.999999999999998 12.000000000000002 3.475172745693536 12.000000000000002 12 4.904930434302292
          12.000000000000002 12 12.000000000000002 3.016802094763473 4.132928079888948 5.923602311911496
          12.000000000000002 2.2414104103302 11.999999999999998 7.64356 12 12.000000000000002
          5.7003170565569885 7.64356 8.129455999999998 8.136573000000002 12 11.999999999999998
          7.64356 11.999999999999998 8.129455999999998 12
        </DataArray>
        <DataArray type="Float64" Name="DISSI_TEMPE" format="ascii" RangeMin="3.01951497754961e-32" RangeMax="2.5042869429579055">
          0.008950880021053695 0.5373386135673877 0.0942368875904515 0.9458456967719275 0.5898300199829575 0.3751380320025718
          0.029926462223455807 0.4229239703594251 0.3349707035571446 0.8395541443775724 0.7015063465485512 0.23787749860194224
          0.39481359582345316 0.43641586690828116 0.006793961057068276 0.6355617368407253 0.6088164720745961 0.1592819929814483
          1.131748094001387 0.8185434721530745 0.3766228273559833 0.07015654818853244 0.6692549391772291 0.2947881371154575
          0.3226429098923485 1.0764650072758524 0.7505715578751749 0.07959365254430692 0.3651367441826134 0.6700832741956471
          0.3742082362115158 0.41630543278936427 0.15349270135894336 0.15227746428978267 0.9424817770573615 0.26357720467837276
          1.297400109715691 0.4725884811432706 0.46630616774177874 0.49845689177575697 1.0083630511982917 0.19720179232074841
          0.1725718192185586 0.22108116089171517 0.22509205192289125 0.6794758669454267 5.413508681017673e-32 0.36666253228392026
          1.2278621507347838 1.3567114563686442e-31 0.318353138128422 0.22790967800725365 2.5042869429579055 0.3747139018439696
          0.18434331962870362 0.23175415733264115 0.03471997227445608 3.01951497754961e-32 0.24365548598972744 0.7148476893539244
          0.4405192202147565 0.21223128916296546 1.6415217516318839 0.059754537797123065 0.3524669215086873 1.6987270326288981
          0.27946750342213755 0.3027360943565423 4.5161320329416895e-32 2.3208429144574376 0.28522401289819266 1.2742531078791748
          0.08705404277803823 1.228128280742087 0.18676374528919032 0.15748692281223342 0.29402293948942115 0.0809042063666769
          1.9721404760035324 0.08326281468074756 0.0601177427652639 1.212916952975895 0.09629766188353965 0.09896155748156912
          0.16299773297278836 0.06001875359329629 0.7364113480695449 0.015668751205261632
        </DataArray>
        <DataArray type="Float64" Name="CN2" format="ascii" RangeMin="0" RangeMax="1.9959386722982096e-10">
          0 2.476300045623287e-12 4.308692269959207e-13 5.564039418365826e-12 9.41802012272407e-12 3.3068693877108143e-13
          5.106963982147319e-13 2.8952290445660266e-12 4.8921827840905165e-12 1.0136288861476231e-11 9.111441769820117e-12 7.541166440342971e-14
          1.6815851657675358e-13 2.0956897898407104e-13 0 1.0678030050420491e-11 9.89126328359784e-12 3.5648064941168274e-12
          1.772150499113055e-11 1.6965393059947825e-11 3.379044469240353e-13 1.5684511355416518e-12 1.0886845720375197e-11 2.1995377062484754e-13
          2.4120721889229627e-13 1.591982820724242e-11 1.4418800254584247e-11 2.427800225418177e-12 1.9959386722982096e-10 1.4490431670344225e-11
          5.340172881814292e-13 4.604867716588324e-13 3.8586207157871034e-12 1.038510116838934e-13 1.7233428300097975e-11 1.796681519323003e-13
          1.859007252917155e-11 1.020695416389249e-11 6.608320619134482e-13 1.0244500990220373e-11 1.6858884199972518e-11 1.4305601904061825e-13
          1.5921439153691982e-13 1.7393206516959053e-13 1.6844334130953255e-13 1.475133680099292e-11 1.75055956978569e-43 4.504812172074973e-13
          1.911938709771152e-11 2.663144333433674e-43 4.440614151501827e-13 2.262114392774023e-13 2.3989072640513016e-11 1.1856524621761318e-11
          1.2687370946285824e-13 2.043416998676756e-13 1.828705738681891e-12 6.332123783023069e-44 2.1242819853676178e-13 1.3654705905953003e-11
          1.0932432934538931e-12 2.1399441316530565e-13 2.320654183715021e-11 8.369618364970915e-14 5.204365060857974e-13 1.871643993333364e-11
          6.785890931070745e-13 4.2246013391035065e-13 1.3847232945025118e-43 2.8084212005822153e-11 8.34477428974254e-12 1.9081005490962408e-11
          1.38621402752237e-13 1.8421299734842408e-11 6.061456781861951e-13 9.06403333075959e-12 5.718143335596972e-13 9.236858101174663e-14
          2.7618004116841147e-11 2.304645073385133e-12 1.0415555885342154e-12 1.6775067890445517e-11 1.1951260039638332e-13 1.556909153552724e-13
          4.847949956046355e-12 7.68551327538398e-14 1.2896552671916447e-11 3.9715433972209985e-14
        </DataArray>
        <DataArray type="Float64" Name="CT2" format="ascii" RangeMin="0" RangeMax="211.38537842368856">
          0 2.167961555321668 0.38229117132170043 4.886193511770325 8.461241954318941 0.3502342724739988
          0.45153348890465234 3.0663214607160265 4.323342646607061 9.254658312337195 8.171540598027383 0.0798675136532011
          0.17809293521416952 0.221949827627937 0 9.740258462469418 8.976157948135416 3.167861344891303
          15.968121265349435 14.891186854418594 0.357865176185173 1.3906844656865829 9.662927729767372 0.23294506205297738
          0.25545324612357184 15.09314820634144 12.820813928248473 2.2030780905757337 211.38537842368856 13.532003956352185
          0.5655573895887616 0.48768827001559634 3.405104243096965 0.10998363796899163 15.961488790077626 0.19027792896392323
          17.162539015202203 9.119608850978466 0.6998641121600989 9.243098642657365 14.830795822351957 0.1515037680731899
          0.16861620609069378 0.18420289988544816 0.17839003285211835 13.135862085451352 1.8539309096467095e-31 0.47708557952544794
          17.624827032095492 2.8204034932345827e-31 0.47028354109302994 0.23956930069223037 22.399837731241227 10.556809714262108
          0.13436518577785203 0.2164080187707294 1.7382014730232302 6.706034947131086e-32 0.22497231151934172 12.419255179181256
          1.157799415965514 0.2266305958729274 21.766959245801157 0.08863833859852473 0.5511684562174813 17.921236778933448
          0.7186595327175803 0.4474063191495132 1.4664909488373193e-31 26.16799508132173 7.9018112460943755 18.539441540140736
          0.1468069806491931 16.97234732515394 0.6419380761773332 9.025871022097116 0.6055790751767869 0.09782287924057567
          26.74844407686394 2.2949364469085967 1.0443715674435237 16.82212104624092 0.12656949173828572 0.16488426610950668
          4.827514963603532 0.08139332309274722 12.931377115510307 0.04206044643977233
        </DataArray>
      </PointData>
      <CellData>
        <DataArray type="UInt8" Name="vtkGhostType" format="ascii" RangeMin="0" RangeMax="0">
          0 0 0 0 0 0
          0 0 0 0 0 0
          0 0 0 0 0 0
          0 0 0 0 0 0
          0 0 0 0 0 0
          0 0 0 0 0 0
          0 0 0 0 0 0
          0 0 0 0 0 0
          0 0 0 0 0 0
          0 0 0 0 0 0
          0 0 0 0 0 0
          0 0 0 0 0 0
          0 0 0 0 0 0
          0 0 0 0 0 0
          0 0 0 0 0 0
          0 0 0 0 0 0
          0 0 0 0 0 0
          0 0 0 0 0 0
          0 0 0 0 0 0
          0 0 0 0 0 0
          0 0 0 0 0 0
          0 0 0 0 0 0
          0 0 0 0 0 0
          0 0 0 0 0 0
          0 0 0 0 0 0
          0 0 0 0 0 0
          0 0 0 0 0 0
          0 0 0 0 0 0
          0 0 0 0 0 0
          0 0 0 0 0 0
          0 0 0 0 0 0
          0 0 0 0 0 0
          0 0 0 0 0 0
          0 0 0 0 0 0
          0 0 0 0 0 0
          0 0 0 0 0 0
          0 0 0 0 0 0
          0 0 0 0 0 0
          0 0 0 0 0 0
          0 0 0 0 0
        </DataArray>
      </CellData>
      <Points>
        <DataArray type="Float32" Name="Points" NumberOfComponents="3" format="ascii" RangeMin="0" RangeMax="24.49489742783178">
          20 10 10 20 6.5 10
          16 10 10 20 10 5
          16.37211036682129 5.206768989562988 10 20 3 10
          14.333330154418945 10 5.767949104309082 17.5 2.625 10
          12 10 10 14.425399780273438 5.033590793609619 7.012404918670654
          13.360549926757812 4.658843994140625 10 20 3 5
          16.25 2.4375 7.37460994720459 15 2.25 10
          20 10 0 12.214110374450684 6.010365009307861 4.925261974334717
          14.570380210876465 5.105739116668701 2.9404709339141846 12 10 3.0717968940734863
          10 10 6.535898208618164 20 6.5 0
          16.344310760498047 2.451646089553833 3.285098075866699 16 10 0
          10.119270324707031 5.519060134887695 10 13.631239891052246 2.0446860790252686 6.215021133422852
          12.5 1.875 10 10.550640106201172 4.647356033325195 7.100153923034668
          16.37211036682129 5.206768989562988 0 8 10 10
          20 3 0 11.739009857177734 4.367464065551758 2.512845993041992
          13.663330078125 2.049499034881592 2.55780291557312 17.5 2.625 0
          12 10 0 10.661359786987305 1.5992039442062378 6.873061180114746
          9.59029769897461 6.954894065856934 2.912667989730835 10 1.5 10
          8.36054801940918 3.908843994140625 10 13.360549926757812 4.658843994140625 0
          15 2.25 0 6.61377477645874 6.690732002258301 10
          8 10 3.0717968940734863 10.999679565429688 1.6499520540237427 3.4145760536193848
          9 3 5 8 4.732050895690918 5
          8 3 6.732050895690918 10.596699714660645 5.428274154663086 0
          9 1.350000023841858 5 12.5 1.875 0
          5.6666669845581055 10 5.767949104309082 7.9958391189575195 1.1993759870529175 6.734446048736572
          7.5 1.125 10 8 3 3.267949104309082
          5.86054801940918 3.533843994140625 10 8 10 0
          6 4.732050895690918 5 6 3 6.732050895690918
          4 10 10 7.995840072631836 1.1993759870529175 3.2655539512634277
          10 1.5 0 7.719629764556885 4.535800933837891 0
          6.004158973693848 0.9006239175796509 6.734445095062256 6 3 3.267949104309082
          3.305811882019043 6.3972368240356445 10 5 3 5
          5 0.75 10 3.3605480194091797 3.158843994140625 10
          6.004159927368164 0.9006239771842957 3.2655539512634277 7.5 1.125 0
          5 0.75 5 5.535371780395508 3.26835298538208 0
          4 10 0 3.0012240409851074 5.308693885803223 3.156306028366089
          3.720721960067749 0.5581083297729492 6.921747207641602 4.087935924530029 6.566143035888672 0
          2.5 0.375 10 0 10 10
          5 0.75 0 3.3971519470214844 0.5095726847648621 3.1724090576171875
          3.3605480194091797 3.158843994140625 0 0 10 5
          0 5 10 0 4.949490070343018 5.050509929656982
          2.5 0.375 0 0 0 10
          0 10 0 0 0 5
          0 5 0 0 0 0
          <InformationKey name="L2_NORM_RANGE" location="vtkDataArray" length="2">
            <Value index="0">
              0
            </Value>
            <Value index="1">
              24.494897428
            </Value>
          </InformationKey>
        </DataArray>
      </Points>
      <Cells>
        <DataArray type="Int64" Name="connectivity" format="ascii" RangeMin="0" RangeMax="87">
          16 20 19 11 53 40
          70 73 81 63 77 71
          69 59 61 51 62 55
          52 65 66 77 69 76
          55 68 72 63 79 62
          75 80 52 55 64 65
          10 8 2 9 32 37
          21 16 47 41 30 29
          15 9 23 16 54 48
          34 40 44 42 43 25
          43 39 44 25 41 15
          23 29 62 54 81 71
          77 69 78 61 32 17
          53 34 39 54 62 48
          59 73 54 34 19 3
          21 16 11 1 4 12
          79 56 75 62 45 17
          32 34 54 59 61 73
          23 33 24 25 18 22
          39 25 23 10 24 13
          24 10 23 25 39 48
          56 27 46 42 44 33
          4 11 12 9 64 60
          52 50 40 73 54 71
          23 15 41 25 44 35
          36 50 39 18 43 48
          10 9 23 25 43 54
          39 48 23 16 30 29
          85 81 65 72 60 50
          49 55 21 17 32 16
          49 35 44 50 81 62
          79 80 39 22 36 25
          26 38 20 16 81 85
          65 80 81 63 65 72
          8 9 22 25 20 38
          30 16 46 44 49 33
          20 16 19 26 70 40
          48 73 7 4 12 13
          61 59 69 73 45 51
          58 29 52 39 36 55
          69 73 78 71 36 35
          44 25 42 15 41 29
          19 21 3 14 77 63
          61 71 78 82 77 86
          40 73 53 34 18 48
          39 27 68 61 77 63
          17 40 53 34 23 13
          12 9 49 50 44 55
          17 37 32 16 48 54
          34 43 81 77 63 85
          18 8 22 25 44 35
          49 33 36 39 44 55
          61 54 43 59 86 73
          84 71 59 45 53 34
          11 9 3 16 10 13
          23 9 52 50 60 55
          11 1 3 9 77 72
          63 85 86 81 77 71
          6 17 21 16 4 1
          11 9 54 73 61 71
          39 62 56 48 43 15
          42 29 70 48 79 71
          67 59 69 51 4 2
          3 9 37 16 17 29
          43 34 18 25 43 18
          39 25 52 62 39 55
          86 84 79 71 15 34
          17 29 12 13 4 9
          32 17 45 37 3 1
          4 9 45 34 51 29
          79 62 81 71 69 78
          61 71 45 37 17 29
          48 73 40 71 57 58
          67 51 10 2 4 9
          6 8 18 15 31 26
          20 19 67 61 57 51
          54 73 40 34 62 48
          54 71 18 27 39 22
          11 20 12 9 41 58
          57 51 56 62 79 48
          46 41 57 51 41 42
          46 33 47 37 30 38
          46 42 41 51 3 2
          4 1 43 51 59 34
          23 20 30 16 77 86
          85 81 8 15 6 9
          0 2 3 1 24 22
          10 25 41 33 23 25
          87 85 77 86 69 61
          67 51 52 60 64 55
          59 51 45 34 41 51
          42 29 39 55 62 54
          12 20 23 9 15 34
          43 25 15 16 23 29
          22 9 10 25 44 39
          43 54 44 55 39 54
          23 9 15 25 84 70
          79 71 35 33 44 25
          44 33 42 25 61 73
          69 71 84 73 70 71
          17 15 18 34 36 22
          35 25 36 50 55 44
          79 81 86 71 2 8
          6 9 18 17 6 15
          27 22 18 8 4 13
          10 9 42 51 43 29
          22 8 10 9 31 11
          28 19 15 9 8 25
          43 59 54 34 78 73
          86 71 86 77 78 71
          41 15 42 25 18 40
          17 34 54 63 81 71
          70 73 48 71 3 2
          6 9 17 34 45 29
          74 65 64 72 64 55
          60 72 64 65 55 72
          57 61 67 66 69 76
          67 66 67 61 69 66
          21 26 19 16 77 86
          82 87 24 33 35 25
          20 26 31 38 35 22
          24 25 55 68 60 72
          17 16 15 29 76 82
          77 78 77 66 69 61
          77 72 68 63 61 78
          77 71 48 40 54 71
          30 16 37 29 58 51
          41 29 61 63 54 71
          67 58 59 51 59 58
          45 51 37 26 21 16
          23 9 20 16 50 36
          55 52 43 48 18 34
          85 65 80 83 42 15
          43 25 61 59 43 51
          30 38 37 16 45 58
          47 29 43 34 15 29
          62 54 55 63 81 54
          62 63 55 72 65 63
          31 11 19 20 42 33
          41 25 3 9 6 16
          55 65 62 63 62 65
          81 63 48 40 18 34
          74 85 65 72 79 48
          62 71 11 5 1 12
          53 73 59 34 44 39
          36 25 62 80 81 65
          30 41 23 29 53 45
          32 34 3 6 21 16
          12 7 1 4 85 74
          65 83 18 15 8 25
          18 34 15 25 68 61
          66 77 6 15 17 16
          63 72 81 85 47 58
          41 29 47 37 45 29
          20 9 11 16 5 7
          1 12 69 77 78 76
          30 37 47 29 37 38
          26 16 11 3 19 16
          51 34 43 29 6 9
          15 16
        </DataArray>
        <DataArray type="Int64" Name="offsets" format="ascii" RangeMin="4" RangeMax="956">
          4 8 12 16 20 24
          28 32 36 40 44 48
          52 56 60 64 68 72
          76 80 84 88 92 96
          100 104 108 112 116 120
          124 128 132 136 140 144
          148 152 156 160 164 168
          172 176 180 184 188 192
          196 200 204 208 212 216
          220 224 228 232 236 240
          244 248 252 256 260 264
          268 272 276 280 284 288
          292 296 300 304 308 312
          316 320 324 328 332 336
          340 344 348 352 356 360
          364 368 372 376 380 384
          388 392 396 400 404 408
          412 416 420 424 428 432
          436 440 444 448 452 456
          460 464 468 472 476 480
          484 488 492 496 500 504
          508 512 516 520 524 528
          532 536 540 544 548 552
          556 560 564 568 572 576
          580 584 588 592 596 600
          604 608 612 616 620 624
          628 632 636 640 644 648
          652 656 660 664 668 672
          676 680 684 688 692 696
          700 704 708 712 716 720
          724 728 732 736 740 744
          748 752 756 760 764 768
          772 776 780 784 788 792
          796 800 804 808 812 816
          820 824 828 832 836 840
          844 848 852 856 860 864
          868 872 876 880 884 888
          892 896 900 904 908 912
          916 920 924 928 932 936
          940 944 948 952 956
        </DataArray>
        <DataArray type="UInt8" Name="types" format="ascii" RangeMin="10" RangeMax="10">
          10 10 10 10 10 10
          10 10 10 10 10 10
          10 10 10 10 10 10
          10 10 10 10 10 10
          10 10 10 10 10 10
          10 10 10 10 10 10
          10 10 10 10 10 10
          10 10 10 10 10 10
          10 10 10 10 10 10
          10 10 10 10 10 10
          10 10 10 10 10 10
          10 10 10 10 10 10
          10 10 10 10 10 10
          10 10 10 10 10 10
          10 10 10 10 10 10
          10 10 10 10 10 10
          10 10 10 10 10 10
          10 10 10 10 10 10
          10 10 10 10 10 10
          10 10 10 10 10 10
          10 10 10 10 10 10
          10 10 10 10 10 10
          10 10 10 10 10 10
          10 10 10 10 10 10
          10 10 10 10 10 10
          10 10 10 10 10 10
          10 10 10 10 10 10
          10 10 10 10 10 10
          10 10 10 10 10 10
          10 10 10 10 10 10
          10 10 10 10 10 10
          10 10 10 10 10 10
          10 10 10 10 10 10
          10 10 10 10 10 10
          10 10 10 10 10 10
          10 10 10 10 10 10
          10 10 10 10 10 10
          10 10 10 10 10 10
          10 10 10 10 10 10
          10 10 10 10 10
        </DataArray>
      </Cells>
    </Piece>
  </UnstructuredGrid>
</VTKFile>
