<?xml version="1.0"?>
<VTKFile type="UnstructuredGrid" version="0.1" byte_order="LittleEndian" header_type="UInt32" compressor="vtkZLibDataCompressor">
  <UnstructuredGrid>
    <Piece NumberOfPoints="48" NumberOfCells="30">
      <PointData>
        <DataArray type="Float64" Name="sld_BC" NumberOfComponents="3" format="ascii" RangeMin="0" RangeMax="0">
          0 0 0 0 0 0
          0 0 0 0 0 0
          0 0 0 0 0 0
          0 0 0 0 0 0
          0 0 0 0 0 0
          0 0 0 0 0 0
          0 0 0 0 0 0
          0 0 0 0 0 0
          0 0 0 0 0 0
          0 0 0 0 0 0
          0 0 0 0 0 0
          0 0 0 0 0 0
          0 0 0 0 0 0
          0 0 0 0 0 0
          0 0 0 0 0 0
          0 0 0 0 0 0
          0 0 0 0 0 0
          0 0 0 0 0 0
          0 0 0 0 0 0
          0 0 0 0 0 0
          0 0 0 0 0 0
          0 0 0 0 0 0
          0 0 0 0 0 0
          0 0 0 0 0 0
          <InformationKey name="L2_NORM_RANGE" location="vtkDataArray" length="2">
            <Value index="0">
              0
            </Value>
            <Value index="1">
              0
            </Value>
          </InformationKey>
        </DataArray>
        <DataArray type="Float64" Name="sld_FIXNO" NumberOfComponents="3" format="ascii" RangeMin="1.4142135623730951" RangeMax="1.4142135623730951">
          -1 -1 0 -1 -1 0
          -1 -1 0 -1 -1 0
          -1 -1 0 -1 -1 0
          -1 -1 0 -1 -1 0
          -1 -1 0 -1 -1 0
          -1 -1 0 -1 -1 0
          -1 -1 0 -1 -1 0
          -1 -1 0 -1 -1 0
          -1 -1 0 -1 -1 0
          -1 -1 0 -1 -1 0
          -1 -1 0 -1 -1 0
          -1 -1 0 -1 -1 0
          -1 -1 0 -1 -1 0
          -1 -1 0 -1 -1 0
          -1 -1 0 -1 -1 0
          -1 -1 0 -1 -1 0
          -1 -1 0 -1 -1 0
          -1 -1 0 -1 -1 0
          -1 -1 0 -1 -1 0
          -1 -1 0 -1 -1 0
          -1 -1 0 -1 -1 0
          -1 -1 0 -1 -1 0
          -1 -1 0 1 1 0
          1 1 0 1 1 0
          <InformationKey name="L2_NORM_RANGE" location="vtkDataArray" length="2">
            <Value index="0">
              1.4142135624
            </Value>
            <Value index="1">
              1.4142135624
            </Value>
          </InformationKey>
        </DataArray>
        <DataArray type="Float64" Name="Disp" NumberOfComponents="3" format="ascii" RangeMin="0" RangeMax="0.0002750362559246442">
          0.00010794283800663875 -0.0002529689423548253 0 0.00001387887496241546 -0.00019981419649684536 0
          -0.000058967660762276254 -0.00018264755300659676 0 0.000028120562740504777 0.000013232306277005507 0
          -0.000009560501038236913 0.000013695995829237361 0 -0.0000386815743780246 0.000006558876758176011 0
          -0.0000029820105789005506 0.000007746492909258931 0 -0.0000015388293243997911 0.000009734104098360593 0
          -0.0000018667917034830493 0.000005809011952648477 0 -0.0000021168268762559737 -5.163197369007441e-7 0
          -1.385820809843451e-7 -0.0000014258427416636974 0 0.0000017491558529139152 -7.263563053733996e-7 0
          2.1800715680285725e-7 -2.3389561977355005e-7 0 -1.9038042312023646e-8 -2.568397092002222e-7 0
          -2.569519483447255e-7 -2.4447630067860225e-7 0 4.673359230776568e-8 5.0785704807382184e-8 0
          -2.532169555338472e-9 7.960408336940083e-8 0 -5.458575951809225e-8 4.558792256169231e-8 0
          -1.4208067765121141e-8 4.170777371626906e-9 0 4.746141385942947e-11 2.0403170838564877e-9 0
          1.4157775496624896e-8 4.3451958759426345e-9 0 -4.5799066368821175e-10 -2.354263150805618e-9 0
          -5.128869849015192e-11 -3.412199099116516e-9 0 3.90497653518149e-10 -2.4016675641712153e-9 0
          5.867964549264464e-10 1.6355673450185362e-10 0 1.9734021690777625e-12 3.729407188143426e-10 0
          -5.940989896418229e-10 1.5899578586943903e-10 0 -5.723157921572835e-11 5.2568246975035646e-11 0
          -1.5974059241006033e-13 6.645055019565639e-11 0 5.806717026427423e-11 5.357996098761361e-11 0
          -1.3603206418746838e-11 -8.870516973278524e-12 0 -7.712738000848823e-14 -1.893868835894223e-11 0
          1.3380389941510985e-11 -9.103046673650277e-12 0 3.626037778905496e-12 -1.3760710451634144e-12 0
          1.4650854244470825e-14 -3.4245740237715966e-13 0 -3.6109108264275494e-12 -1.3519661368663404e-12 0
          9.79974872384612e-16 6.028673296263371e-13 0 -2.3330819397518923e-15 7.447154211097412e-13 0
          -1.3946609764975218e-15 6.013079862232123e-13 0 -1.147023987065874e-13 -5.7894660722855e-14 0
          1.904293009715914e-16 -9.287273842358385e-14 0 1.1437364963296095e-13 -5.807398947830133e-14 0
          1.1596611272524638e-14 -6.0438182290380875e-15 0 -5.095411822821744e-19 -9.394193932430063e-15 0
          -1.1527430460760687e-14 -5.982805033007363e-15 0 0 0 0
          0 0 0 0 0 0
          <InformationKey name="L2_NORM_RANGE" location="vtkDataArray" length="2">
            <Value index="0">
              0
            </Value>
            <Value index="1">
              0.00027503625592
            </Value>
          </InformationKey>
        </DataArray>
        <DataArray type="Float64" Name="Sld_traction" NumberOfComponents="3" format="ascii" RangeMin="0" RangeMax="3606.36648335027">
          -2118.6422161513156 -2737.338374366273 0 -3579.2400853539657 -441.49702561572 0
          -386.51315387420397 2882.3874895520426 0 -732.6602003145962 1957.8338301275694 0
          0 0 0 442.83136495688007 1633.725393893378 0
          395.7655145107049 915.7778483595993 0 0 0 0
          -316.00318468885246 622.1631629928257 0 9.284158842866535 -53.0174208483952 0
          0 0 0 -6.489918985361222 13.052512663598714 0
          -14.233667867507746 -43.83842070990158 0 0 0 0
          15.611758545133783 -41.33020668896074 0 0.9554920034645707 5.413601907701228 0
          0 0 0 -0.9417811839640373 5.515608350714045 0
          0.49968728594627837 1.0547392618575142 0 0 0 0
          -0.4724534269824039 1.1600426199723823 0 -0.08466842034820969 -0.32460034016351974 0
          0 0 0 0.08262217178486343 -0.32375120804598834 0
          -0.010083973524916882 -0.006800209047462309 0 0 0 0
          0.01052823563135136 -0.007112086520106563 0 0.004700529699599731 0.012915086152289031 0
          0 0 0 -0.00471010107575151 0.013180298501237005 0
          -0.00032006211649779386 -0.0013328361893039267 0 0 0 0
          0.00031673315149395836 -0.001362613288167879 0 -0.00009351849573950569 -0.00029176428145417623 0
          0 0 0 0.00009497764296651913 -0.0002891444090187639 0
          0.00001516526254768362 0.00008155494616470785 0 0 0 0
          -0.000015407022975412097 0.00008177827456645758 0 0.000002799770973165741 -3.826896224361809e-7 0
          0 0 0 -0.0000027700996351532935 -4.7351674976624637e-7 0
          -0.0000011893837370892171 -0.000002482588964324009 0 0 0 0
          0.0000011877261844308069 -0.000002465246760841379 0 -2.5178292701546494e-7 9.750304408198234e-7 0
          -1.4918979576212831e-9 1.7664499705765888e-7 0 2.499899329453598e-7 9.751037037112754e-7 0
          <InformationKey name="L2_NORM_RANGE" location="vtkDataArray" length="2">
            <Value index="0">
              0
            </Value>
            <Value index="1">
              3606.3664834
            </Value>
          </InformationKey>
        </DataArray>
        <DataArray type="Float64" Name="Velocity" NumberOfComponents="3" format="ascii" RangeMin="0" RangeMax="0.1263673343662503">
          0.05395382690356816 -0.10586739091406652 0 0.005480057801333473 -0.11785145757223231 0
          -0.04239307997366577 -0.11904423532946937 0 0.025907882768764556 -0.008268676629913936 0
          -0.0007132912406097084 0.0020127617173348314 0 -0.026052995635890815 -0.000036860794690851423 0
          -0.001919805223857825 0.008969674084747702 0 -0.0024428612742806027 0.009145013797615382 0
          -0.0022595539974237804 0.006396285802354532 0 -0.0018400135590710338 -0.0006522328340616198 0
          -0.00003314798127146083 -0.0011029318541729294 0 0.0013402151939551333 -0.0008873359311486604 0
          0.00013100418962039832 -0.00016786179628069437 0 -0.000021092713796627393 -0.00026301910057237906 0
          -0.0001394705480155488 -0.00015601426402524362 0 0.0000555724887196992 0.00003124633054622313 0
          -0.0000034241975190697982 0.0000684412778199051 0 -0.00006644656390525346 0.00002237425107422438 0
          -0.000014019587886662549 0.0000074822190381212984 0 2.97003531092706e-7 0.00000403846944251555 0
          0.000014186973832768639 0.000008094435899561401 0 -4.3931098649677875e-7 -0.000002777487176076011 0
          -8.577748546313742e-8 -0.000003433255912050145 0 3.8317152637724284e-7 -0.000002852027843073356 0
          5.193784323250735e-7 2.3826987045338948e-7 0 5.238468281622552e-9 3.397358606800193e-7 0
          -5.320000202180277e-7 2.3246763670266605e-7 0 -3.779843809906794e-8 3.1981897197450135e-8 0
          -2.567295960031396e-10 6.68435933686536e-8 0 3.959330740852335e-8 3.3713868609059277e-8 0
          -1.632588379555629e-8 -3.893587703938716e-9 0 -1.0894674511045348e-10 -1.7268425357910128e-8 0
          1.5995102592524522e-8 -4.252923278770521e-9 0 3.853496862628231e-9 -2.2891322251987726e-9 0
          2.2904868582469942e-11 -6.973959277668563e-10 0 -3.831391512806057e-9 -2.250418112129926e-9 0
          -3.7301610071644545e-11 7.464490296504084e-10 0 -3.5111779639441802e-12 7.68096715938868e-10 0
          3.722462228028618e-11 7.439427588340142e-10 0 -9.951091323221871e-11 -8.332018957615368e-11 0
          2.9917289017573216e-13 -9.136119201032262e-11 0 9.899808043846887e-11 -8.353968336462998e-11 0
          7.474915575123826e-12 -5.626260307014782e-13 0 -2.4658123572568353e-15 -8.916119209705975e-12 0
          -7.367290912674836e-12 -4.824809651487029e-13 0 0 0 0
          0 0 0 0 0 0
          <InformationKey name="L2_NORM_RANGE" location="vtkDataArray" length="2">
            <Value index="0">
              0
            </Value>
            <Value index="1">
              0.12636733437
            </Value>
          </InformationKey>
        </DataArray>
      </PointData>
      <CellData>
        <DataArray type="UInt8" Name="vtkGhostType" format="ascii" RangeMin="0" RangeMax="0">
          0 0 0 0 0 0
          0 0 0 0 0 0
          0 0 0 0 0 0
          0 0 0 0 0 0
          0 0 0 0 0 0
        </DataArray>
        <DataArray type="Float64" Name="Gauss Stress" NumberOfComponents="6" format="ascii" RangeMin="0.0000014748320052331829" RangeMax="4167.35458734638">
          0.0000010784706461201471 9.982015214397926e-7 0 1.2499692681264795e-7 0 0
          -0.0000010803580252634744 -0.0000010046408149839966 0 1.2389376034524868e-7 0 0
          -0.000004250821916700954 3.602118603286668e-7 0 -0.0000040281762139431846 0 0
          0.000004261757613461321 -3.4300340346878535e-7 0 -0.000004014758698479744 0 0
          -0.0000034330871480024197 -0.000011194489779749833 0 0.000013218109690644578 0 0
          0.0000032787106362178705 0.000011236678254380916 0 0.000013114819569761849 0 0
          0.0001159114470947257 -0.00002068073491091939 0 0.00005761088115452534 0 0
          -0.0001149919048995074 0.000019415191668087173 0 0.00005813314564945236 0 0
          -0.00020683282911866034 0.0006149913905439538 0 -0.0005266055124084966 0 0
          0.00020065721260547416 -0.000601739547659201 0 -0.0005272788413716924 0 0
          -0.0031833153964993433 -0.002440054554090517 0 -0.00019631962726361247 0 0
          0.003162651078240644 0.002361346445243914 0 -0.000210189582936675 0 0
          0.019092719834329842 -0.005877044602630327 0 0.017653888851765127 0 0
          -0.018985984978847223 0.006243969575878207 0 0.017846710578386316 0 0
          0.014469226731414299 0.08035882101613215 0 -0.06288455631357302 0 0
          -0.019959262834554514 -0.0796883857043888 0 -0.06393815583366184 0 0
          -0.5562187852466263 -0.10511294990124398 0 -0.23859438441537553 0 0
          0.5572807985012339 0.09523623174269705 0 -0.23347102789684482 0 0
          1.0722388885935712 -1.5091714505446763 0 2.201912255407449 0 0
          -1.4007480798719365 1.7087690921854188 0 2.2178434993220453 0 0
          9.333718169871293 5.733078780110428 0 0.5219948043185175 0 0
          -11.864136292737149 -6.10490277574524 0 0.5559670661895586 0 0
          -64.08857818644475 34.972224722800036 0 -59.03778664708484 0 0
          49.73853711454278 -26.168242174201243 0 -58.881677881171974 0 0
          -252.91934786875296 -258.35010227924636 0 121.9741803979814 0 0
          0.9940720213774341 269.5074791424183 0 150.01861039913942 0 0
          1234.505075727016 616.7444362011656 0 1006.4475814130961 0 0
          -1768.642562818212 -258.5747895307302 0 787.2420776476596 0 0
          1397.8509620329899 -3461.496743799604 0 -1852.2681332045586 0 0
          -702.2344489082013 -1248.0017546462434 0 -1755.4703950797038 0 0
          <InformationKey name="L2_NORM_RANGE" location="vtkDataArray" length="2">
            <Value index="0">
              1.4748320052e-06
            </Value>
            <Value index="1">
              4167.3545873
            </Value>
          </InformationKey>
        </DataArray>
        <DataArray type="Float64" Name="Gauss Strain" NumberOfComponents="6" format="ascii" RangeMin="3.8885679453085455e-13" RangeMax="0.005063072526107673">
          2.4780177909633494e-13 1.6753265441593612e-13 0 2.4999385362515375e-13 0 0
          -2.4635848916432224e-13 -1.7064127888488656e-13 0 2.477875206906395e-13 0 0
          -2.694566791916486e-12 1.9164669851079452e-12 0 -8.056352427888694e-12 0 0
          2.69428923616033e-12 -1.9104717807749694e-12 0 -8.029517396957082e-12 0 0
          2.4179547253311284e-12 -5.343447906369647e-12 0 2.643621938138709e-11 0 0
          -2.527422715559169e-12 5.4305449026514915e-12 0 2.6229639139427656e-11 0 0
          7.781919553195848e-11 -5.877298647760654e-11 0 1.1522176231002702e-10 0 0
          -7.676120850064193e-11 5.764588806300707e-11 0 1.1626629129803174e-10 0 0
          -3.7009623143902104e-10 4.517279883486936e-10 0 -1.0532110245435167e-9 0 0
          3.610901577744131e-10 -4.4130660237229336e-10 0 -1.0545576830105626e-9 0 0
          -9.339674034158918e-10 -1.9070656165354194e-10 0 -3.926392559966505e-10 0 0
          9.53052081698047e-10 1.5174744794066436e-10 0 -4.2037916440709633e-10 0 0
          1.3806449025710599e-8 -1.1163315327689107e-8 0 3.530777773388075e-8 0 0
          -1.3889179584225532e-8 1.1340775069035304e-8 0 3.5693421118076816e-8 0 0
          -2.3461997594731443e-8 4.2427594257321566e-8 0 -1.2576910900347973e-7 0 0
          1.989979135641473e-8 -3.982933380330955e-8 0 -1.278763154682656e-7 0 0
          -2.916863119928337e-7 1.5941961123422388e-7 0 -4.771888173087144e-7 0 0
          2.962737668532612e-7 -1.6577071257350973e-7 0 -4.669420122917039e-7 0 0
          0.0000012470031088701594 -0.0000013344076400523264 0 0.000004403826833106721 0 0
          -0.0000015239663062049935 0.000001585550241156586 0 0.000004435684357082292 0 0
          0.0000033069803006130494 -2.9364510586993287e-7 0 0.0000010439768833107255 0 0
          -0.000004676549924226281 0.000001082707754784806 0 0.0000011119466234434185 0 0
          -0.000052450893979316675 0.000046610578132016967 0 -0.00011807432577958967 0 0
          0.000040302949453480126 -0.00003560317819448211 0 -0.00011776424047895032 0 0
          -0.00004842474535818319 -0.000053863007720381106 0 0.00024397483620623858 0 0
          -0.00010724285808705325 0.00016123895888352222 0 0.0003000109025492208 0 0
          0.0004920678534987843 -0.00012523356046617584 0 0.0020120927499700856 0 0
          -0.0009597380325609972 0.0005510606161546194 0 0.001575032251169346 0 0
          0.002212866715106482 -0.0026503390333916794 0 -0.003703191503808659 0 0
          0.00007372623090479147 -0.0004724538063957534 0 -0.003511282073754197 0 0
          <InformationKey name="L2_NORM_RANGE" location="vtkDataArray" length="2">
            <Value index="0">
              3.8885679453e-13
            </Value>
            <Value index="1">
              0.0050630725261
            </Value>
          </InformationKey>
        </DataArray>
        <DataArray type="Float64" Name="Btraction" NumberOfComponents="3" format="ascii" RangeMin="0" RangeMax="0">
          0 0 0 0 0 0
          0 0 0 0 0 0
          0 0 0 0 0 0
          0 0 0 0 0 0
          0 0 0 0 0 0
          0 0 0 0 0 0
          0 0 0 0 0 0
          0 0 0 0 0 0
          0 0 0 0 0 0
          0 0 0 0 0 0
          0 0 0 0 0 0
          0 0 0 0 0 0
          0 0 0 0 0 0
          0 0 0 0 0 0
          0 0 0 0 0 0
          <InformationKey name="L2_NORM_RANGE" location="vtkDataArray" length="2">
            <Value index="0">
              0
            </Value>
            <Value index="1">
              0
            </Value>
          </InformationKey>
        </DataArray>
      </CellData>
      <Points>
        <DataArray type="Float32" Name="Points" NumberOfComponents="3" format="ascii" RangeMin="0.31320268577451565" RangeMax="0.6356886233499035">
          0.6000000238418579 0.20999999344348907 0 0.6000000238418579 0.20000000298023224 0
          0.6000000238418579 0.1899999976158142 0 0.5765992999076843 0.20999999344348907 0
          0.5765992999076843 0.20000000298023224 0 0.5765992999076843 0.1899999976158142 0
          0.5531985759735107 0.20999999344348907 0 0.5531985759735107 0.20000000298023224 0
          0.5531985759735107 0.1899999976158142 0 0.5297979712486267 0.20999999344348907 0
          0.5297979712486267 0.20000000298023224 0 0.5297979712486267 0.1899999976158142 0
          0.5063973069190979 0.20999999344348907 0 0.5063973069190979 0.20000000298023224 0
          0.5063973069190979 0.1899999976158142 0 0.4829966127872467 0.20999999344348907 0
          0.4829966127872467 0.20000000298023224 0 0.4829966127872467 0.1899999976158142 0
          0.4595958888530731 0.20999999344348907 0 0.4595958888530731 0.20000000298023224 0
          0.4595958888530731 0.1899999976158142 0 0.4361951947212219 0.20999999344348907 0
          0.4361951947212219 0.20000000298023224 0 0.4361951947212219 0.1899999976158142 0
          0.4127945899963379 0.20999999344348907 0 0.4127945899963379 0.20000000298023224 0
          0.4127945899963379 0.1899999976158142 0 0.3893938958644867 0.20999999344348907 0
          0.3893938958644867 0.20000000298023224 0 0.3893938958644867 0.1899999976158142 0
          0.3659932017326355 0.20999999344348907 0 0.3659932017326355 0.20000000298023224 0
          0.3659932017326355 0.1899999976158142 0 0.3425925076007843 0.20999999344348907 0
          0.3425925076007843 0.20000000298023224 0 0.3425925076007843 0.1899999976158142 0
          0.3191918134689331 0.20999999344348907 0 0.3191918134689331 0.20000000298023224 0
          0.3191918134689331 0.1899999976158142 0 0.2957912087440491 0.20999999344348907 0
          0.2957912087440491 0.20000000298023224 0 0.2957912087440491 0.1899999976158142 0
          0.2723905146121979 0.20999999344348907 0 0.2723905146121979 0.20000000298023224 0
          0.2723905146121979 0.1899999976158142 0 0.24898980557918549 0.20999999344348907 0
          0.24898980557918549 0.20000000298023224 0 0.24898980557918549 0.1899999976158142 0
          <InformationKey name="L2_NORM_RANGE" location="vtkDataArray" length="2">
            <Value index="0">
              0.31320268577
            </Value>
            <Value index="1">
              0.63568862335
            </Value>
          </InformationKey>
        </DataArray>
      </Points>
      <Cells>
        <DataArray type="Int64" Name="connectivity" format="ascii" RangeMin="0" RangeMax="47">
          46 43 42 45 47 44
          43 46 43 40 39 42
          44 41 40 43 40 37
          36 39 41 38 37 40
          37 34 33 36 38 35
          34 37 34 31 30 33
          35 32 31 34 31 28
          27 30 32 29 28 31
          28 25 24 27 29 26
          25 28 25 22 21 24
          26 23 22 25 22 19
          18 21 23 20 19 22
          19 16 15 18 20 17
          16 19 16 13 12 15
          17 14 13 16 13 10
          9 12 14 11 10 13
          10 7 6 9 11 8
          7 10 7 4 3 6
          8 5 4 7 4 1
          0 3 5 2 1 4
        </DataArray>
        <DataArray type="Int64" Name="offsets" format="ascii" RangeMin="4" RangeMax="120">
          4 8 12 16 20 24
          28 32 36 40 44 48
          52 56 60 64 68 72
          76 80 84 88 92 96
          100 104 108 112 116 120
        </DataArray>
        <DataArray type="UInt8" Name="types" format="ascii" RangeMin="9" RangeMax="9">
          9 9 9 9 9 9
          9 9 9 9 9 9
          9 9 9 9 9 9
          9 9 9 9 9 9
          9 9 9 9 9 9
        </DataArray>
      </Cells>
    </Piece>
  </UnstructuredGrid>
</VTKFile>
