<?xml version="1.0"?>
<VTKFile type="UnstructuredGrid" version="0.1" byte_order="LittleEndian" header_type="UInt32" compressor="vtkZLibDataCompressor">
  <UnstructuredGrid>
    <Piece NumberOfPoints="48" NumberOfCells="30">
      <PointData>
        <DataArray type="Float64" Name="sld_BC" NumberOfComponents="3" format="ascii" RangeMin="0" RangeMax="0">
          0 0 0 0 0 0
          0 0 0 0 0 0
          0 0 0 0 0 0
          0 0 0 0 0 0
          0 0 0 0 0 0
          0 0 0 0 0 0
          0 0 0 0 0 0
          0 0 0 0 0 0
          0 0 0 0 0 0
          0 0 0 0 0 0
          0 0 0 0 0 0
          0 0 0 0 0 0
          0 0 0 0 0 0
          0 0 0 0 0 0
          0 0 0 0 0 0
          0 0 0 0 0 0
          0 0 0 0 0 0
          0 0 0 0 0 0
          0 0 0 0 0 0
          0 0 0 0 0 0
          0 0 0 0 0 0
          0 0 0 0 0 0
          0 0 0 0 0 0
          0 0 0 0 0 0
          <InformationKey name="L2_NORM_RANGE" location="vtkDataArray" length="2">
            <Value index="0">
              0
            </Value>
            <Value index="1">
              0
            </Value>
          </InformationKey>
        </DataArray>
        <DataArray type="Float64" Name="sld_FIXNO" NumberOfComponents="3" format="ascii" RangeMin="1.4142135623730951" RangeMax="1.4142135623730951">
          -1 -1 0 -1 -1 0
          -1 -1 0 -1 -1 0
          -1 -1 0 -1 -1 0
          -1 -1 0 -1 -1 0
          -1 -1 0 -1 -1 0
          -1 -1 0 -1 -1 0
          -1 -1 0 -1 -1 0
          -1 -1 0 -1 -1 0
          -1 -1 0 -1 -1 0
          -1 -1 0 -1 -1 0
          -1 -1 0 -1 -1 0
          -1 -1 0 -1 -1 0
          -1 -1 0 -1 -1 0
          -1 -1 0 -1 -1 0
          -1 -1 0 -1 -1 0
          -1 -1 0 -1 -1 0
          -1 -1 0 -1 -1 0
          -1 -1 0 -1 -1 0
          -1 -1 0 -1 -1 0
          -1 -1 0 -1 -1 0
          -1 -1 0 -1 -1 0
          -1 -1 0 -1 -1 0
          -1 -1 0 1 1 0
          1 1 0 1 1 0
          <InformationKey name="L2_NORM_RANGE" location="vtkDataArray" length="2">
            <Value index="0">
              1.4142135624
            </Value>
            <Value index="1">
              1.4142135624
            </Value>
          </InformationKey>
        </DataArray>
        <DataArray type="Float64" Name="Disp" NumberOfComponents="3" format="ascii" RangeMin="0" RangeMax="0.0024713838598016675">
          0.0003889363305533565 -0.0024355435748384334 0 -0.000041623208945260905 -0.0024276213228663847 0
          -0.00047343477417516094 -0.002425612849794852 0 0.0003979050734212662 -0.0014500804014863354 0
          -0.000015411185714315053 -0.0014368033882099182 0 -0.0004311452124764637 -0.0014316545066061024 0
          0.00034627518045946644 -0.000513993680193352 0 -0.0000033455278554324556 -0.0004900945280199902 0
          -0.0003533634278563274 -0.0004973842465554173 0 0.00020375210669502152 0.00021776334269904633 0
          0.000008177158918046394 0.00024394908161043584 0 -0.00018739406905129107 0.0002154700098637352 0
          0.0000174771576483321 0.0004351390217260722 0 0.000016698040138531494 0.00045880717018977854 0
          0.000013419254700682279 0.00043513970502334084 0 -0.0000904901076164629 0.00020892015719037747 0
          0.000008323927504307981 0.00021614970337561137 0 0.0001076694863071425 0.00021607027044745947 0
          -0.00005580282292703319 -0.00006067803910360266 0 0.000005799731569974912 -0.00007196591435851122 0
          0.00006816755832512874 -0.00006140332436193848 0 0.00001715760715490241 -0.00008592051620947022 0
          0.000006985612221296935 -0.00009203526643040162 0 -0.0000041448531692409815 -0.00008479145150472867 0
          0.000022837279744328883 0.000001751610293745933 0 0.0000017620332476926636 0.000005885759286755242 0
          -0.00001920562773145222 0.000005551016249304536 0 -0.000002482699999539165 0.000017591256446082883 0
          -0.0000027609238554127227 0.00002037717233093282 0 -0.0000024402997027298274 0.000018665461878052018 0
          -0.000006844612308955808 -4.525330598370081e-7 0 -0.0000026421275037353648 -0.0000012971671052291186 0
          0.0000017206680701494025 -0.000001223876219156246 0 -0.0000012084027661860578 -0.0000023374715946405985 0
          -0.0000012147186639796686 -0.000003116699181022792 0 -0.0000013070650688170995 -0.0000030259616009174887 0
          2.1841643980425704e-7 4.412306851161007e-7 0 -3.896772549738809e-7 4.069906257870478e-7 0
          -0.0000010649706463348793 1.613464608957266e-7 0 -1.6538700639558955e-7 3.302093856171682e-7 0
          -1.0073792040271938e-7 3.429181486175191e-7 0 -6.031682059365064e-8 2.478003304302142e-7 0
          -9.436355662396547e-8 -4.82441018370689e-8 0 -2.016534107163487e-8 -7.850796918529692e-8 0
          4.656170718590383e-8 -7.084525055178409e-8 0 0 0 0
          0 0 0 0 0 0
          <InformationKey name="L2_NORM_RANGE" location="vtkDataArray" length="2">
            <Value index="0">
              0
            </Value>
            <Value index="1">
              0.0024713838598
            </Value>
          </InformationKey>
        </DataArray>
        <DataArray type="Float64" Name="Sld_traction" NumberOfComponents="3" format="ascii" RangeMin="0" RangeMax="7487.969234545379">
          481.40650392970457 672.9171810293102 0 234.67166457488418 372.9721190413639 0
          -203.2935866919016 110.6270651372207 0 -133.29088889904577 1735.0056569110998 0
          0 0 0 343.03089271070814 1693.5027292591153 0
          -827.1397859314677 4524.535278594447 0 0 0 0
          1099.2144430529459 4821.899291988463 0 -466.12663727329294 7473.446943380437 0
          0 0 0 734.6880431113882 7411.06362060135 0
          950.746814471134 6228.565725897151 0 0 0 0
          -867.8658591677885 6390.265376051575 0 1474.4478512359121 1262.205937095237 0
          0 0 0 -1518.633833940342 1468.8587337486101 0
          374.38099737714657 -2294.395316862935 0 0 0 0
          -380.678888832827 -2414.3619453142596 0 -663.4689067744379 -1776.7187185875885 0
          0 0 0 689.9310905262306 -1776.8318368706991 0
          -316.98687367199483 187.79096990254519 0 0 0 0
          314.6479546237673 273.254191584434 0 173.9280473010586 546.8130428060398 0
          0 0 0 -199.80913971135584 538.5071082314063 0
          75.06788318542905 14.39121635450954 0 0 0 0
          -84.53433667718967 -18.300820624554397 0 -39.282165129076766 -102.05838757385096 0
          0 0 0 42.46041333424202 -109.52133786239698 0
          -8.72158258943343 0.6057894079330096 0 0 0 0
          12.032516994566109 3.9230997940789214 0 7.523344709137969 14.049677322492212 0
          0 0 0 -6.204613495922865 16.578263678985035 0
          0.5157818444269049 -1.6501613723911912 0 0 0 0
          -0.08632121358436898 -0.645844189767274 0 1.084031685220351 -3.1569583085563084 0
          2.7448649524674065 1.5424091018464865 0 0.9062361539999552 -1.7816527113456788 0
          <InformationKey name="L2_NORM_RANGE" location="vtkDataArray" length="2">
            <Value index="0">
              0
            </Value>
            <Value index="1">
              7487.9692345
            </Value>
          </InformationKey>
        </DataArray>
        <DataArray type="Float64" Name="Velocity" NumberOfComponents="3" format="ascii" RangeMin="0" RangeMax="0.10059133344724983">
          0.011112107151334248 -0.09997568424048453 0 -0.006175543026281993 -0.08426794183433682 0
          -0.012342814251140501 -0.0872631508670246 0 0.007919069726476703 -0.08103623647850802 0
          -0.003943175923609906 -0.08728650461030886 0 -0.011311626283074494 -0.08877532586116492 0
          0.02067747460046379 -0.09322319292917575 0 0.004067181298264812 -0.0918879099442133 0
          -0.013851062730667949 -0.08824851524831993 0 0.02040589592134191 -0.05088736011655513 0
          -0.008738824866294676 -0.048596603425291464 0 -0.03619434013875466 -0.04475687400720238 0
          0.022370606383276936 0.040764464855069654 0 0.0006219777871144198 0.03836475336975155 0
          -0.02094627066525668 0.030669963738571625 0 0.0026373795716509753 0.06795264240527182 0
          0.006594373665341353 0.07361586079326751 0 0.008237891801233806 0.07206275719368435 0
          -0.02055961669679312 0.02171030897846312 0 -0.0022263104389864236 0.023258167149248263 0
          0.01783908458589132 0.024284906838288253 0 -0.006211732723847086 -0.02685306879005318 0
          0.0012373450474417028 -0.031399554255644724 0 0.008608782723898046 -0.030613436485131727 0
          0.010548840618247908 -0.01182339030357608 0 0.004068725169555654 -0.012110823216429317 0
          -0.0032096909880139062 -0.010980199838865709 0 0.003985663617599003 0.00704563041374389 0
          0.0008960589577034098 0.009025589606186012 0 -0.0020104568084065126 0.008898205452360381 0
          -0.0025323123107603646 0.0018478711966028079 0 -0.0008816398457011526 0.002147709897837399 0
          0.0010363620937428601 0.0020871043965635643 0 -0.0011918301263311169 -0.001437291691502719 0
          -0.0006678168971597171 -0.0018495994576884557 0 -0.0001275032283243525 -0.001719431975057735 0
          0.00008634320079940763 -0.00004136363984053002 0 -0.00025425451154287727 -0.00012931113117439113 0
          -0.0006266342961904702 -0.00020746448968648836 0 -0.00003650185669013509 0.000247386127569668 0
          -0.0000720433192015695 0.0002652933686615486 0 -0.00012264188162249367 0.00019132997004078626 0
          -0.00006668612659808079 -0.0000030220567731255473 0 -0.00001524416921236514 -0.00001825953131118525 0
          0.000030908850727450816 -0.000019806510923457347 0 0 0 0
          0 0 0 0 0 0
          <InformationKey name="L2_NORM_RANGE" location="vtkDataArray" length="2">
            <Value index="0">
              0
            </Value>
            <Value index="1">
              0.10059133345
            </Value>
          </InformationKey>
        </DataArray>
      </PointData>
      <CellData>
        <DataArray type="UInt8" Name="vtkGhostType" format="ascii" RangeMin="0" RangeMax="0">
          0 0 0 0 0 0
          0 0 0 0 0 0
          0 0 0 0 0 0
          0 0 0 0 0 0
          0 0 0 0 0 0
        </DataArray>
        <DataArray type="Float64" Name="Gauss Stress" NumberOfComponents="6" format="ascii" RangeMin="3.3925976352900524" RangeMax="8068.079437511648">
          -4.315015112560631 -0.3546998329708695 0 -3.2091061633487827 0 0
          0.9257354063501438 -0.021410494764258103 0 -3.2637822021573895 0 0
          -7.961661088403767 -3.8446452247553387 0 5.074265361065553 0 0
          -3.270095853795299 5.108010146911107 0 5.227763395001231 0 0
          8.234085597822922 7.283175876279196 0 15.456697713307468 0 0
          -48.84508606246741 -4.16726516330679 0 15.633138766531822 0 0
          -62.99492079383083 25.8023150383262 0 -51.96751705104559 0 0
          -52.9031327276778 -22.34681804252595 0 -52.50456234084823 0 0
          -290.3814165579763 -58.27765292518109 0 -65.34677614627793 0 0
          86.22962036742916 43.80824668429513 0 -68.06592322362296 0 0
          78.16218194384196 -109.23511884331364 0 326.2698086978407 0 0
          -110.07208883001721 63.655184307570444 0 326.91046493369714 0 0
          1222.1643180909628 238.1466112144447 0 209.3441057135422 0 0
          -578.5414652051422 -215.12269261223585 0 221.4153765009716 0 0
          182.13335156058974 297.4688921929446 0 -1201.389897772871 0 0
          623.1088112642692 -148.9713115799124 0 -1209.892507674807 0 0
          -3009.1102004960694 -558.4313513172394 0 -804.1357411227586 0 0
          2782.309333027775 368.30403386844125 0 -814.2981691371649 0 0
          -1434.2442222966401 -505.7074062204086 0 1943.7428239208332 0 0
          1871.5983039117114 489.68582374784944 0 2006.2109155236164 0 0
          4466.169296985027 472.1630721627878 0 2572.080256087074 0 0
          -3031.0939328177797 25.386655590835232 0 2520.8198319673106 0 0
          6611.254994519985 306.640246284197 0 260.8538434290424 0 0
          -8005.144921372048 -937.8726088503586 0 363.2568889887791 0 0
          5447.427616527397 260.06634552264313 0 -2105.791974177364 0 0
          -5759.725106419082 -80.20187374083798 0 -1737.459722029358 0 0
          2610.018231322895 -11.226644314774148 0 -1093.2592922727813 0 0
          -1734.491332326483 364.20689826083867 0 -911.2156804371939 0 0
          80.30452001368727 -226.39546743089127 0 -23.08405340027275 0 0
          -612.4649500131991 493.5835719235928 0 7.848845042524985 0 0
          <InformationKey name="L2_NORM_RANGE" location="vtkDataArray" length="2">
            <Value index="0">
              3.3925976353
            </Value>
            <Value index="1">
              8068.0794375
            </Value>
          </InformationKey>
        </DataArray>
        <DataArray type="Float64" Name="Gauss Strain" NumberOfComponents="6" format="ascii" RangeMin="0.000006563077103194207" RangeMax="0.005902646765207346">
          -0.0000024471494881050937 0.00000151316956478742 0 -0.000006418216107992656 0 0
          5.639908079724256e-7 -3.8315429320978645e-7 0 -0.000006527563727654414 0 0
          -0.00000323917779146421 8.778462685932187e-7 0 0.000010148555089992853 0 0
          -0.000004005311054627869 0.000004372783168754557 0 0.000010455520282457981 0 0
          0.0000020267406618673647 0.000001075900929903284 0 0.00003091326836820066 0 0
          -0.000027641420383417437 0.00001703693330405709 0 0.000031266502867835136 0 0
          -0.000048123767951407936 0.00004067372123112145 0 -0.00010393536567400906 0 0
          -0.000022807008738801038 0.000007749723262506777 0 -0.0001050108984921645 0 0
          -0.00015095224360980875 0.0000811703995900609 0 -0.00013070239461518039 0 0
          0.000034201184291718374 -0.000008216066215399609 0 -0.0001361282290974465 0 0
          0.00009045060974591233 -0.00009695580256545433 0 0.0006525597557360151 0 0
          -0.0000916480797122643 0.00008208064954987049 0 0.0006538199322027212 0 0
          0.0006374234986104288 -0.00034624271394192996 0 0.000418593421748932 0 0
          -0.00026135233605693864 0.00010219156287599729 0 0.00044292980779240545 0 0
          -0.000011446382042479261 0.0001038089270847531 0 -0.002402441231659092 0 0
          0.00043146741730504257 -0.0003405732785111415 0 -0.0024196310200094847 0 0
          -0.0015872037786330284 0.0008659908761500107 0 -0.0016090517564508224 0 0
          0.0015170077778703663 -0.000894668931915088 0 -0.001627809584161407 0 0
          -0.0006635832083516091 0.0002652425931429919 0 0.003888335240677907 0 0
          0.0009209704093599975 -0.00046017964478109463 0 0.004010934448287276 0 0
          0.0024730652335603065 -0.0015157434161905679 0 0.005140788760651716 0 0
          -0.0018435453279863896 0.0012159390970259698 0 0.005042383130880667 0 0
          0.003815319399368563 -0.002474882416823365 0 0.0005212360965954521 0 0
          -0.0044615613600781645 0.002624058970127255 0 0.0007266701109791356 0 0
          0.0031403270047276888 -0.002037545139476349 0 -0.004207661711553821 0 0
          -0.0034482330196892183 0.0022412589563994 0 -0.003476288608940034 0 0
          0.0015650400952911675 -0.0010543211016244003 0 -0.002186166136024494 0 0
          -0.0011904126283209526 0.0009093985557152712 0 -0.0018222501312962565 0 0
          0.0001386244177584428 -0.00016806280810630067 0 -0.000046269828568002065 0 0
          -0.0005653776174826541 0.0005407288460053811 0 0.00001564055610639217 0 0
          <InformationKey name="L2_NORM_RANGE" location="vtkDataArray" length="2">
            <Value index="0">
              6.5630771032e-06
            </Value>
            <Value index="1">
              0.0059026467652
            </Value>
          </InformationKey>
        </DataArray>
        <DataArray type="Float64" Name="Btraction" NumberOfComponents="3" format="ascii" RangeMin="0" RangeMax="0">
          0 0 0 0 0 0
          0 0 0 0 0 0
          0 0 0 0 0 0
          0 0 0 0 0 0
          0 0 0 0 0 0
          0 0 0 0 0 0
          0 0 0 0 0 0
          0 0 0 0 0 0
          0 0 0 0 0 0
          0 0 0 0 0 0
          0 0 0 0 0 0
          0 0 0 0 0 0
          0 0 0 0 0 0
          0 0 0 0 0 0
          0 0 0 0 0 0
          <InformationKey name="L2_NORM_RANGE" location="vtkDataArray" length="2">
            <Value index="0">
              0
            </Value>
            <Value index="1">
              0
            </Value>
          </InformationKey>
        </DataArray>
      </CellData>
      <Points>
        <DataArray type="Float32" Name="Points" NumberOfComponents="3" format="ascii" RangeMin="0.31320268577451565" RangeMax="0.6356886233499035">
          0.6000000238418579 0.20999999344348907 0 0.6000000238418579 0.20000000298023224 0
          0.6000000238418579 0.1899999976158142 0 0.5765992999076843 0.20999999344348907 0
          0.5765992999076843 0.20000000298023224 0 0.5765992999076843 0.1899999976158142 0
          0.5531985759735107 0.20999999344348907 0 0.5531985759735107 0.20000000298023224 0
          0.5531985759735107 0.1899999976158142 0 0.5297979712486267 0.20999999344348907 0
          0.5297979712486267 0.20000000298023224 0 0.5297979712486267 0.1899999976158142 0
          0.5063973069190979 0.20999999344348907 0 0.5063973069190979 0.20000000298023224 0
          0.5063973069190979 0.1899999976158142 0 0.4829966127872467 0.20999999344348907 0
          0.4829966127872467 0.20000000298023224 0 0.4829966127872467 0.1899999976158142 0
          0.4595958888530731 0.20999999344348907 0 0.4595958888530731 0.20000000298023224 0
          0.4595958888530731 0.1899999976158142 0 0.4361951947212219 0.20999999344348907 0
          0.4361951947212219 0.20000000298023224 0 0.4361951947212219 0.1899999976158142 0
          0.4127945899963379 0.20999999344348907 0 0.4127945899963379 0.20000000298023224 0
          0.4127945899963379 0.1899999976158142 0 0.3893938958644867 0.20999999344348907 0
          0.3893938958644867 0.20000000298023224 0 0.3893938958644867 0.1899999976158142 0
          0.3659932017326355 0.20999999344348907 0 0.3659932017326355 0.20000000298023224 0
          0.3659932017326355 0.1899999976158142 0 0.3425925076007843 0.20999999344348907 0
          0.3425925076007843 0.20000000298023224 0 0.3425925076007843 0.1899999976158142 0
          0.3191918134689331 0.20999999344348907 0 0.3191918134689331 0.20000000298023224 0
          0.3191918134689331 0.1899999976158142 0 0.2957912087440491 0.20999999344348907 0
          0.2957912087440491 0.20000000298023224 0 0.2957912087440491 0.1899999976158142 0
          0.2723905146121979 0.20999999344348907 0 0.2723905146121979 0.20000000298023224 0
          0.2723905146121979 0.1899999976158142 0 0.24898980557918549 0.20999999344348907 0
          0.24898980557918549 0.20000000298023224 0 0.24898980557918549 0.1899999976158142 0
          <InformationKey name="L2_NORM_RANGE" location="vtkDataArray" length="2">
            <Value index="0">
              0.31320268577
            </Value>
            <Value index="1">
              0.63568862335
            </Value>
          </InformationKey>
        </DataArray>
      </Points>
      <Cells>
        <DataArray type="Int64" Name="connectivity" format="ascii" RangeMin="0" RangeMax="47">
          46 43 42 45 47 44
          43 46 43 40 39 42
          44 41 40 43 40 37
          36 39 41 38 37 40
          37 34 33 36 38 35
          34 37 34 31 30 33
          35 32 31 34 31 28
          27 30 32 29 28 31
          28 25 24 27 29 26
          25 28 25 22 21 24
          26 23 22 25 22 19
          18 21 23 20 19 22
          19 16 15 18 20 17
          16 19 16 13 12 15
          17 14 13 16 13 10
          9 12 14 11 10 13
          10 7 6 9 11 8
          7 10 7 4 3 6
          8 5 4 7 4 1
          0 3 5 2 1 4
        </DataArray>
        <DataArray type="Int64" Name="offsets" format="ascii" RangeMin="4" RangeMax="120">
          4 8 12 16 20 24
          28 32 36 40 44 48
          52 56 60 64 68 72
          76 80 84 88 92 96
          100 104 108 112 116 120
        </DataArray>
        <DataArray type="UInt8" Name="types" format="ascii" RangeMin="9" RangeMax="9">
          9 9 9 9 9 9
          9 9 9 9 9 9
          9 9 9 9 9 9
          9 9 9 9 9 9
          9 9 9 9 9 9
        </DataArray>
      </Cells>
    </Piece>
  </UnstructuredGrid>
</VTKFile>
