<?xml version="1.0"?>
<VTKFile type="UnstructuredGrid" version="0.1" byte_order="LittleEndian" header_type="UInt32" compressor="vtkZLibDataCompressor">
  <UnstructuredGrid>
    <Piece NumberOfPoints="48" NumberOfCells="30">
      <PointData>
        <DataArray type="Float64" Name="sld_BC" NumberOfComponents="3" format="ascii" RangeMin="0" RangeMax="0">
          0 0 0 0 0 0
          0 0 0 0 0 0
          0 0 0 0 0 0
          0 0 0 0 0 0
          0 0 0 0 0 0
          0 0 0 0 0 0
          0 0 0 0 0 0
          0 0 0 0 0 0
          0 0 0 0 0 0
          0 0 0 0 0 0
          0 0 0 0 0 0
          0 0 0 0 0 0
          0 0 0 0 0 0
          0 0 0 0 0 0
          0 0 0 0 0 0
          0 0 0 0 0 0
          0 0 0 0 0 0
          0 0 0 0 0 0
          0 0 0 0 0 0
          0 0 0 0 0 0
          0 0 0 0 0 0
          0 0 0 0 0 0
          0 0 0 0 0 0
          0 0 0 0 0 0
          <InformationKey name="L2_NORM_RANGE" location="vtkDataArray" length="2">
            <Value index="0">
              0
            </Value>
            <Value index="1">
              0
            </Value>
          </InformationKey>
        </DataArray>
        <DataArray type="Float64" Name="sld_FIXNO" NumberOfComponents="3" format="ascii" RangeMin="1.4142135623730951" RangeMax="1.4142135623730951">
          -1 -1 0 -1 -1 0
          -1 -1 0 -1 -1 0
          -1 -1 0 -1 -1 0
          -1 -1 0 -1 -1 0
          -1 -1 0 -1 -1 0
          -1 -1 0 -1 -1 0
          -1 -1 0 -1 -1 0
          -1 -1 0 -1 -1 0
          -1 -1 0 -1 -1 0
          -1 -1 0 -1 -1 0
          -1 -1 0 -1 -1 0
          -1 -1 0 -1 -1 0
          -1 -1 0 -1 -1 0
          -1 -1 0 -1 -1 0
          -1 -1 0 -1 -1 0
          -1 -1 0 -1 -1 0
          -1 -1 0 -1 -1 0
          -1 -1 0 -1 -1 0
          -1 -1 0 -1 -1 0
          -1 -1 0 -1 -1 0
          -1 -1 0 -1 -1 0
          -1 -1 0 -1 -1 0
          -1 -1 0 1 1 0
          1 1 0 1 1 0
          <InformationKey name="L2_NORM_RANGE" location="vtkDataArray" length="2">
            <Value index="0">
              1.4142135624
            </Value>
            <Value index="1">
              1.4142135624
            </Value>
          </InformationKey>
        </DataArray>
        <DataArray type="Float64" Name="Disp" NumberOfComponents="3" format="ascii" RangeMin="0" RangeMax="0.0000783480691468617">
          0.00002699450555153529 -0.00007355077572037941 0 0.000004199408580540993 -0.000040981369462306526 0
          -0.000008287290394305238 -0.000031801658838563705 0 0.00000110633998587011 0.000010750491453459722 0
          -0.0000044236048988136015 0.000005841617055951265 0 -0.000006314289371066891 0.000003297868776433431 0
          -5.311026775213628e-7 -6.115905877443859e-7 0 4.5201597494040573e-7 2.945451503726061e-7 0
          1.9638114697036554e-7 -2.9363692485302744e-7 0 -1.3840665859247004e-7 6.795654858043782e-8 0
          -5.271704985644214e-8 -1.6145544374538413e-7 0 2.044703294793909e-7 8.048981288763044e-8 0
          4.350148359122947e-8 -3.301691174642782e-8 0 1.027335742301875e-9 3.089695686078461e-9 0
          -5.874070016458832e-8 -4.4231018326679306e-8 0 -4.419448205966761e-9 9.769687130579526e-9 0
          4.4601398186566295e-10 5.581402774747867e-9 0 5.930402193580605e-9 1.1606835743733964e-8 0
          -9.423993922929581e-11 -1.655720833247196e-9 0 -1.2477105861663828e-10 -9.990761793295314e-10 0
          -1.459916807187224e-11 -1.8746200118093824e-9 0 -9.339838595716507e-12 2.1161201263519655e-10 0
          1.7244393486492748e-11 1.0528406466814411e-11 0 3.663063570453121e-12 2.2518013945107017e-10 0
          3.370901130068643e-11 -3.73565679757679e-11 0 -1.632533056272395e-12 1.660242906716163e-11 0
          -3.104948471189759e-11 -3.6735925416613503e-11 0 -9.716570558330207e-12 1.0293174888792754e-11 0
          4.849450179653963e-14 -1.9652158649860746e-13 0 9.236931427875443e-12 9.933046189277165e-12 0
          1.3613386884047243e-12 -2.488464634669904e-12 0 1.590968255098261e-14 -8.3513150051605e-13 0
          -1.3073563255067704e-12 -2.4250616974398784e-12 0 -1.13729541861367e-13 4.565305900176791e-13 0
          -4.127007168999557e-15 1.7746926269484832e-13 0 1.1024034318925394e-13 4.4922598763179283e-13 0
          1.9140792472014576e-14 -7.179085001203565e-14 0 5.890480120961436e-16 -1.1690647414563427e-14 0
          -1.930964162839185e-14 -7.131738630540091e-14 0 -7.595742737184341e-15 1.2712764426649346e-14 0
          -5.437179460207037e-17 -7.55773206630609e-16 0 7.687784597246037e-15 1.273284694316432e-14 0
          2.060847848700406e-15 -2.7405960991683043e-15 0 9.781355874873305e-19 -2.390373613620446e-16 0
          -2.080069774042925e-15 -2.7501620339293297e-15 0 0 0 0
          0 0 0 0 0 0
          <InformationKey name="L2_NORM_RANGE" location="vtkDataArray" length="2">
            <Value index="0">
              0
            </Value>
            <Value index="1">
              7.8348069147e-05
            </Value>
          </InformationKey>
        </DataArray>
        <DataArray type="Float64" Name="Sld_traction" NumberOfComponents="3" format="ascii" RangeMin="0" RangeMax="3338.599094477869">
          -1844.26722737267 -2782.9700515254513 0 -2924.6902433169876 -202.2436532310624 0
          -275.0961921270782 1163.2654832805276 0 -411.5931878204752 486.60971708246933 0
          0 0 0 167.84014975116798 282.62401375302204 0
          126.61675343109047 128.74738165801716 0 0 0 0
          -56.54479668838299 45.90275407660578 0 -16.877494060673914 -25.788488070096307 0
          0 0 0 8.608907068910225 5.712600578852004 0
          1.282829346460394 -1.2671913439398743 0 0 0 0
          -0.5392069937250156 -5.549871766969912 0 -0.14301934076485626 0.8625028360697287 0
          0 0 0 0.13818071679190555 1.3048622604537907 0
          0.062363837296884224 -0.10032101008050395 0 0 0 0
          -0.07233271245624956 -0.11637645151132733 0 -0.017626939920415613 -0.0007812786742139319 0
          0 0 0 0.01985521590757697 -0.004216834063791515 0
          0.0030259234863548737 -0.0001970551572640413 0 0 0 0
          -0.003316756680509326 0.0008095651494435378 0 -0.0003922887168907319 0.0006996608989990931 0
          0 0 0 0.0004166708432530156 0.000550492320009467 0
          0.00006764794698722664 -0.00020259393568298106 0 0 0 0
          -0.000067905332289311 -0.00018793769939925265 0 -0.000018105303587240464 0.000027498150619441666 0
          0 0 0 0.000017765294565890787 0.00002691628262177393 0
          0.000004383702178243657 -0.000001928827684514452 0 0 0 0
          -0.000004308967253469484 -0.000002045661353429214 0 -8.173117700333937e-7 2.939188416323118e-7 0
          0 0 0 8.074431840596743e-7 3.270938359271012e-7 0
          1.4163363580514694e-7 -1.5098396578666496e-7 0 0 0 0
          -1.408809139938303e-7 -1.5639492683244586e-7 0 -6.974581093111467e-8 -3.945103093274168e-8 0
          2.111559581291284e-10 2.2958385783850586e-8 0 7.011359121539443e-8 -3.92514447212875e-8 0
          <InformationKey name="L2_NORM_RANGE" location="vtkDataArray" length="2">
            <Value index="0">
              0
            </Value>
            <Value index="1">
              3338.5990945
            </Value>
          </InformationKey>
        </DataArray>
        <DataArray type="Float64" Name="Velocity" NumberOfComponents="3" format="ascii" RangeMin="0" RangeMax="0.07834806914686171">
          0.02699450555153529 -0.07355077572037941 0 0.004199408580540993 -0.04098136946230652 0
          -0.008287290394305239 -0.0318016588385637 0 0.00110633998587011 0.010750491453459722 0
          -0.004423604898813602 0.005841617055951266 0 -0.0063142893710668915 0.0032978687764334312 0
          -0.0005311026775213629 -0.0006115905877443859 0 0.00045201597494040575 0.00029454515037260614 0
          0.00019638114697036554 -0.00029363692485302745 0 -0.00013840665859247005 0.00006795654858043781 0
          -0.00005271704985644214 -0.00016145544374538413 0 0.0002044703294793909 0.00008048981288763044 0
          0.000043501483591229475 -0.00003301691174642782 0 0.000001027335742301875 0.000003089695686078461 0
          -0.000058740700164588325 -0.00004423101832667931 0 -0.000004419448205966762 0.000009769687130579526 0
          4.4601398186566296e-7 0.000005581402774747868 0 0.000005930402193580605 0.000011606835743733965 0
          -9.423993922929581e-8 -0.0000016557208332471961 0 -1.247710586166383e-7 -9.990761793295316e-7 0
          -1.4599168071872242e-8 -0.0000018746200118093826 0 -9.339838595716507e-9 2.1161201263519654e-7 0
          1.724439348649275e-8 1.0528406466814411e-8 0 3.6630635704531212e-9 2.2518013945107017e-7 0
          3.3709011300686434e-8 -3.7356567975767906e-8 0 -1.6325330562723949e-9 1.660242906716163e-8 0
          -3.104948471189759e-8 -3.6735925416613504e-8 0 -9.716570558330208e-9 1.0293174888792754e-8 0
          4.8494501796539625e-11 -1.9652158649860745e-10 0 9.236931427875444e-9 9.933046189277165e-9 0
          1.3613386884047244e-9 -2.488464634669904e-9 0 1.590968255098261e-11 -8.3513150051605e-10 0
          -1.3073563255067703e-9 -2.4250616974398785e-9 0 -1.13729541861367e-10 4.5653059001767914e-10 0
          -4.127007168999557e-12 1.7746926269484832e-10 0 1.1024034318925394e-10 4.4922598763179285e-10 0
          1.9140792472014577e-11 -7.179085001203565e-11 0 5.890480120961436e-13 -1.1690647414563427e-11 0
          -1.930964162839185e-11 -7.131738630540091e-11 0 -7.59574273718434e-12 1.2712764426649346e-11 0
          -5.4371794602070373e-14 -7.557732066306091e-13 0 7.687784597246038e-12 1.2732846943164321e-11 0
          2.060847848700406e-12 -2.7405960991683047e-12 0 9.781355874873307e-16 -2.390373613620446e-13 0
          -2.080069774042925e-12 -2.75016203392933e-12 0 0 0 0
          0 0 0 0 0 0
          <InformationKey name="L2_NORM_RANGE" location="vtkDataArray" length="2">
            <Value index="0">
              0
            </Value>
            <Value index="1">
              0.078348069147
            </Value>
          </InformationKey>
        </DataArray>
      </PointData>
      <CellData>
        <DataArray type="UInt8" Name="vtkGhostType" format="ascii" RangeMin="0" RangeMax="0">
          0 0 0 0 0 0
          0 0 0 0 0 0
          0 0 0 0 0 0
          0 0 0 0 0 0
          0 0 0 0 0 0
        </DataArray>
        <DataArray type="Float64" Name="Gauss Stress" NumberOfComponents="6" format="ascii" RangeMin="3.111380693293523e-7" RangeMax="2813.283720987699">
          -1.1801670751768859e-7 -2.8721469647058083e-7 0 1.966400427159454e-8 0 0
          1.179056852151571e-7 2.8788083028525015e-7 0 2.009126208401943e-8 0 0
          4.745648318750518e-7 0.0000012304601781906335 0 2.2537019175642183e-8 0 0
          -4.748978987843881e-7 -0.0000012313483566131956 0 1.8363585339892784e-8 0 0
          -0.0000029078406349690545 -0.000005824452031820072 0 -7.443564907937993e-7 0 0
          0.0000029245494914456183 0.000005794587032394768 0 -7.108588055696242e-7 0 0
          0.000013076706383929748 0.000026964652732214946 0 0.000005388899984096606 0 0
          -0.000013211098881980486 -0.000026484925364593016 0 0.000005220356711219117 0 0
          -0.00004158939860517336 -0.00014224876834002597 0 -0.000011385081834007061 0 0
          0.000042233216910903776 0.00013800333096624433 0 -0.00001130287732865951 0 0
          0.00017562434787518188 0.0008534466459210835 0 -0.0000671164571425401 0 0
          -0.00017597906514022426 -0.0008289557936128192 0 -0.0000577796038119637 0 0
          -0.0016710766258274828 -0.0047364925540072465 0 0.00030981935985676306 0 0
          0.001630738807120758 0.004687891497788174 0 0.00018659826007254296 0 0
          0.01316301815123451 0.021035729484857702 0 0.0028138935796097535 0 0
          -0.012696203848407049 -0.021906917746982495 0 0.003808242128302815 0 0
          -0.060101542705346074 -0.07803111583477636 0 -0.03063692009842512 0 0
          0.055815300254920985 0.09228454097892043 0 -0.03563390527091373 0 0
          0.11250312250840253 0.3693054426144662 0 0.07149151185043803 0 0
          -0.09732272370418196 -0.49403921769254017 0 0.074466569799324 0 0
          -0.08280853793204712 -2.715069982093987 0 0.45648728054512816 0 0
          0.021329354714848647 3.4554856782442145 0 0.7339339067917853 0 0
          4.2247517534706525 18.925115749293052 0 -1.7595496868879539 0 0
          -6.035832303980226 -20.24285694465254 0 -5.3609262878059125 0 0
          -60.49614930483558 -96.72892807364592 0 -29.10847991843883 0 0
          66.45504473144494 73.1546935817895 0 0.835869745678683 0 0
          192.4091702541079 461.7317543897522 0 294.29036119084503 0 0
          -416.8119098494411 -16.897391040476222 0 151.28721305099464 0 0
          -551.008113343675 -2669.768128422421 0 -695.1931345055712 0 0
          -235.07092918531708 -707.8146473046588 0 -516.1208423050025 0 0
          <InformationKey name="L2_NORM_RANGE" location="vtkDataArray" length="2">
            <Value index="0">
              3.1113806933e-07
            </Value>
            <Value index="1">
              2813.283721
            </Value>
          </InformationKey>
        </DataArray>
        <DataArray type="Float64" Name="Gauss Strain" NumberOfComponents="6" format="ascii" RangeMin="1.3836517554784828e-13" RangeMax="0.002096174777461783">
          4.40758540776187e-14 -1.2512213487525512e-13 0 3.9328008543197345e-14 0 0
          -4.4408920985006255e-14 1.255662240851052e-13 0 4.0182524168030445e-14 0 0
          -2.0744517215121047e-13 5.484501741648273e-13 0 4.507403835142001e-14 0 0
          2.0761170560490427e-13 -5.488387522234461e-13 0 3.672717067964313e-14 0 0
          5.850875339774574e-13 -2.33152386286406e-12 0 -1.488712981588306e-12 0 0
          -5.631051180898794e-13 2.3069324228686124e-12 0 -1.421717611138761e-12 0 0
          -2.9398150580561833e-12 1.0948131290433594e-11 0 1.0777799968149734e-11 0 0
          2.667310816661938e-12 -1.0606515665756431e-11 0 1.0440713422477274e-11 0 0
          3.194589037747164e-11 -6.871347935089034e-11 0 -2.277016366608035e-11 0 0
          -2.986139113758667e-11 6.59087229237798e-11 0 -2.260575465914179e-11 0 0
          -2.3600404963630695e-10 4.418182486531918e-10 0 -1.342329141244924e-10 0 0
          2.2599488946895005e-10 -4.269818387747647e-10 0 -1.1555920776856065e-10 0 0
          8.919510824378918e-10 -2.173464852539553e-9 0 6.196387233725531e-10 0 0
          -8.967133147130824e-10 2.1604393829477435e-9 0 3.731965172587562e-10 0 0
          -5.164808580815361e-10 7.356230347088653e-9 0 5.627787136291804e-9 0 0
          1.145044781214466e-9 -8.065669215850947e-9 0 7.616484305134134e-9 0 0
          -4.848479895347424e-9 -2.2778054151184612e-8 0 -6.127384184135414e-8 0 0
          -3.42463710167884e-9 3.30446015689434e-8 0 -7.126780829791633e-8 0 0
          -8.022031666721217e-8 1.7658196278802496e-7 0 1.4298303329993036e-7 0 0
          1.3922202908578374e-7 -2.5749454710122244e-7 0 1.4893312066322652e-7 0 0
          0.0000010363410426900144 -0.0000015959228864548258 0 9.129769518818828e-7 0 0
          -0.0000013694001867459171 0.0000020647520252853324 0 0.0000014678633623418771 0 0
          -0.000005035210799253509 0.000009665028885344483 0 -0.000003519049543947362 0 0
          0.000004475580997601036 -0.000009731572754745343 0 -0.000010721999284592293 0 0
          0.0000023933344661247755 -0.00003384153577210003 0 -0.000058219794860212405 0 0
          0.000010611493046722154 0.00001731042062365351 0 0.000001671273295456055 0 0
          -0.00006935658099178899 0.00019990908297912166 0 0.0005884664467518396 0 0
          -0.00024341929521573547 0.00015652714304349727 0 0.0003025975279125079 0 0
          0.0007364430168953634 -0.0013848107103132945 0 -0.0013906472151967945 0 0
          0.00014174951347982465 -0.00033118085233439787 0 -0.001032314299392028 0 0
          <InformationKey name="L2_NORM_RANGE" location="vtkDataArray" length="2">
            <Value index="0">
              1.3836517555e-13
            </Value>
            <Value index="1">
              0.0020961747775
            </Value>
          </InformationKey>
        </DataArray>
        <DataArray type="Float64" Name="Btraction" NumberOfComponents="3" format="ascii" RangeMin="0" RangeMax="0">
          0 0 0 0 0 0
          0 0 0 0 0 0
          0 0 0 0 0 0
          0 0 0 0 0 0
          0 0 0 0 0 0
          0 0 0 0 0 0
          0 0 0 0 0 0
          0 0 0 0 0 0
          0 0 0 0 0 0
          0 0 0 0 0 0
          0 0 0 0 0 0
          0 0 0 0 0 0
          0 0 0 0 0 0
          0 0 0 0 0 0
          0 0 0 0 0 0
          <InformationKey name="L2_NORM_RANGE" location="vtkDataArray" length="2">
            <Value index="0">
              0
            </Value>
            <Value index="1">
              0
            </Value>
          </InformationKey>
        </DataArray>
      </CellData>
      <Points>
        <DataArray type="Float32" Name="Points" NumberOfComponents="3" format="ascii" RangeMin="0.31320268577451565" RangeMax="0.6356886233499035">
          0.6000000238418579 0.20999999344348907 0 0.6000000238418579 0.20000000298023224 0
          0.6000000238418579 0.1899999976158142 0 0.5765992999076843 0.20999999344348907 0
          0.5765992999076843 0.20000000298023224 0 0.5765992999076843 0.1899999976158142 0
          0.5531985759735107 0.20999999344348907 0 0.5531985759735107 0.20000000298023224 0
          0.5531985759735107 0.1899999976158142 0 0.5297979712486267 0.20999999344348907 0
          0.5297979712486267 0.20000000298023224 0 0.5297979712486267 0.1899999976158142 0
          0.5063973069190979 0.20999999344348907 0 0.5063973069190979 0.20000000298023224 0
          0.5063973069190979 0.1899999976158142 0 0.4829966127872467 0.20999999344348907 0
          0.4829966127872467 0.20000000298023224 0 0.4829966127872467 0.1899999976158142 0
          0.4595958888530731 0.20999999344348907 0 0.4595958888530731 0.20000000298023224 0
          0.4595958888530731 0.1899999976158142 0 0.4361951947212219 0.20999999344348907 0
          0.4361951947212219 0.20000000298023224 0 0.4361951947212219 0.1899999976158142 0
          0.4127945899963379 0.20999999344348907 0 0.4127945899963379 0.20000000298023224 0
          0.4127945899963379 0.1899999976158142 0 0.3893938958644867 0.20999999344348907 0
          0.3893938958644867 0.20000000298023224 0 0.3893938958644867 0.1899999976158142 0
          0.3659932017326355 0.20999999344348907 0 0.3659932017326355 0.20000000298023224 0
          0.3659932017326355 0.1899999976158142 0 0.3425925076007843 0.20999999344348907 0
          0.3425925076007843 0.20000000298023224 0 0.3425925076007843 0.1899999976158142 0
          0.3191918134689331 0.20999999344348907 0 0.3191918134689331 0.20000000298023224 0
          0.3191918134689331 0.1899999976158142 0 0.2957912087440491 0.20999999344348907 0
          0.2957912087440491 0.20000000298023224 0 0.2957912087440491 0.1899999976158142 0
          0.2723905146121979 0.20999999344348907 0 0.2723905146121979 0.20000000298023224 0
          0.2723905146121979 0.1899999976158142 0 0.24898980557918549 0.20999999344348907 0
          0.24898980557918549 0.20000000298023224 0 0.24898980557918549 0.1899999976158142 0
          <InformationKey name="L2_NORM_RANGE" location="vtkDataArray" length="2">
            <Value index="0">
              0.31320268577
            </Value>
            <Value index="1">
              0.63568862335
            </Value>
          </InformationKey>
        </DataArray>
      </Points>
      <Cells>
        <DataArray type="Int64" Name="connectivity" format="ascii" RangeMin="0" RangeMax="47">
          46 43 42 45 47 44
          43 46 43 40 39 42
          44 41 40 43 40 37
          36 39 41 38 37 40
          37 34 33 36 38 35
          34 37 34 31 30 33
          35 32 31 34 31 28
          27 30 32 29 28 31
          28 25 24 27 29 26
          25 28 25 22 21 24
          26 23 22 25 22 19
          18 21 23 20 19 22
          19 16 15 18 20 17
          16 19 16 13 12 15
          17 14 13 16 13 10
          9 12 14 11 10 13
          10 7 6 9 11 8
          7 10 7 4 3 6
          8 5 4 7 4 1
          0 3 5 2 1 4
        </DataArray>
        <DataArray type="Int64" Name="offsets" format="ascii" RangeMin="4" RangeMax="120">
          4 8 12 16 20 24
          28 32 36 40 44 48
          52 56 60 64 68 72
          76 80 84 88 92 96
          100 104 108 112 116 120
        </DataArray>
        <DataArray type="UInt8" Name="types" format="ascii" RangeMin="9" RangeMax="9">
          9 9 9 9 9 9
          9 9 9 9 9 9
          9 9 9 9 9 9
          9 9 9 9 9 9
          9 9 9 9 9 9
        </DataArray>
      </Cells>
    </Piece>
  </UnstructuredGrid>
</VTKFile>
