<?xml version="1.0"?>
<VTKFile type="UnstructuredGrid" version="0.1" byte_order="LittleEndian" header_type="UInt32" compressor="vtkZLibDataCompressor">
  <UnstructuredGrid>
    <Piece NumberOfPoints="48" NumberOfCells="30">
      <PointData>
        <DataArray type="Float64" Name="sld_BC" NumberOfComponents="3" format="ascii" RangeMin="0" RangeMax="0">
          0 0 0 0 0 0
          0 0 0 0 0 0
          0 0 0 0 0 0
          0 0 0 0 0 0
          0 0 0 0 0 0
          0 0 0 0 0 0
          0 0 0 0 0 0
          0 0 0 0 0 0
          0 0 0 0 0 0
          0 0 0 0 0 0
          0 0 0 0 0 0
          0 0 0 0 0 0
          0 0 0 0 0 0
          0 0 0 0 0 0
          0 0 0 0 0 0
          0 0 0 0 0 0
          0 0 0 0 0 0
          0 0 0 0 0 0
          0 0 0 0 0 0
          0 0 0 0 0 0
          0 0 0 0 0 0
          0 0 0 0 0 0
          0 0 0 0 0 0
          0 0 0 0 0 0
          <InformationKey name="L2_NORM_RANGE" location="vtkDataArray" length="2">
            <Value index="0">
              0
            </Value>
            <Value index="1">
              0
            </Value>
          </InformationKey>
        </DataArray>
        <DataArray type="Float64" Name="sld_FIXNO" NumberOfComponents="3" format="ascii" RangeMin="1.4142135623730951" RangeMax="1.4142135623730951">
          -1 -1 0 -1 -1 0
          -1 -1 0 -1 -1 0
          -1 -1 0 -1 -1 0
          -1 -1 0 -1 -1 0
          -1 -1 0 -1 -1 0
          -1 -1 0 -1 -1 0
          -1 -1 0 -1 -1 0
          -1 -1 0 -1 -1 0
          -1 -1 0 -1 -1 0
          -1 -1 0 -1 -1 0
          -1 -1 0 -1 -1 0
          -1 -1 0 -1 -1 0
          -1 -1 0 -1 -1 0
          -1 -1 0 -1 -1 0
          -1 -1 0 -1 -1 0
          -1 -1 0 -1 -1 0
          -1 -1 0 -1 -1 0
          -1 -1 0 -1 -1 0
          -1 -1 0 -1 -1 0
          -1 -1 0 -1 -1 0
          -1 -1 0 -1 -1 0
          -1 -1 0 -1 -1 0
          -1 -1 0 1 1 0
          1 1 0 1 1 0
          <InformationKey name="L2_NORM_RANGE" location="vtkDataArray" length="2">
            <Value index="0">
              1.4142135624
            </Value>
            <Value index="1">
              1.4142135624
            </Value>
          </InformationKey>
        </DataArray>
        <DataArray type="Float64" Name="Disp" NumberOfComponents="3" format="ascii" RangeMin="0" RangeMax="0.0008838604377120687">
          0.000290453239720197 -0.0008347731361804903 0 0.000003389770614027523 -0.0007810373199786117 0
          -0.0002710585705169086 -0.0007739327749812108 0 0.00018624897711556174 -0.0001438804733494653 0
          0.0000021771966276528767 -0.00013118900670396416 0 -0.00017912962259058237 -0.00014916009699439961 0
          0.00004556218310157455 0.0000782614844169567 0 0.0000017007452899501481 0.00009820088333353224 0
          -0.00004417381068293356 0.00008425607924351938 0 -0.000020551225981335536 0.000026398208318777153 0
          -0.0000047869305402798 0.00002840265173406187 0 0.0000123869830929755 0.000026688038381862127 0
          -0.00000888862561592321 -0.000006668202847827559 0 -0.0000023393734160675883 -0.000009881245546795147 0
          0.000004096479564355635 -0.000008429083622216231 0 0.0000010888222695831316 -0.0000013149651607617697 0
          -4.3597079202271337e-7 -0.0000017684356362097637 0 -0.0000021712242766869882 -0.0000017969884095450455 0
          3.3782337830753666e-7 6.356735519583507e-7 0 -6.585825604510119e-8 8.474212124038293e-7 0
          -5.003154734751207e-7 5.709023466134144e-7 0 -1.6581750948757242e-7 4.661554804824497e-8 0
          -1.0685842013369646e-8 2.8796234547883605e-8 0 1.4024067697492204e-7 3.448646471305618e-8 0
          -1.168877127368496e-8 -3.6933952800044764e-8 0 -1.133451758645043e-9 -5.253628965946315e-8 0
          8.475873237961042e-9 -3.8394391338797524e-8 0 9.784953408887294e-9 1.9013676570783484e-9 0
          -1.532054743094909e-10 4.402120140348146e-9 0 -1.0147095727548784e-8 1.7492783930695358e-9 0
          -6.622518472675289e-10 1.7098335800945528e-9 0 -1.8518628445947493e-11 2.197098483761649e-9 0
          6.128997785357897e-10 1.6832984675221155e-9 0 -4.330253369418727e-10 -2.8656445540779113e-10 0
          -1.398518651274187e-12 -4.872621370757258e-10 0 4.286800287759099e-10 -2.8808467453338855e-10 0
          8.461466548699397e-11 -4.308743673132983e-11 0 -2.6843786207709663e-13 -4.21172951944957e-11 0
          -8.515499852715888e-11 -4.3381512484611656e-11 0 9.296600934220648e-12 1.7739181867888013e-11 0
          -1.4007590617127628e-14 2.7165380374631337e-11 0 -9.359395140984612e-12 1.7707775272935844e-11 0
          -4.880651619599826e-12 -2.1482134410238634e-13 0 -1.8791521363363708e-15 -1.5749348216308764e-12 0
          4.877528431895108e-12 -2.1542483090044785e-13 0 0 0 0
          0 0 0 0 0 0
          <InformationKey name="L2_NORM_RANGE" location="vtkDataArray" length="2">
            <Value index="0">
              0
            </Value>
            <Value index="1">
              0.00088386043771
            </Value>
          </InformationKey>
        </DataArray>
        <DataArray type="Float64" Name="Sld_traction" NumberOfComponents="3" format="ascii" RangeMin="0" RangeMax="5214.82345408774">
          -1348.0849262398365 -895.2626271120502 0 -3776.872966257958 246.04416724980817 0
          -1239.73069320982 4224.893972600572 0 -712.5535779003562 5165.912412722944 0
          0 0 0 588.5964076226312 4909.951838632837 0
          1087.883593374103 4186.621489448111 0 0 0 0
          -974.6961146891207 4329.613524409819 0 687.2526097364276 1087.3054996300223 0
          0 0 0 -752.0975473634107 1096.09555564872 0
          -40.35396076136904 -358.4384478013893 0 0 0 0
          39.387125521386785 -420.43380028801874 0 -78.51124591847746 -153.6288620473885 0
          0 0 0 88.24034332107951 -143.3236042482295 0
          10.326499221591016 34.83610630462715 0 0 0 0
          -8.112249264027255 42.32429217438939 0 5.290262410387235 8.692327861852352 0
          0 0 0 -5.019502332739444 9.762223818488101 0
          -1.0840665529458435 -3.6177757627083786 0 0 0 0
          1.1450140163568736 -3.4464047441330323 0 -0.17490333646698666 -0.2156015467163159 0
          0 0 0 0.18037635850258316 -0.18517815442047544 0
          0.08113795150902776 0.2241968862091624 0 0 0 0
          -0.08041721630987085 0.22649958613214635 0 -0.00031741524633743513 -0.01618862941736182 0
          0 0 0 0.00044350089626440616 -0.015748230858595655 0
          -0.003940889988231063 -0.009532553954116662 0 0 0 0
          0.003943487835744478 -0.009485941100598973 0 0.0005190267442124828 0.0019587392536956566 0
          0 0 0 -0.0005170742482216242 0.001960680420835213 0
          0.00010447815959227429 0.00019799160216274383 0 0 0 0
          -0.0001044112845484298 0.000198983430340676 0 0.00006472886903272678 -0.00019268379859434763 0
          2.2748337266270447e-7 0.000023966467746429893 0 -0.00006458437940857336 -0.0001925365300281201 0
          <InformationKey name="L2_NORM_RANGE" location="vtkDataArray" length="2">
            <Value index="0">
              0
            </Value>
            <Value index="1">
              5214.8234541
            </Value>
          </InformationKey>
        </DataArray>
        <DataArray type="Float64" Name="Velocity" NumberOfComponents="3" format="ascii" RangeMin="0" RangeMax="0.18980496739911148">
          0.04211569576864564 -0.18507348221530998 0 -0.004575164456722302 -0.17466540524126212 0
          -0.03536226287613354 -0.15754470721221528 0 0.03310559696608767 -0.07214982638276435 0
          -0.004536826836416586 -0.07373018720913743 0 -0.038065458297100445 -0.0790098999158311 0
          0.028084308493085665 0.02242853861524622 0 0.007068124585647103 0.025686591045712828 0
          -0.017287966440928414 0.022931946189522656 0 -0.003287599324209719 0.01932133999978047 0
          -0.0004307300404441693 0.023707081349998674 0 0.0032995426864059346 0.02313333413551599 0
          -0.006672509055554961 -0.0029441799387809045 0 -0.0018362860888319183 -0.00437875244627957 0
          0.003426133219042938 -0.003926777098026909 0 0.00014900026577909338 -0.0014289471630878577 0
          -0.0003699010787643124 -0.002038459196064668 0 -0.0010804264905565344 -0.0018690698834099542 0
          0.00037259104267358225 0.0004400832671492082 0 -0.00005333021820709527 0.0005870386144530684 0
          -0.0005060680502342873 0.0003927242280159504 0 -0.00011265958465673885 0.00006680572233982487 0
          -0.000010223085747488945 0.00007037136698735154 0 0.00008951211262125976 0.00005546765923408407 0
          -0.00001889715024012459 -0.00002998699021857127 0 -9.687478811491486e-7 -0.00004490468556001028 0
          0.00001592414184176412 -0.000031341713684594234 0 0.00000833530382816685 1.3117609168956984e-8 0
          -1.426668951408064e-7 0.0000015354666010143227 0 -0.000008650739441032502 -1.0787387927372734e-7 0
          -1.6156738883807717e-7 0.0000016752274065136486 0 -1.837763115791094e-8 0.0000022444653774476056 0
          1.1262835465497395e-7 0.0000016469602459968663 0 -4.3235132514798647e-7 -2.1475797584266383e-7 0
          -1.0517932488930668e-9 -3.7902883456206484e-7 0 4.2854109006291717e-7 -2.1576597119993567e-7 0
          6.3874162968811e-8 -4.860778333221298e-8 0 -2.9156360271249577e-10 -5.68071527642619e-8 0
          -6.438632467575434e-8 -4.8907962431393e-8 0 1.1982749995326799e-8 1.5250128720677256e-8 0
          -1.0181435667889704e-11 2.4660307468716553e-8 0 -1.2047532639035488e-8 1.5217062775548098e-8 0
          -4.425198132248217e-9 3.696066164477158e-10 0 -1.7376583746534442e-12 -7.069269733810725e-10 0
          4.423393937512321e-9 3.701127541340525e-10 0 0 0 0
          0 0 0 0 0 0
          <InformationKey name="L2_NORM_RANGE" location="vtkDataArray" length="2">
            <Value index="0">
              0
            </Value>
            <Value index="1">
              0.1898049674
            </Value>
          </InformationKey>
        </DataArray>
      </PointData>
      <CellData>
        <DataArray type="UInt8" Name="vtkGhostType" format="ascii" RangeMin="0" RangeMax="0">
          0 0 0 0 0 0
          0 0 0 0 0 0
          0 0 0 0 0 0
          0 0 0 0 0 0
          0 0 0 0 0 0
        </DataArray>
        <DataArray type="Float64" Name="Gauss Stress" NumberOfComponents="6" format="ascii" RangeMin="0.0002260824519627798" RangeMax="6265.203857033467">
          -0.00017696211165784502 -0.000004631905988407916 0 -0.0001410900662666064 0 0
          0.00017658130510672182 0.000004428402070972144 0 -0.00014111239147363092 0 0
          0.00010138517761736467 -0.000604583605952096 0 0.0006096519017243677 0 0
          -0.0001035633805092582 0.0006057991880376969 0 0.0006101764159214254 0 0
          0.0037720141365559156 0.00164831447909546 0 0.0009648218722827211 0 0
          -0.0038026945571062137 -0.001641644437307044 0 0.0009629715674232457 0 0
          -0.013280744395413036 0.007790131733915729 0 -0.016025443979219525 0 0
          0.013073393313073734 -0.00777717531848863 0 -0.015999750160997535 0 0
          -0.0444476901623531 -0.0535123887058576 0 0.02312260902576254 0 0
          0.04217346007344809 0.054334192647245566 0 0.02320193969002935 0 0
          0.3622373242407422 -0.0075100440005612945 0 0.25796405624199203 0 0
          -0.3816920476001351 0.00942530101330917 0 0.2583239584274578 0 0
          -0.12915713450925992 1.0056951758206145 0 -1.0386213584455188 0 0
          -0.017996800531036028 -0.9694177758158813 0 -1.0275571459399186 0 0
          -7.149877680835115 -1.9814553393419045 0 -2.3806771753466895 0 0
          5.850784099048555 2.247837581224925 0 -2.365847381248738 0 0
          9.353307229077327 -9.925233461134646 0 21.252733682000397 0 0
          -17.515063559525625 10.89211214648422 0 21.564676022820635 0 0
          48.608392935963046 52.555672439123484 0 -0.5738217222295594 0 0
          -100.29901031556189 -41.435143913213864 0 1.0023713036090154 0 0
          -395.15223659274784 42.03068125420262 0 -269.48076066810194 0 0
          137.24747416265043 -27.18417493444484 0 -275.04159952752497 0 0
          -779.8987292474769 -417.43398082248797 0 204.21354604991205 0 0
          405.07760814664323 293.85286490965245 0 193.99440182492788 0 0
          2448.368669565627 -198.43599255063305 0 2002.5492880288612 0 0
          -1653.0713537791555 201.357765560234 0 2077.949119427217 0 0
          6051.501589641623 1382.3513625658497 0 849.2423630297128 0 0
          -5154.15863726022 -704.4672847049703 0 759.2719402303526 0 0
          1724.9346219401148 -3719.3701024373445 0 -2617.904954689121 0 0
          -3233.089733193351 -643.0892174610249 0 -2192.663395354317 0 0
          <InformationKey name="L2_NORM_RANGE" location="vtkDataArray" length="2">
            <Value index="0">
              0.00022608245196
            </Value>
            <Value index="1">
              6265.203857
            </Value>
          </InformationKey>
        </DataArray>
        <DataArray type="Float64" Name="Gauss Strain" NumberOfComponents="6" format="ascii" RangeMin="3.0842248784852094e-10" RangeMax="0.006505559091572351">
          -1.0432449348840578e-10 6.800571217269181e-11 0 -2.8218013253692154e-10 0 0
          1.0417744444879418e-10 -6.797545859527077e-11 0 -2.822247829435822e-10 0 0
          3.026645600812117e-10 -4.033042233508866e-10 0 1.2193038037222796e-9 0 0
          -3.044576812882837e-10 4.049048873966399e-10 0 1.2203528315686269e-9 0 0
          1.6038826933240102e-9 -5.198169672482322e-10 0 1.929643741843792e-9 0 0
          -1.6249589451788893e-9 5.360911714547001e-10 0 1.925943137553562e-9 0 0
          -1.1084499873526e-8 9.986376267590025e-9 0 -3.2050887890980286e-8 0 0
          1.0954905579896312e-8 -9.895663011239009e-9 0 -3.1999500389825084e-8 0 0
          -5.263658980902974e-9 -1.4328358083348647e-8 0 4.624521881375462e-8 0 0
          3.57039864340436e-9 1.5731130550977745e-8 0 4.640387862586422e-8 0 0
          2.2034624209965603e-7 -1.4940108622463202e-7 0 5.159280968791343e-7 0 0
          -2.3278552560568322e-7 1.5833186549352174e-7 0 5.166479329223618e-7 0 0
          -4.797739752981922e-7 6.550779268754693e-7 0 -0.000002077241987115766 0 0
          3.7696754315308384e-7 -5.744537966145824e-7 0 -0.0000020551150221938394 0 0
          -0.000003497370472949068 0.0000016710644843709321 0 -0.000004761362730300657 0 0
          0.0000026113156272183913 -9.916220752304028e-7 0 -0.000004731685921378179 0 0
          0.000009581333895503086 -0.000009697205405057032 0 0.00004250559867191159 0 0
          -0.00001486679564116633 0.000013540403488540574 0 0.00004312924638864402 0 0
          0.000008142581867334742 0.000012089604026419011 0 -0.000001148355288290802 0 0
          -0.00004360762284733033 0.00001525811845502767 0 0.0000020051172078575606 0 0
          -0.0002540826215713665 0.00018313478297687924 0 -0.0005389776693391609 0 0
          0.00009309940169321966 -0.00007132030683421053 0 -0.0005500830532519476 0 0
          -0.0003011082312619484 0.00006143357607669986 0 0.00040847761608981976 0 0
          0.00012541623715890682 0.000014216216500898 0 0.00038796821660984593 0 0
          0.0015398135602418678 -0.0011055384399305257 0 0.004004367653942565 0 0
          -0.0010801704774982266 0.0007752851513447012 0 0.004156363703729516 0 0
          0.0030609045287385284 -0.0015983867449410325 0 0.0016948411555779324 0 0
          -0.0028259847619083174 0.0016317296877685628 0 0.0015196680935593806 0 0
          0.002503585616291104 -0.002942706904206866 0 -0.005234007473415873 0 0
          -0.0016940963051675915 0.0008987318796915833 0 -0.004386611250560493 0 0
          <InformationKey name="L2_NORM_RANGE" location="vtkDataArray" length="2">
            <Value index="0">
              3.0842248785e-10
            </Value>
            <Value index="1">
              0.0065055590916
            </Value>
          </InformationKey>
        </DataArray>
        <DataArray type="Float64" Name="Btraction" NumberOfComponents="3" format="ascii" RangeMin="0" RangeMax="0">
          0 0 0 0 0 0
          0 0 0 0 0 0
          0 0 0 0 0 0
          0 0 0 0 0 0
          0 0 0 0 0 0
          0 0 0 0 0 0
          0 0 0 0 0 0
          0 0 0 0 0 0
          0 0 0 0 0 0
          0 0 0 0 0 0
          0 0 0 0 0 0
          0 0 0 0 0 0
          0 0 0 0 0 0
          0 0 0 0 0 0
          0 0 0 0 0 0
          <InformationKey name="L2_NORM_RANGE" location="vtkDataArray" length="2">
            <Value index="0">
              0
            </Value>
            <Value index="1">
              0
            </Value>
          </InformationKey>
        </DataArray>
      </CellData>
      <Points>
        <DataArray type="Float32" Name="Points" NumberOfComponents="3" format="ascii" RangeMin="0.31320268577451565" RangeMax="0.6356886233499035">
          0.6000000238418579 0.20999999344348907 0 0.6000000238418579 0.20000000298023224 0
          0.6000000238418579 0.1899999976158142 0 0.5765992999076843 0.20999999344348907 0
          0.5765992999076843 0.20000000298023224 0 0.5765992999076843 0.1899999976158142 0
          0.5531985759735107 0.20999999344348907 0 0.5531985759735107 0.20000000298023224 0
          0.5531985759735107 0.1899999976158142 0 0.5297979712486267 0.20999999344348907 0
          0.5297979712486267 0.20000000298023224 0 0.5297979712486267 0.1899999976158142 0
          0.5063973069190979 0.20999999344348907 0 0.5063973069190979 0.20000000298023224 0
          0.5063973069190979 0.1899999976158142 0 0.4829966127872467 0.20999999344348907 0
          0.4829966127872467 0.20000000298023224 0 0.4829966127872467 0.1899999976158142 0
          0.4595958888530731 0.20999999344348907 0 0.4595958888530731 0.20000000298023224 0
          0.4595958888530731 0.1899999976158142 0 0.4361951947212219 0.20999999344348907 0
          0.4361951947212219 0.20000000298023224 0 0.4361951947212219 0.1899999976158142 0
          0.4127945899963379 0.20999999344348907 0 0.4127945899963379 0.20000000298023224 0
          0.4127945899963379 0.1899999976158142 0 0.3893938958644867 0.20999999344348907 0
          0.3893938958644867 0.20000000298023224 0 0.3893938958644867 0.1899999976158142 0
          0.3659932017326355 0.20999999344348907 0 0.3659932017326355 0.20000000298023224 0
          0.3659932017326355 0.1899999976158142 0 0.3425925076007843 0.20999999344348907 0
          0.3425925076007843 0.20000000298023224 0 0.3425925076007843 0.1899999976158142 0
          0.3191918134689331 0.20999999344348907 0 0.3191918134689331 0.20000000298023224 0
          0.3191918134689331 0.1899999976158142 0 0.2957912087440491 0.20999999344348907 0
          0.2957912087440491 0.20000000298023224 0 0.2957912087440491 0.1899999976158142 0
          0.2723905146121979 0.20999999344348907 0 0.2723905146121979 0.20000000298023224 0
          0.2723905146121979 0.1899999976158142 0 0.24898980557918549 0.20999999344348907 0
          0.24898980557918549 0.20000000298023224 0 0.24898980557918549 0.1899999976158142 0
          <InformationKey name="L2_NORM_RANGE" location="vtkDataArray" length="2">
            <Value index="0">
              0.31320268577
            </Value>
            <Value index="1">
              0.63568862335
            </Value>
          </InformationKey>
        </DataArray>
      </Points>
      <Cells>
        <DataArray type="Int64" Name="connectivity" format="ascii" RangeMin="0" RangeMax="47">
          46 43 42 45 47 44
          43 46 43 40 39 42
          44 41 40 43 40 37
          36 39 41 38 37 40
          37 34 33 36 38 35
          34 37 34 31 30 33
          35 32 31 34 31 28
          27 30 32 29 28 31
          28 25 24 27 29 26
          25 28 25 22 21 24
          26 23 22 25 22 19
          18 21 23 20 19 22
          19 16 15 18 20 17
          16 19 16 13 12 15
          17 14 13 16 13 10
          9 12 14 11 10 13
          10 7 6 9 11 8
          7 10 7 4 3 6
          8 5 4 7 4 1
          0 3 5 2 1 4
        </DataArray>
        <DataArray type="Int64" Name="offsets" format="ascii" RangeMin="4" RangeMax="120">
          4 8 12 16 20 24
          28 32 36 40 44 48
          52 56 60 64 68 72
          76 80 84 88 92 96
          100 104 108 112 116 120
        </DataArray>
        <DataArray type="UInt8" Name="types" format="ascii" RangeMin="9" RangeMax="9">
          9 9 9 9 9 9
          9 9 9 9 9 9
          9 9 9 9 9 9
          9 9 9 9 9 9
          9 9 9 9 9 9
        </DataArray>
      </Cells>
    </Piece>
  </UnstructuredGrid>
</VTKFile>
