<?xml version="1.0"?>
<VTKFile type="UnstructuredGrid" version="0.1" byte_order="LittleEndian" header_type="UInt32" compressor="vtkZLibDataCompressor">
  <UnstructuredGrid>
    <Piece NumberOfPoints="48" NumberOfCells="30">
      <PointData>
        <DataArray type="Float64" Name="sld_BC" NumberOfComponents="3" format="ascii" RangeMin="0" RangeMax="0">
          0 0 0 0 0 0
          0 0 0 0 0 0
          0 0 0 0 0 0
          0 0 0 0 0 0
          0 0 0 0 0 0
          0 0 0 0 0 0
          0 0 0 0 0 0
          0 0 0 0 0 0
          0 0 0 0 0 0
          0 0 0 0 0 0
          0 0 0 0 0 0
          0 0 0 0 0 0
          0 0 0 0 0 0
          0 0 0 0 0 0
          0 0 0 0 0 0
          0 0 0 0 0 0
          0 0 0 0 0 0
          0 0 0 0 0 0
          0 0 0 0 0 0
          0 0 0 0 0 0
          0 0 0 0 0 0
          0 0 0 0 0 0
          0 0 0 0 0 0
          0 0 0 0 0 0
          <InformationKey name="L2_NORM_RANGE" location="vtkDataArray" length="2">
            <Value index="0">
              0
            </Value>
            <Value index="1">
              0
            </Value>
          </InformationKey>
        </DataArray>
        <DataArray type="Float64" Name="sld_FIXNO" NumberOfComponents="3" format="ascii" RangeMin="1.4142135623730951" RangeMax="1.4142135623730951">
          -1 -1 0 -1 -1 0
          -1 -1 0 -1 -1 0
          -1 -1 0 -1 -1 0
          -1 -1 0 -1 -1 0
          -1 -1 0 -1 -1 0
          -1 -1 0 -1 -1 0
          -1 -1 0 -1 -1 0
          -1 -1 0 -1 -1 0
          -1 -1 0 -1 -1 0
          -1 -1 0 -1 -1 0
          -1 -1 0 -1 -1 0
          -1 -1 0 -1 -1 0
          -1 -1 0 -1 -1 0
          -1 -1 0 -1 -1 0
          -1 -1 0 -1 -1 0
          -1 -1 0 -1 -1 0
          -1 -1 0 -1 -1 0
          -1 -1 0 -1 -1 0
          -1 -1 0 -1 -1 0
          -1 -1 0 -1 -1 0
          -1 -1 0 -1 -1 0
          -1 -1 0 -1 -1 0
          -1 -1 0 1 1 0
          1 1 0 1 1 0
          <InformationKey name="L2_NORM_RANGE" location="vtkDataArray" length="2">
            <Value index="0">
              1.4142135624
            </Value>
            <Value index="1">
              1.4142135624
            </Value>
          </InformationKey>
        </DataArray>
        <DataArray type="Float64" Name="Disp" NumberOfComponents="3" format="ascii" RangeMin="0" RangeMax="0.0005443888646148627">
          0.00020511710443087914 -0.0005042679936170361 0 0.000013661933917249379 -0.00046201878440321363 0
          -0.00016852852418835853 -0.00045903992805253083 0 0.00010358591282937171 -0.00003338350865980469 0
          -0.000001779884407388579 -0.000020875030974127267 0 -0.00010289936715369867 -0.00003181409055754168 0
          0.00000628802940286525 0.00003627455639785856 0 -0.000004674534947188675 0.000045696705091897694 0
          -0.00001550609497145599 0.00003676471540449987 0 -0.000010610233546226412 0.00000295415787401716 0
          -0.000002263965281045718 0.0000010833978941132858 0 0.000006088405726719307 9.705060049120394e-7 0
          -9.335526069724955e-7 -0.0000020628901625504493 0 -2.716090416721604e-7 -0.000003011175955144089 0
          1.3696192447621116e-7 -0.0000024513985444465843 0 5.210640424157516e-7 9.800701883984664e-8 0
          -3.601304016640459e-8 2.090344605221049e-7 0 -6.059150547768998e-7 7.002182375041257e-8 0
          -3.1497660008914604e-8 1.036216406094454e-7 0 -6.0917864465268975e-9 1.3323069223856646e-7 0
          1.7048663044280088e-8 9.530887518648405e-8 0 -2.7027613240509283e-8 -1.2660962309230763e-8 0
          -2.9991122491699494e-10 -2.4210293725317298e-8 0 2.575111676677883e-8 -1.3117444964136225e-8 0
          4.157276926845573e-9 -3.272567988259127e-9 0 -7.874600352259703e-11 -3.459463759979249e-9 0
          -4.287183806831464e-9 -3.3306071158155943e-9 0 6.773097817028237e-10 9.864000960409387e-10 0
          -5.477524678548854e-12 1.4999738414490667e-9 0 -6.993479044217427e-10 9.72223050969968e-10 0
          -2.6530677432187743e-10 1.0921034451843524e-11 0 -1.6353570657774899e-13 -4.178700370140438e-11 0
          2.648234582074256e-10 1.1491125786414156e-11 0 3.4027614238237043e-12 -3.773584141774475e-11 0
          -1.545848397770896e-13 -5.463657792190251e-11 0 -3.651681813120418e-12 -3.7960543791224565e-11 0
          1.0352090441491853e-11 3.4348314800799486e-12 0 8.640740365851519e-15 8.101334853407393e-12 0
          -1.0366421945050379e-11 3.4358503459192874e-12 0 -1.4501811865224786e-12 1.1739191484558737e-12 0
          -1.6682763790453002e-15 1.1604194877404395e-12 0 1.4507546140611522e-12 1.1745494122724073e-12 0
          -2.181909802519803e-13 -2.9551720240492084e-13 0 -7.22345576112329e-17 -4.431590806959698e-13 0
          2.1761988650467561e-13 -2.960014355163281e-13 0 0 0 0
          0 0 0 0 0 0
          <InformationKey name="L2_NORM_RANGE" location="vtkDataArray" length="2">
            <Value index="0">
              0
            </Value>
            <Value index="1">
              0.00054438886461
            </Value>
          </InformationKey>
        </DataArray>
        <DataArray type="Float64" Name="Sld_traction" NumberOfComponents="3" format="ascii" RangeMin="0" RangeMax="3782.315026867904">
          -756.3875799930282 -232.0134515450757 0 -1560.373132664879 -84.88225352609996 0
          -376.18649739846575 3077.0902392544817 0 -503.523932762908 3748.649171582442 0
          0 0 0 373.28447908310153 3749.7810272495817 0
          795.0194264587907 2468.6774824083845 0 0 0 0
          -776.1491286969891 2312.634958800063 0 216.27651570019486 259.27614367013206 0
          0 0 0 -228.63554027510295 227.17825656966886 0
          -56.39835867807802 -198.05119684153212 0 0 0 0
          68.88365017205263 -186.73276402637697 0 -10.309154334200874 -14.820587687078552 0
          0 0 0 11.805383836437038 -6.8366936824729345 0
          4.754987713980223 12.526067542748452 0 0 0 0
          -4.648987403541928 13.013424724208111 0 0.07466335199250271 -0.684905168786445 0
          0 0 0 -0.027675921125456197 -0.5828553956968949 0
          -0.22164140139933627 -0.5947734958105564 0 0 0 0
          0.22155377994747544 -0.5763043571963765 0 0.02077130466119102 0.09825911637691642 0
          0 0 0 -0.020285967142218853 0.09808096176028841 0
          0.007822725252918262 0.01450654011639878 0 0 0 0
          -0.007770734303748386 0.014831608130592039 0 -0.001924774945280994 -0.005997716842300887 0
          0 0 0 0.0019191381459137328 -0.00599406019568574 0
          -0.00005333566619418066 0.00011979802018515217 0 0 0 0
          0.00005522389448553982 0.00011945958697752368 0 0.00007594685173529805 0.000228466439416397 0
          0 0 0 -0.00007609957366782721 0.00022920686558327202 0
          -0.00000680006969998157 -0.00003176790379708673 0 0 0 0
          0.000006811698667965411 -0.00003185817734540208 0 -0.0000013866310574176746 -5.154814475476204e-7 0
          1.829612090084105e-8 0.000008419103419645393 0 0.0000014052656632017024 -5.135773986883872e-7 0
          <InformationKey name="L2_NORM_RANGE" location="vtkDataArray" length="2">
            <Value index="0">
              0
            </Value>
            <Value index="1">
              3782.3150269
            </Value>
          </InformationKey>
        </DataArray>
        <DataArray type="Float64" Name="Velocity" NumberOfComponents="3" format="ascii" RangeMin="0" RangeMax="0.17108462293889187">
          0.04322043952067222 -0.14543166034814425 0 -0.005696998846499554 -0.14435313033413597 0
          -0.06716778345241652 -0.15734813971646466 0 0.04955746732010237 -0.03834713830689626 0
          0.008493907871458041 -0.03658378852069946 0 -0.038164797139783255 -0.038336106521026835 0
          0.011189845205623626 0.019558389403851927 0 -0.0006928443485082808 0.02681758719592172 0
          -0.01137974927054916 0.02455941764949686 0 -0.006653393110899405 0.004122710444979524 0
          -0.002092235218789912 0.0036121724899499134 0 0.002999034679850259 0.0025841982414341 0
          -0.001282563953395751 -0.001661132746496205 0 -0.00023147828556350938 -0.0024913171453714877 0
          0.0005333844208364855 -0.0020509079797427386 0 0.00041875796138828665 0.000015974983486241326 0
          -0.00003005667309199632 0.000060989099332798946 0 -0.00048488273135355406 0.000002059650114495886 0
          -0.0000032700043571309154 0.00009196864419969719 0 -0.000006436251391479033 0.00012715190571219444 0
          -0.000011296086285113448 0.00008286924341098 0 -0.000026130311590324294 -0.000007529211982349134 0
          -1.628450409637056e-7 -0.000017364838714150636 0 0.00002497744758688344 -0.000007863749556891655 0
          0.000003051102039594053 -0.000003674394593214371 0 -8.595787397329737e-8 -0.000004172140339473612 0
          -0.0000031610847969716137 -0.000003722070538387699 0 7.7233979901762e-7 9.01849951868453e-7 0
          -5.0610544901356534e-9 0.0000013666796978847565 0 -7.970083820945404e-7 8.849292213732952e-7 0
          -2.353776841075743e-7 2.3685139129060767e-8 0 2.2538418541192698e-11 -5.579889984552024e-9 0
          2.3544796567339012e-7 2.4847095738834952e-8 0 -4.0767732177100225e-9 -3.4070638147382566e-8 0
          -1.9214056260403036e-10 -5.359672459175849e-8 0 3.790620526113189e-9 -3.43581595422283e-8 0
          1.0388412076691113e-8 2.0855151208032034e-9 0 1.4485000269547594e-11 6.588522716358783e-9 0
          -1.0402251906354167e-8 2.090599600862061e-9 0 -1.2359678745836725e-9 1.3151339987548825e-9 0
          -2.1578785701926243e-12 1.344653418174346e-9 0 1.2373828839897224e-9 1.3161630851153385e-9 0
          -2.372625070996288e-10 -2.889107581451813e-10 0 -6.925920407169389e-14 -4.2484876755383387e-10 0
          2.365146078781112e-10 -2.895361495181721e-10 0 0 0 0
          0 0 0 0 0 0
          <InformationKey name="L2_NORM_RANGE" location="vtkDataArray" length="2">
            <Value index="0">
              0
            </Value>
            <Value index="1">
              0.17108462294
            </Value>
          </InformationKey>
        </DataArray>
      </PointData>
      <CellData>
        <DataArray type="UInt8" Name="vtkGhostType" format="ascii" RangeMin="0" RangeMax="0">
          0 0 0 0 0 0
          0 0 0 0 0 0
          0 0 0 0 0 0
          0 0 0 0 0 0
          0 0 0 0 0 0
        </DataArray>
        <DataArray type="Float64" Name="Gauss Stress" NumberOfComponents="6" format="ascii" RangeMin="0.000018487047459615388" RangeMax="4622.726608375215">
          7.737699369195562e-7 0.000012819467709453907 0 -0.000013344573200105591 0 0
          -7.705502903335097e-7 -0.000012776779634429473 0 -0.000013339080860290447 0 0
          -0.0000629590268832581 -0.000028544000498174893 0 -0.000008835417527111668 0 0
          0.00006281386521788305 0.000028435420683151124 0 -0.000008910594753723631 0 0
          0.0002918972284647835 -0.00019315210555410163 0 0.0003206810240045644 0 0
          -0.0002916954457216521 0.00019314927421887847 0 0.0003213777507956289 0 0
          0.0007675040585510163 0.0015311888398984177 0 -0.0007625813543125951 0 0
          -0.0007810986319596319 -0.0015216116169382717 0 -0.0007657087429741422 0 0
          -0.010264150910304908 -0.0010420360022272111 0 -0.005882546812211525 0 0
          0.010213440351628548 0.0009794467013512255 0 -0.005871655715510869 0 0
          0.01399512640781863 -0.029075391810278454 0 0.03733388636696194 0 0
          -0.014697375436269072 0.02974113751894132 0 0.03745731833270942 0 0
          0.18570390109932822 0.096579460598803 0 0.024485951238256663 0 0
          -0.19478963376006878 -0.09661855233147906 0 0.023604824041876353 0 0
          -0.8395362309144756 0.4183267391012181 0 -0.8842841687746922 0 0
          0.7891334688905385 -0.40905443301297106 0 -0.872313359273699 0 0
          -2.4637418069305257 -3.1474497948007225 0 1.6209728031329467 0 0
          1.7538222772573868 3.4049807486367727 0 1.6105865754414197 0 0
          19.437966862306002 1.238512901714822 0 14.04149868182781 0 0
          -24.156953949251808 -1.3605531784396412 0 14.208917410890045 0 0
          -24.624320543801193 53.35865568412504 0 -60.1080963996066 0 0
          -9.559358062178262 -41.42977181256014 0 -57.30843230244762 0 0
          -465.92184782269044 -75.72037550412574 0 -127.93168955587129 0 0
          209.3025920938265 102.26360880292519 0 -138.70136255564793 0 0
          172.56577338455617 -513.3782240156696 0 898.3059062068613 0 0
          -635.2878939721829 331.21836910051206 0 920.6563723553304 0 0
          4271.043174619929 1019.7398086912476 0 1444.9644351620113 0 0
          -3387.5880628846717 -601.7485278301323 0 1361.3702367638987 0 0
          2697.318379676047 -2462.1416376785073 0 -2367.698951581022 0 0
          -1797.3741320341123 -257.37514631700833 0 -2182.603553975956 0 0
          <InformationKey name="L2_NORM_RANGE" location="vtkDataArray" length="2">
            <Value index="0">
              1.848704746e-05
            </Value>
            <Value index="1">
              4622.7266084
            </Value>
          </InformationKey>
        </DataArray>
        <DataArray type="Float64" Name="Gauss Strain" NumberOfComponents="6" format="ascii" RangeMin="2.8061889229446108e-11" RangeMax="0.0059754733401976776">
          -4.66349181493797e-12 7.382205957640052e-12 0 -2.6689146400106876e-11 0 0
          4.648392781803067e-12 -7.357836562249533e-12 0 -2.667816172068474e-11 0 0
          -2.6357804827625838e-11 8.057221556612149e-12 0 -1.7670835054709383e-11 0 0
          2.6314173062758076e-11 -8.064271472818518e-12 0 -1.7821189506960154e-11 0 0
          2.523992126413077e-10 -2.3265012139006555e-10 0 6.413620480508495e-10 0 0
          -2.5227697708629643e-10 2.3256774284163842e-10 0 6.427555015493796e-10 0 0
          -1.5197310077041948e-10 6.11711681308691e-10 0 -1.5251627077797763e-9 0 0
          1.3998546766202935e-10 -6.00527516603222e-10 0 -1.5314174867982263e-9 0 0
          -5.741676217807523e-9 3.4804387011311277e-9 0 -1.1765093641544647e-8 0 0
          5.736285405011366e-9 -3.4977082064013842e-9 0 -1.1743311414418156e-8 0 0
          2.0027230179797684e-8 -2.3043288305268913e-8 0 7.466777348814602e-8 0 0
          -2.071488267030297e-8 2.372363000491262e-8 0 7.491463589096568e-8 0 0
          7.279054725639611e-8 -1.6333886715402812e-8 0 4.8971897258841364e-8 0 0
          -7.822636918786152e-8 1.994471950095278e-8 0 4.720965310947012e-8 0 0
          -6.710541887999799e-7 5.868089254928989e-7 0 -0.0000017685681398110167 0 0
          6.371001884941663e-7 -5.6108758317297e-7 0 -0.0000017446269128888808 0 0
          -2.1926733728694359e-7 -9.029775038665866e-7 0 0.000003241949298126085 0 0
          -3.0970111083994384e-7 0.000001341453656225622 0 0.00000322116968682059 0 0
          0.000011166890894517834 -0.000007032441701526615 0 0.00002808292797471824 0 0
          -0.000013950519338917779 0.000008846042785351504 0 0.000028417920774523362 0 0
          -0.00003612416828660536 0.000041857651153442976 0 -0.00012021422980033916 0 0
          0.000010832045037087458 -0.000021038955063029663 0 -0.00011461870759875726 0 0
          -0.00024936899333852236 0.00014088304016267317 0 -0.0002558841082442574 0 0
          0.00008462563089990661 -0.000022397458505907235 0 -0.00027738017214092394 0 0
          0.0003077149813860147 -0.0003783259353355717 0 0.0017969505356896635 0 0
          -0.0005150896157435358 0.00045146735730285104 0 0.0018412593989091753 0 0
          0.0021445423510044193 -0.0011019858472958721 0 0.0028871488347855558 0 0
          -0.0018001888029977597 0.000989120925579359 0 0.002724725552490952 0 0
          0.0025861614031681135 -0.002572690651471338 0 -0.004732791316761041 0 0
          -0.0009843848643859147 0.0005570963422789482 0 -0.004365988083026695 0 0
          <InformationKey name="L2_NORM_RANGE" location="vtkDataArray" length="2">
            <Value index="0">
              2.8061889229e-11
            </Value>
            <Value index="1">
              0.0059754733402
            </Value>
          </InformationKey>
        </DataArray>
        <DataArray type="Float64" Name="Btraction" NumberOfComponents="3" format="ascii" RangeMin="0" RangeMax="0">
          0 0 0 0 0 0
          0 0 0 0 0 0
          0 0 0 0 0 0
          0 0 0 0 0 0
          0 0 0 0 0 0
          0 0 0 0 0 0
          0 0 0 0 0 0
          0 0 0 0 0 0
          0 0 0 0 0 0
          0 0 0 0 0 0
          0 0 0 0 0 0
          0 0 0 0 0 0
          0 0 0 0 0 0
          0 0 0 0 0 0
          0 0 0 0 0 0
          <InformationKey name="L2_NORM_RANGE" location="vtkDataArray" length="2">
            <Value index="0">
              0
            </Value>
            <Value index="1">
              0
            </Value>
          </InformationKey>
        </DataArray>
      </CellData>
      <Points>
        <DataArray type="Float32" Name="Points" NumberOfComponents="3" format="ascii" RangeMin="0.31320268577451565" RangeMax="0.6356886233499035">
          0.6000000238418579 0.20999999344348907 0 0.6000000238418579 0.20000000298023224 0
          0.6000000238418579 0.1899999976158142 0 0.5765992999076843 0.20999999344348907 0
          0.5765992999076843 0.20000000298023224 0 0.5765992999076843 0.1899999976158142 0
          0.5531985759735107 0.20999999344348907 0 0.5531985759735107 0.20000000298023224 0
          0.5531985759735107 0.1899999976158142 0 0.5297979712486267 0.20999999344348907 0
          0.5297979712486267 0.20000000298023224 0 0.5297979712486267 0.1899999976158142 0
          0.5063973069190979 0.20999999344348907 0 0.5063973069190979 0.20000000298023224 0
          0.5063973069190979 0.1899999976158142 0 0.4829966127872467 0.20999999344348907 0
          0.4829966127872467 0.20000000298023224 0 0.4829966127872467 0.1899999976158142 0
          0.4595958888530731 0.20999999344348907 0 0.4595958888530731 0.20000000298023224 0
          0.4595958888530731 0.1899999976158142 0 0.4361951947212219 0.20999999344348907 0
          0.4361951947212219 0.20000000298023224 0 0.4361951947212219 0.1899999976158142 0
          0.4127945899963379 0.20999999344348907 0 0.4127945899963379 0.20000000298023224 0
          0.4127945899963379 0.1899999976158142 0 0.3893938958644867 0.20999999344348907 0
          0.3893938958644867 0.20000000298023224 0 0.3893938958644867 0.1899999976158142 0
          0.3659932017326355 0.20999999344348907 0 0.3659932017326355 0.20000000298023224 0
          0.3659932017326355 0.1899999976158142 0 0.3425925076007843 0.20999999344348907 0
          0.3425925076007843 0.20000000298023224 0 0.3425925076007843 0.1899999976158142 0
          0.3191918134689331 0.20999999344348907 0 0.3191918134689331 0.20000000298023224 0
          0.3191918134689331 0.1899999976158142 0 0.2957912087440491 0.20999999344348907 0
          0.2957912087440491 0.20000000298023224 0 0.2957912087440491 0.1899999976158142 0
          0.2723905146121979 0.20999999344348907 0 0.2723905146121979 0.20000000298023224 0
          0.2723905146121979 0.1899999976158142 0 0.24898980557918549 0.20999999344348907 0
          0.24898980557918549 0.20000000298023224 0 0.24898980557918549 0.1899999976158142 0
          <InformationKey name="L2_NORM_RANGE" location="vtkDataArray" length="2">
            <Value index="0">
              0.31320268577
            </Value>
            <Value index="1">
              0.63568862335
            </Value>
          </InformationKey>
        </DataArray>
      </Points>
      <Cells>
        <DataArray type="Int64" Name="connectivity" format="ascii" RangeMin="0" RangeMax="47">
          46 43 42 45 47 44
          43 46 43 40 39 42
          44 41 40 43 40 37
          36 39 41 38 37 40
          37 34 33 36 38 35
          34 37 34 31 30 33
          35 32 31 34 31 28
          27 30 32 29 28 31
          28 25 24 27 29 26
          25 28 25 22 21 24
          26 23 22 25 22 19
          18 21 23 20 19 22
          19 16 15 18 20 17
          16 19 16 13 12 15
          17 14 13 16 13 10
          9 12 14 11 10 13
          10 7 6 9 11 8
          7 10 7 4 3 6
          8 5 4 7 4 1
          0 3 5 2 1 4
        </DataArray>
        <DataArray type="Int64" Name="offsets" format="ascii" RangeMin="4" RangeMax="120">
          4 8 12 16 20 24
          28 32 36 40 44 48
          52 56 60 64 68 72
          76 80 84 88 92 96
          100 104 108 112 116 120
        </DataArray>
        <DataArray type="UInt8" Name="types" format="ascii" RangeMin="9" RangeMax="9">
          9 9 9 9 9 9
          9 9 9 9 9 9
          9 9 9 9 9 9
          9 9 9 9 9 9
          9 9 9 9 9 9
        </DataArray>
      </Cells>
    </Piece>
  </UnstructuredGrid>
</VTKFile>
