<?xml version="1.0"?>
<VTKFile type="UnstructuredGrid" version="0.1" byte_order="LittleEndian" header_type="UInt32" compressor="vtkZLibDataCompressor">
  <UnstructuredGrid>
    <Piece NumberOfPoints="37" NumberOfCells="52">
      <PointData>
        <DataArray type="Float64" Name="nsi_SBC" NumberOfComponents="3" format="ascii" RangeMin="0" RangeMax="0">
          0 0 0 0 0 0
          0 0 0 0 0 0
          0 0 0 0 0 0
          0 0 0 0 0 0
          0 0 0 0 0 0
          0 0 0 0 0 0
          0 0 0 0 0 0
          0 0 0 0 0 0
          0 0 0 0 0 0
          0 0 0 0 0 0
          0 0 0 0 0 0
          0 0 0 0 0 0
          0 0 0 0 0 0
          0 0 0 0 0 0
          0 0 0 0 0 0
          0 0 0 0 0 0
          0 0 0 0 0 0
          0 0 0 0 0 0
          0 0 0
          <InformationKey name="L2_NORM_RANGE" location="vtkDataArray" length="2">
            <Value index="0">
              0
            </Value>
            <Value index="1">
              0
            </Value>
          </InformationKey>
        </DataArray>
        <DataArray type="Float64" Name="nsi_SFIXNO" NumberOfComponents="3" format="ascii" RangeMin="0" RangeMax="1.7320508075688772">
          0 0 0 0 0 0
          0 0 0 -1 -1 -1
          0 0 0 0 0 0
          -1 -1 -1 -1 -1 -1
          -1 -1 -1 0 0 0
          0 0 0 -1 -1 -1
          -1 -1 -1 -1 -1 -1
          -1 -1 -1 -1 -1 -1
          0 0 0 0 0 0
          -1 -1 -1 -1 -1 -1
          -1 -1 -1 -1 -1 -1
          -1 -1 -1 -1 -1 -1
          0 0 0 0 0 0
          0 0 0 0 0 0
          -1 -1 -1 0 0 0
          0 0 0 -1 -1 -1
          0 0 0 0 0 0
          0 0 0 0 0 0
          0 0 0
          <InformationKey name="L2_NORM_RANGE" location="vtkDataArray" length="2">
            <Value index="0">
              0
            </Value>
            <Value index="1">
              1.7320508076
            </Value>
          </InformationKey>
        </DataArray>
        <DataArray type="Float64" Name="nsi_UBC" NumberOfComponents="3" format="ascii" RangeMin="0" RangeMax="1">
          0 0 0 0 0 0
          0 0 0 0 0 0
          0 0 0 0 0 0
          0 0 0 0 0 0
          0 0 0 0 0 0
          0 0 0 0 0 0
          0 0 0 0 0 0
          0 0 0 0 0 0
          0 0 0 0 0 0
          0 0 0 0 0 0
          0 0 0 0 0 0
          0 0 0 0 0 0
          0 0 0 1 0 0
          1 0 0 0 0 0
          0 0 0 0 0 0
          1 0 0 0 0 0
          0 0 0 1 0 0
          1 0 0 0 0 0
          1 0 0
          <InformationKey name="L2_NORM_RANGE" location="vtkDataArray" length="2">
            <Value index="0">
              0
            </Value>
            <Value index="1">
              1
            </Value>
          </InformationKey>
        </DataArray>
        <DataArray type="Float64" Name="nsi_UFIXNO" NumberOfComponents="3" format="ascii" RangeMin="1.4142135623730951" RangeMax="1.4142135623730951">
          1 1 0 1 1 0
          1 1 0 -1 -1 0
          1 1 0 1 1 0
          -1 -1 0 -1 -1 0
          -1 -1 0 1 1 0
          1 1 0 -1 -1 0
          -1 -1 0 -1 -1 0
          -1 -1 0 -1 -1 0
          1 1 0 1 1 0
          -1 -1 0 -1 -1 0
          -1 -1 0 -1 -1 0
          -1 -1 0 -1 -1 0
          1 1 0 1 1 0
          1 1 0 1 1 0
          -1 -1 0 1 1 0
          1 1 0 -1 -1 0
          1 1 0 1 1 0
          1 1 0 1 1 0
          1 1 0
          <InformationKey name="L2_NORM_RANGE" location="vtkDataArray" length="2">
            <Value index="0">
              1.4142135624
            </Value>
            <Value index="1">
              1.4142135624
            </Value>
          </InformationKey>
        </DataArray>
        <DataArray type="Float64" Name="tem_BC" format="ascii" RangeMin="0" RangeMax="462">
          0 0 0 0 0 0
          0 0 0 0 0 0
          0 0 0 0 0 0
          0 0 0 0 0 0
          0 462 462 0 0 0
          462 0 0 462 462 0
          462
        </DataArray>
        <DataArray type="Float64" Name="tem_FIXNO" format="ascii" RangeMin="-1" RangeMax="1">
          -1 -1 -1 -1 -1 -1
          -1 -1 -1 -1 -1 -1
          -1 -1 -1 -1 -1 -1
          -1 -1 -1 -1 -1 -1
          -1 1 1 -1 -1 -1
          1 -1 -1 1 1 -1
          1
        </DataArray>
        <DataArray type="Float64" Name="Velocity" NumberOfComponents="3" format="ascii" RangeMin="0" RangeMax="0.9999999999788888">
          0 0 0 0 0 0
          0 0 0 -0.037267010990459086 -0.04606138598143541 0
          0 0 0 0 0 0
          -0.05877348714335661 -0.013312111587042028 0 -0.042502672750362146 -0.12286257086146594 0
          -0.10500690341683705 -0.056431846735396696 0 0 0 0
          0 0 0 -0.09402313282040424 0.006701089487197594 0
          -0.04840204057826002 -0.10634274537407687 0 -0.13379073520881804 0.010959736956327551 0
          -0.048914810450706725 0.02653221269034246 0 0.0018110634218095353 -0.15600986248561446 0
          0 0 0 0 0 0
          -0.09664768720388074 0.07298231136580376 0 0.3086169821103753 -0.04093847357764613 0
          -0.03487576171429083 0.05344887161057567 0 0.21557355017750768 0.004505322365731621 0
          -0.05682551195279441 0.12500374317608348 0 -0.043649592123623626 0.12343023088197266 0
          0 0 0 0.9999999999788888 0 0
          0.9999999999788888 0 0 0 0 0
          0.34460739485183767 0.04656798813637962 0 0 0 0
          0.9999999999788888 0 0 -0.004206699907633583 0.15959076830936608 0
          0 0 0 0.9999999999788888 0 0
          0.9999999999788888 0 0 0 0 0
          0.9999999999788888 0 0
          <InformationKey name="L2_NORM_RANGE" location="vtkDataArray" length="2">
            <Value index="0">
              0
            </Value>
            <Value index="1">
              0.99999999998
            </Value>
          </InformationKey>
        </DataArray>
        <DataArray type="Float64" Name="Pressure" format="ascii" RangeMin="-113894.11816677074" RangeMax="95939.89367656359">
          0 568.4371540707281 -1612.2583054392671 859.1026222367601 -2205.87132915577 4995.066325803724
          -1632.3331522709404 13124.54030478158 -1505.3257545520337 -12135.3615182882 30408.88574771148 -7877.317912121998
          15454.001929484271 -9252.382646165446 -14678.150741342613 53016.1778223871 -13285.23279102977 95939.89367656359
          -13870.59550092799 13200.93107914688 -16817.448130380522 -9473.740248982302 -34914.47158665851 -27561.321933623134
          -14577.077581189396 65934.94475335185 53661.18029135183 -13048.788960922084 -32755.86467662498 -19477.71560047222
          9783.982628625768 -70716.16122101579 -45567.03446269988 -23731.126591391247 -70553.84969062853 -113894.11816677074
          -81464.8242353115
        </DataArray>
        <DataArray type="Float64" Name="Sigma" NumberOfComponents="6" format="ascii" RangeMin="492.71087742248113" RangeMax="48926.3043269704">
          -256.3761936830162 557.0134846151465 0 -144.31799114620085 0 0
          887.1283720060325 -633.1579633063993 0 -879.3764778813764 0 0
          197.79483541602352 -1053.0431714620488 0 1168.0127867304222 0 0
          3108.76591737351 -3071.9756764954427 0 -892.87142674671 0 0
          923.5441526020606 151.74745514064395 0 -2946.435753422435 0 0
          1888.0913845949476 -2685.5403895496343 0 5432.137840176907 0 0
          1348.0723650080718 -1174.2673024552173 0 -939.6182335650674 0 0
          5994.866243133639 -6207.518341013864 0 -1226.868819527924 0 0
          3009.0652037032773 -3727.145284467792 0 -3190.170663792715 0 0
          -864.9857789359272 363.5035207453568 0 -2554.725506549697 0 0
          1678.9518214910981 -7773.014713064289 0 10125.274814277851 0 0
          -611.1676426062191 678.8629418972627 0 -1337.442463329962 0 0
          920.0737436904345 1662.5883300284856 0 -2892.3326835430707 0 0
          -346.7752923462988 -147.91437272822924 0 -5879.696220846733 0 0
          -2013.3476360953666 1623.5825705043007 0 -1409.6807584451753 0 0
          -1947.852364069555 7636.066784601169 0 2829.9828112579144 0 0
          -483.28588394221117 371.3946190012112 0 -409.63341405910717 0 0
          -1059.514651650999 12952.439736400118 0 25857.028450582846 0 0
          -4007.837134309618 5228.540253357574 0 -2564.710223098481 0 0
          -6707.453495807536 1908.5419032810555 0 16565.26207763283 0 0
          -3212.9427695729128 2390.1800971601315 0 -608.6167592733442 0 0
          707.2051917268773 -247.7202327683791 0 14082.807703587998 0 0
          -393.0630810139936 -2179.476814768002 0 -2634.485556321528 0 0
          -5831.752633135339 6292.390602492612 0 -1479.6477776791412 0 0
          -307.8435648278069 -53.57154829009845 0 -380.95463973856613 0 0
          2095.4051576384854 -8002.392222112568 0 37308.18984850392 0 0
          124.86958453166123 2159.9272707003897 0 47506.23932697492 0 0
          -583.4582231205969 1418.1824219169616 0 1171.5458939162743 0 0
          5606.553698957325 -1136.291789593646 0 17354.300273623903 0 0
          -2124.657156549367 3581.953357224969 0 5475.605311306735 0 0
          267.5824310732756 2439.3417183292577 0 39040.718415502204 0 0
          2408.715764665017 -8174.80490470102 0 2061.526723837967 0 0
          -2027.1856728025055 7959.795031656739 0 10977.6795374178 0 0
          1012.3772395031576 -3591.289319973034 0 38992.11215289863 0 0
          1449.9677507637577 -2002.6295081251883 0 48863.79358656319 0 0
          1321.4537606165472 -12748.721904893298 0 26561.09193603035 0 0
          -1060.2524292337425 8204.605166982683 0 36174.836511475776 0 0
          <InformationKey name="L2_NORM_RANGE" location="vtkDataArray" length="2">
            <Value index="0">
              492.71087742
            </Value>
            <Value index="1">
              48926.304327
            </Value>
          </InformationKey>
        </DataArray>
        <DataArray type="Float64" Name="Temperature" format="ascii" RangeMin="-1.4290112718732317" RangeMax="462.00000000000006">
          -0.04077171805023449 -0.009253029559111198 0.09080718133761319 -0.07250426048931129 -0.07514955962114943 -0.2745572526368217
          0.13415223198835505 0.5627644655650347 -0.3910514672792454 -0.07963628410020133 -0.04532891720603528 0.07389859373945115
          0.40411669784602106 0.15412267842429347 0.008137788195676576 -1.4290112718732317 0.024175531765709374 1.951541827455554
          -0.08938930653409474 1.5549695767435432 0.021784528739508778 -1.257060707979202 -0.1846605119181693 -0.03780113179982701
          -0.0036325906506388716 461.99999999999994 462.00000000000006 -0.016909031133789325 2.2060378712624527 -0.0001503223996160734
          462.00000000000006 -1.2079684125003882 0.31142622265745584 462 462.00000000000006 1.3138558332770984
          461.99999999999994
        </DataArray>
      </PointData>
      <CellData>
        <DataArray type="UInt8" Name="vtkGhostType" format="ascii" RangeMin="0" RangeMax="0">
          0 0 0 0 0 0
          0 0 0 0 0 0
          0 0 0 0 0 0
          0 0 0 0 0 0
          0 0 0 0 0 0
          0 0 0 0 0 0
          0 0 0 0 0 0
          0 0 0 0 0 0
          0 0 0 0
        </DataArray>
      </CellData>
      <Points>
        <DataArray type="Float32" Name="Points" NumberOfComponents="3" format="ascii" RangeMin="0" RangeMax="1.4142135623730951">
          1 0 0 0.800000011920929 0 0
          1 0.20000000298023224 0 0.8223291039466858 0.28333330154418945 0
          0.6000000238418579 0 0 1 0.4000000059604645 0
          0.6535897850990295 0.20000000298023224 0 0.8267949223518372 0.5 0
          0.6535897850990295 0.4000000059604645 0 0.4000000059604645 0 0
          1 0.6000000238418579 0 0.466100811958313 0.2836605906486511 0
          0.6535897850990295 0.6000000238418579 0 0.48038479685783386 0.5 0
          0.30186039209365845 0.20196330547332764 0 0.8223291039466858 0.7166666984558105 0
          0.20000000298023224 0 0 1 0.800000011920929 0
          0.30717968940734863 0.4000000059604645 0 0.6535897850990295 0.800000011920929 0
          0.15644900500774384 0.34039270877838135 0 0.4859890937805176 0.7571429014205933 0
          0.30717968940734863 0.6000000238418579 0 0.17320510745048523 0.5 0
          0 0 0 1 1 0
          0.800000011920929 1 0 0 0.20000000298023224 0
          0.31155261397361755 0.8147618770599365 0 0 0.4000000059604645 0
          0.6000000238418579 1 0 0.16459409892559052 0.7166666984558105 0
          0 0.6000000238418579 0 0.4000000059604645 1 0
          0.20000000298023224 1 0 0 0.800000011920929 0
          0 1 0
          <InformationKey name="L2_NORM_RANGE" location="vtkDataArray" length="2">
            <Value index="0">
              0
            </Value>
            <Value index="1">
              1.4142135624
            </Value>
          </InformationKey>
        </DataArray>
      </Points>
      <Cells>
        <DataArray type="Int64" Name="connectivity" format="ascii" RangeMin="0" RangeMax="36">
          24 16 27 10 17 15
          35 32 31 15 17 26
          10 15 7 31 32 23
          7 15 12 10 7 5
          23 32 29 12 15 19
          5 7 3 19 15 26
          12 19 21 3 7 8
          21 30 33 12 21 13
          8 7 12 13 21 22
          12 13 8 22 21 28
          13 22 18 8 13 11
          22 28 31 31 28 34
          22 31 23 22 23 18
          18 23 20 20 23 29
          20 29 27 20 27 14
          18 20 14 14 27 16
          18 14 11 11 13 18
          8 11 6 6 11 9
          8 6 3 3 6 1
          1 0 2 30 21 19
          9 4 6 25 26 17
          2 5 3 2 3 1
          34 36 35 16 9 14
          33 34 28 28 21 33
          4 1 6 26 30 19
          35 31 34 11 14 9
        </DataArray>
        <DataArray type="Int64" Name="offsets" format="ascii" RangeMin="3" RangeMax="156">
          3 6 9 12 15 18
          21 24 27 30 33 36
          39 42 45 48 51 54
          57 60 63 66 69 72
          75 78 81 84 87 90
          93 96 99 102 105 108
          111 114 117 120 123 126
          129 132 135 138 141 144
          147 150 153 156
        </DataArray>
        <DataArray type="UInt8" Name="types" format="ascii" RangeMin="5" RangeMax="5">
          5 5 5 5 5 5
          5 5 5 5 5 5
          5 5 5 5 5 5
          5 5 5 5 5 5
          5 5 5 5 5 5
          5 5 5 5 5 5
          5 5 5 5 5 5
          5 5 5 5 5 5
          5 5 5 5
        </DataArray>
      </Cells>
    </Piece>
  </UnstructuredGrid>
</VTKFile>
