<?xml version="1.0"?>
<VTKFile type="UnstructuredGrid" version="0.1" byte_order="LittleEndian" header_type="UInt32" compressor="vtkZLibDataCompressor">
  <UnstructuredGrid>
    <Piece NumberOfPoints="82" NumberOfCells="0">
      <PointData>
        <DataArray type="Float64" Name="nsi_BC" NumberOfComponents="3" format="ascii" RangeMin="0" RangeMax="0">
          0 0 0 0 0 0
          0 0 0 0 0 0
          0 0 0 0 0 0
          0 0 0 0 0 0
          0 0 0 0 0 0
          0 0 0 0 0 0
          0 0 0 0 0 0
          0 0 0 0 0 0
          0 0 0 0 0 0
          0 0 0 0 0 0
          0 0 0 0 0 0
          0 0 0 0 0 0
          0 0 0 0 0 0
          0 0 0 0 0 0
          0 0 0 0 0 0
          0 0 0 0 0 0
          0 0 0 0 0 0
          0 0 0 0 0 0
          0 0 0 0 0 0
          0 0 0 0 0 0
          0 0 0 0 0 0
          0 0 0 0 0 0
          0 0 0 0 0 0
          0 0 0 0 0 0
          0 0 0 0 0 0
          0 0 0 0 0 0
          0 0 0 0 0 0
          0 0 0 0 0 0
          0 0 0 0 0 0
          0 0 0 0 0 0
          0 0 0 0 0 0
          0 0 0 0 0 0
          0 0 0 0 0 0
          0 0 0 0 0 0
          0 0 0 0 0 0
          0 0 0 0 0 0
          0 0 0 0 0 0
          0 0 0 0 0 0
          0 0 0 0 0 0
          0 0 0 0 0 0
          0 0 0 0 0 0
          <InformationKey name="L2_NORM_RANGE" location="vtkDataArray" length="2">
            <Value index="0">
              0
            </Value>
            <Value index="1">
              0
            </Value>
          </InformationKey>
        </DataArray>
        <DataArray type="Float64" Name="nsi_FIXNO" NumberOfComponents="3" format="ascii" RangeMin="1" RangeMax="1.4142135623730951">
          -1 -1 0 -1 -1 0
          1 0 0 -1 -1 0
          -1 -1 0 -1 -1 0
          -1 -1 0 -1 -1 0
          1 0 0 -1 -1 0
          1 0 0 -1 -1 0
          -1 -1 0 -1 -1 0
          -1 -1 0 1 0 0
          -1 -1 0 1 0 0
          -1 -1 0 -1 -1 0
          -1 -1 0 -1 -1 0
          -1 -1 0 -1 -1 0
          -1 -1 0 1 0 0
          1 0 0 -1 -1 0
          -1 -1 0 -1 -1 0
          -1 -1 0 -1 -1 0
          -1 -1 0 -1 -1 0
          -1 -1 0 -1 -1 0
          -1 -1 0 -1 -1 0
          -1 -1 0 -1 -1 0
          1 0 0 1 0 0
          -1 -1 0 -1 -1 0
          1 0 0 1 0 0
          -1 -1 0 -1 -1 0
          -1 -1 0 -1 -1 0
          1 0 0 -1 -1 0
          -1 -1 0 -1 -1 0
          1 0 0 1 0 0
          -1 -1 0 1 0 0
          -1 -1 0 -1 -1 0
          -1 -1 0 -1 -1 0
          -1 -1 0 1 0 0
          -1 -1 0 1 0 0
          -1 -1 0 -1 -1 0
          -1 -1 0 1 0 0
          -1 -1 0 -1 -1 0
          1 0 0 -1 -1 0
          -1 -1 0 -1 -1 0
          1 0 0 -1 -1 0
          -1 -1 0 -1 -1 0
          -1 -1 0 -1 -1 0
          <InformationKey name="L2_NORM_RANGE" location="vtkDataArray" length="2">
            <Value index="0">
              1
            </Value>
            <Value index="1">
              1.4142135624
            </Value>
          </InformationKey>
        </DataArray>
        <DataArray type="Float64" Name="Velocity" NumberOfComponents="3" format="ascii" RangeMin="0.24416780624183126" RangeMax="16.652252107184363">
          0.8251648750256709 0.0332148232280969 0 0.7846954347292227 -0.01774432725190672 0
          0.9817537064183391 -7.542220896181508e-16 0 0.8762505036378263 -0.030081353439403043 0
          1.1548977542388572 0.04217973995486425 0 0.8499912031040585 0.03178719668698067 0
          0.6651537829136702 0.012446814604473173 0 0.6675052629835376 0.05426251077263782 0
          1.3026021854191099 2.181980742226769e-15 0 0.9399138658407757 0.2687868222913978 0
          0.8303357842489811 1.9759880104242083e-15 0 0.7886001712039615 -0.07135653437193215 0
          0.9746972980156211 0.22324021798931243 0 0.9396512850725403 -0.12304642741016912 0
          1.0159237877597194 0.0052768969688540435 0 1.3520667385148502 -9.910925837269161e-17 0
          1.1344106332624173 0.205754427168466 0 0.9265935360967693 -1.6715762240871169e-15 0
          1.1082370422760637 -0.159873006733077 0 1.0807536674792664 -0.08670196311639748 0
          2.15829229201513 0.39748238929681784 0 1.0570041077001449 -0.1719903939394046 0
          1.421529641005888 0.12421918052392694 0 3.115451925412348 0.2936220660833477 0
          1.7634802167296122 0.6227643707172941 0 2.2130034019898677 -3.4438583135037484e-15 0
          1.115959384839539 -4.1818890034292545e-17 0 2.3158895698493143 -0.3188526120739606 0
          0.8402845381353355 0.06101382930966298 0 1.141015277014278 -0.14414468042537218 0
          1.3980158559626126 -0.2431283946614928 0 1.5233376575497362 0.4919074328281276 0
          1.6984611377018943 0.6455058378516512 0 1.3976341605364502 -0.18047296593296952 0
          2.5650117181017995 1.3293936711181469 0 1.7461422228822934 -0.15993893226458045 0
          2.378518199906339 -0.8355230988637926 0 2.7447984340663183 1.0499757880749574 0
          2.324335520200775 -0.3537406697781712 0 0.8021836905872954 0.49388557106876985 0
          1.2369517618819388 1.5847979398859668e-15 0 4.653722770540974e-16 -0.30251015897633615 0
          1.647323594450728 0.01678927142456341 0 0.9363060152604546 -0.8679530218240654 0
          14.421270872961513 8.32613035268473 0 1.5823143372169068 8.110565424896624e-16 0
          1.5916469977758163 -0.18915806265744564 0 3.126474684091645 -1.0274759709169627 0
          3.39947038051059 0.6518360591030767 0 1.4655900347333202 -0.15640143653824304 0
          1.37238344178983 -0.7923464950396474 0 3.1850114098220716 -0.44161280264283287 0
          0.3456110995590467 -0.22077957180221272 0 2.0781898564832657 -0.4659816286723589 0
          0.8313151029774503 1.923927592982211e-15 0 0.8380623728799488 2.3525002641874865e-15 0
          0.9361232423916499 0.014615426994926614 0 0.9758319582936783 -2.209868900784731e-15 0
          0.9467389217751625 0.030040860314513494 0 0.8842606259914806 0.03014029159412677 0
          0.7891823397345814 -0.029796540296175067 0 0.7935469053063589 -0.0320661625225713 0
          0.9147053885516115 -0.007045540396058172 0 1.2915130912098018 0.745655944218709 0
          -0.22626345683805998 -0.09177562696402472 0 1.938241555749878e-15 1.3439282473159737 0
          2.4220366154016735 0.8902015301444304 0 2.1828808006000404 -1.0799384083816617 0
          2.4131102037609464 -0.7691890245842021 0 12.971634125069926 -7.489181609865064 0
          1.9972258610801508 0.9179531897184273 0 1.0686124117699158 -0.4360832614046018 0
          -2.981992467123993 1.9639350508907426e-16 0 1.258817099034496 -0.05472877812101138 0
          2.3819224440737825 0.05767843837345254 0 2.4213897857399633 -0.005147949301674227 0
          1.9143448780930021 -2.1658424251204777e-15 0 2.4962340088959416 0.03520526071874588 0
          -4.277519626433211 -0.5342618782987282 0 1.9665206586056991 -0.7380578067923822 0
          1.9850475598157187 -0.3739966990544444 0 -0.426178673631658 0.03418445183104759 0
          <InformationKey name="L2_NORM_RANGE" location="vtkDataArray" length="2">
            <Value index="0">
              0.24416780624
            </Value>
            <Value index="1">
              16.652252107
            </Value>
          </InformationKey>
        </DataArray>
        <DataArray type="Float64" Name="Pressure" format="ascii" RangeMin="52656.62947704041" RangeMax="199703.67913167508">
          76233.47122505718 74962.92129851853 82101.34256981568 80885.74591375176 86974.76046438482 70487.87297169151
          77619.8596536864 83613.65209740601 93488.29142603629 91168.4731842843 72406.99419021475 79902.02867140829
          99600.69976450736 86556.54363612173 92462.44379641658 108808.48076800261 101661.26482548533 81796.4008571544
          90365.46547067663 97463.12081956184 114154.49483409117 97039.26186086611 105831.35069393653 118447.73325635576
          115957.17507130261 130192.22818297542 92350.16713257397 137224.1954010092 108009.63363550925 100848.74557764003
          108162.20606355039 141152.0201244923 115859.10364111613 108006.70198238551 135633.40126919447 115578.4938919589
          117544.21747797028 129602.54833284325 119988.83805728942 124899.51626955988 105986.95402126102 120127.57439166802
          153990.09453923497 126278.72722336976 136361.8956246508 153936.53717719644 115290.77591469107 146027.78644615161
          151170.3843750513 157852.68278795003 164689.89602611083 165366.3954933853 169223.41304153096 171169.15418576854
          71925.69195992619 52656.62947704041 68211.05438034661 62635.84146002045 59887.28660709673 60368.29692181526
          66504.75209012257 70764.53888131633 64098.65800441037 160470.31437379777 185168.99099763538 173610.59531244
          175245.36592817924 175407.28312855063 132167.89738107592 135998.7741445938 144581.65004298935 177182.60683141786
          174484.22734056614 141959.37420166156 123875.50081446537 138135.6700791702 122220.65705654283 132346.6683396067
          199703.67913167508 191272.0125476736 183030.8458778634 187412.49922207496
        </DataArray>
      </PointData>
      <CellData>
        <DataArray type="UInt8" Name="vtkGhostType" format="ascii" RangeMin="0" RangeMax="1">
          1 1 1 1 1 1
          0 0 0 0 0 0
          0 0 0 0 0 0
          0 0 0 0 0 0
          0 0 0 0 0 0
          0 0
        </DataArray>
      </CellData>
      <Points>
        <DataArray type="Float32" Name="Points" NumberOfComponents="3" format="ascii" RangeMin="2.6204938888549805" RangeMax="14.14161310867357">
          8.954882621765137 1.125633955001831 0 9.248306274414062 3.769001007080078 0
          8.412951469421387 0 0 8.412951469421387 2.2512669563293457 0
          7.871018886566162 1.125633955001831 0 9.787784576416016 6.643366813659668 0
          8.799636840820312 5.206761837005615 0 7.964282035827637 3.6890289783477783 0
          7.329086780548096 0 0 7.283721923828125 2.2820630073547363 0
          9.491908073425293 8 0 8.50376033782959 6.563395023345947 0
          6.741789817810059 1.1564290523529053 0 7.515613079071045 5.126791000366211 0
          6.835052967071533 3.7198240756988525 0 6.1931471824646 0 0
          6.154493808746338 2.3128581047058105 0 8.407225608825684 8 0
          7.4190778732299805 6.563395023345947 0 6.4895339012146 4.672304153442383 0
          5.605851173400879 1.1564290523529053 0 6.619455814361572 5.481435775756836 0
          5.808973789215088 3.2653369903564453 0 5.441469192504883 1.9511979818344116 0
          5.364596843719482 2.658724069595337 0 5.057207107543945 0 0
          7.322544097900391 8 0 4.892826080322266 0.7947694063186646 0
          5.4634552001953125 4.2178168296813965 0 6.522921085357666 6.918041229248047 0
          5.593377113342285 5.026949882507324 0 4.728445053100586 1.5895390510559082 0
          5.019076824188232 3.611203908920288 0 5.723298072814941 5.8360819816589355 0
          4.651572227478027 2.297065019607544 0 4.981727123260498 4.1089091300964355 0
          5.019076824188232 4.6066131591796875 0 4.574699878692627 3.0045900344848633 0
          5.148999214172363 5.415746212005615 0 4.537350177764893 3.5022950172424316 0
          6.185208797454834 8 0 4.5 4 0
          4.054769992828369 2.0480599403381348 0 4.537350177764893 4.497704982757568 0
          4.25 3.5669870376586914 0 3.838850975036621 0 0
          5.385585784912109 6.918041229248047 0 4.162350177764893 3.2857890129089355 0
          3.977897882461548 2.755584955215454 0 3.674468994140625 0.7947694063186646 0
          3.75 3.5669870376586914 0 3.5655479431152344 3.0367839336395264 0
          3.3810958862304688 2.5065810680389404 0 3.0007948875427246 1.253290057182312 0
          9.496814727783203 0 0 11.661270141601562 8 0
          10.083660125732422 5.286734104156494 0 10.576589584350586 8 0
          10.872469902038574 6.643366813659668 0 10.975410461425781 2.7158799171447754 0
          10.236109733581543 1.3579399585723877 0 9.69417953491211 2.4835739135742188 0
          10.529540061950684 4.001307010650635 0 3.75 4.433012962341309 0
          2.8785550594329834 3.8529679775238037 0 3.5 4 0
          3.314276933670044 4.1429901123046875 0 3.314276933670044 3.7099781036376953 0
          4.574699878692627 4.995409965515137 0 4.25 4.433012962341309 0
          4.162350177764893 4.7142109870910645 0 3.129826068878174 3.179774045944214 0
          2.6204938888549805 0 0 4.232917785644531 6.667374134063721 0
          4.978107929229736 6.251728057861328 0 4.403809070587158 5.83139181137085 0
          5.0478739738464355 8 0 4.6403961181640625 7.333686828613281 0
          1.7623389959335327 2.8783669471740723 0 2.3204469680786133 3.3656671047210693 0
          2.5717179775238037 2.692473888397217 0 2.1914169788360596 1.439182996749878 0
          <InformationKey name="L2_NORM_RANGE" location="vtkDataArray" length="2">
            <Value index="0">
              2.6204938889
            </Value>
            <Value index="1">
              14.141613109
            </Value>
          </InformationKey>
        </DataArray>
      </Points>
      <Cells>
        <DataArray type="Int64" Name="connectivity" format="ascii" RangeMin="1e+299" RangeMax="-1e+299">
        </DataArray>
        <DataArray type="Int64" Name="offsets" format="ascii" RangeMin="1e+299" RangeMax="-1e+299">
        </DataArray>
        <DataArray type="UInt8" Name="types" format="ascii" RangeMin="1e+299" RangeMax="-1e+299">
        </DataArray>
      </Cells>
    </Piece>
  </UnstructuredGrid>
</VTKFile>
