<?xml version="1.0"?>
<VTKFile type="UnstructuredGrid" version="0.1" byte_order="LittleEndian" header_type="UInt32" compressor="vtkZLibDataCompressor">
  <UnstructuredGrid>
    <Piece NumberOfPoints="33" NumberOfCells="20">
      <PointData>
        <DataArray type="Float64" Name="sld_BC" NumberOfComponents="3" format="ascii" RangeMin="0" RangeMax="0">
          0 0 0 0 0 0
          0 0 0 0 0 0
          0 0 0 0 0 0
          0 0 0 0 0 0
          0 0 0 0 0 0
          0 0 0 0 0 0
          0 0 0 0 0 0
          0 0 0 0 0 0
          0 0 0 0 0 0
          0 0 0 0 0 0
          0 0 0 0 0 0
          0 0 0 0 0 0
          0 0 0 0 0 0
          0 0 0 0 0 0
          0 0 0 0 0 0
          0 0 0 0 0 0
          0 0 0
          <InformationKey name="L2_NORM_RANGE" location="vtkDataArray" length="2">
            <Value index="0">
              0
            </Value>
            <Value index="1">
              0
            </Value>
          </InformationKey>
        </DataArray>
        <DataArray type="Float64" Name="sld_FIXNO" NumberOfComponents="3" format="ascii" RangeMin="1.4142135623730951" RangeMax="1.4142135623730951">
          -1 -1 0 -1 -1 0
          -1 -1 0 -1 -1 0
          -1 -1 0 -1 -1 0
          -1 -1 0 -1 -1 0
          -1 -1 0 -1 -1 0
          -1 -1 0 -1 -1 0
          -1 -1 0 -1 -1 0
          -1 -1 0 -1 -1 0
          -1 -1 0 -1 -1 0
          -1 -1 0 -1 -1 0
          -1 -1 0 -1 -1 0
          -1 -1 0 -1 -1 0
          -1 -1 0 -1 -1 0
          1 1 0 -1 -1 0
          -1 -1 0 -1 -1 0
          1 1 0 -1 -1 0
          1 1 0
          <InformationKey name="L2_NORM_RANGE" location="vtkDataArray" length="2">
            <Value index="0">
              1.4142135624
            </Value>
            <Value index="1">
              1.4142135624
            </Value>
          </InformationKey>
        </DataArray>
        <DataArray type="Float64" Name="Disp" NumberOfComponents="3" format="ascii" RangeMin="0" RangeMax="0.026365176611981945">
          0.026126757883543676 0.003537663109411093 0 0.022576693873659046 0.0035237727714102288 0
          0.019034545725121067 0.0034732448171922114 0 0.026120156020025445 9.867591800557553e-7 0
          0.015551696936345573 0.003365329671372561 0 0.022576462569751574 -0.000017855835384886914 0
          0.012196820244959881 0.003183944741856918 0 0.01901468726091803 -0.000011064276149262177 0
          0.026120850019092232 -0.0035349615412112686 0 0.009054977612509913 0.0029159191692494928 0
          0.015529539772886788 -0.00003756172654081143 0 0.022570007507762453 -0.003521748735892153 0
          0.012143997788267916 -0.00001500380078051219 0 0.006219207370696666 0.002551323988048205 0
          0.01902720168985299 -0.003472666543325083 0 0.00897070008519408 -0.00001901338845927095 0
          0.015543503282252005 -0.0033668295730886408 0 0.003793017542754194 0.00208034941150316 0
          0.00610124266276397 -0.00001229003441072086 0 0.0121893994252325 -0.0031868798809397796 0
          0.0018847887275482784 0.0014972023306008152 0 0.009047236539969363 -0.002920046482726244 0
          0.0036764071942511117 0.0000030026693916211764 0 0.0006403760154115842 0.0007843423729577896 0
          0.006211480706915247 -0.0025554802946511548 0 0.0017496426605321657 -0.000006421674777278241 0
          0 0 0 0.0037873440971080297 -0.002084055279809253 0
          0.00043692588417860214 -0.0000023515720181752634 0 0.0018766458668737053 -0.0015005658725011255 0
          0 0 0 0.0006335606541213048 -0.0007859207070851925 0
          0 0 0
          <InformationKey name="L2_NORM_RANGE" location="vtkDataArray" length="2">
            <Value index="0">
              0
            </Value>
            <Value index="1">
              0.026365176612
            </Value>
          </InformationKey>
        </DataArray>
        <DataArray type="Float64" Name="Sld_traction" NumberOfComponents="3" format="ascii" RangeMin="0" RangeMax="2061.073709899369">
          17.819210220416924 3.9319600245083794 0 -7.179237418094575 -44.43439692737928 0
          -61.354328579422535 -74.90170937169874 0 26.5287020702184 -4.838749358679916 0
          -137.34555703790903 -99.25461371070938 0 0 0 0
          -231.2735938025033 -118.81330571144149 0 0 0 0
          3.005842101913571 -7.65185397513824 0 -337.5799995214856 -135.7656073516274 0
          0 0 0 -40.205003131190075 46.87784812432743 0
          0 0 0 -452.89011099697274 -149.84336536943954 0
          -95.94678186877557 76.78529112010519 0 0 0 0
          -172.94343887403988 99.79375636198168 0 -580.3683431498638 -159.657998321278 0
          0 0 0 -266.282550410839 119.12962951623928 0
          -713.2397937412848 -151.45623574588808 0 -373.66929286158773 136.29011831284052 0
          0 0 0 -873.5107884107063 -258.4453663029664 0
          -490.2075774578799 149.92526731473114 0 0 0 0
          -1162.498538800065 -1696.3800400447985 0 -616.4014651969152 160.29376408952382 0
          0 0 0 -753.0955383900633 152.00649781369196 0
          -774.5765659563959 9.918272275142348 0 -907.1956831850289 254.56444716706665 0
          -1166.9617035669428 1698.889407832802 0
          <InformationKey name="L2_NORM_RANGE" location="vtkDataArray" length="2">
            <Value index="0">
              0
            </Value>
            <Value index="1">
              2061.0737099
            </Value>
          </InformationKey>
        </DataArray>
        <DataArray type="Float64" Name="Fld_traction" NumberOfComponents="3" format="ascii" RangeMin="0" RangeMax="38.684199974772206">
          24.595935538429448 -0.44643093372156356 0 38.22817729571004 5.922312752289049 0
          37.53779149113464 3.423973808678635 0 14.882250155945037 -3.753115327866385 0
          36.4860209146186 2.0792836279819755 0 0 0 0
          35.99250052023913 1.2779469470438711 0 0 0 0
          12.197749838476913 -1.5529141911275985 0 35.541962725589315 0.7148870398625595 0
          0 0 0 9.647712283152336 -0.8077048851740423 0
          0 0 0 35.04818197235716 0.3518778024961827 0
          6.031199923006815 0.5766214855533476 0 0 0 0
          3.914994512415963 0.8545008607931491 0 34.637630462891465 0.14847040092324137 0
          0 0 0 2.49357447169943 0.9088408412612347 0
          34.415885800628914 0.038308159466914606 0 1.5858403973587984 0.8303192557375416 0
          0 0 0 34.243360129798894 -0.0004122538829093835 0
          0.8948804545507618 0.6741609501219992 0 0 0 0
          17.36352499735259 -16.820911295179382 0 0.4695294775448577 0.4547447981819413 0
          0 0 0 0.2904851166587181 0.2430371090416656 0
          0 0 0 0.3195666225396778 0.062349164230454376 0
          0.209390340535771 0.2126350059599649 0
          <InformationKey name="L2_NORM_RANGE" location="vtkDataArray" length="2">
            <Value index="0">
              0
            </Value>
            <Value index="1">
              38.684199975
            </Value>
          </InformationKey>
        </DataArray>
        <DataArray type="Float64" Name="Velocity" NumberOfComponents="3" format="ascii" RangeMin="0" RangeMax="0.1355675659274946">
          -0.13494601848514914 -0.012966766231847629 0 -0.12319462365530429 -0.013333195536374118 0
          -0.11102912309764931 -0.014133776877316043 0 -0.1349192337990573 -0.0010286664656302688 0
          -0.09734455848754932 -0.015458027403094614 0 -0.12323828512091424 -0.0010260842859922677 0
          -0.08171560564550143 -0.016758604855093853 0 -0.11116986618134912 -0.0009554703030728385 0
          -0.13486295080982982 0.010901139030296209 0 -0.0646088229533789 -0.01737786510690817 0
          -0.09762113049851674 -0.0007710244607790135 0 -0.12307927645013199 0.01114157822297557 0
          -0.0818495501576355 -0.0008363319496768373 0 -0.04715233895442923 -0.016894421890433494 0
          -0.11090430160308729 0.012114631316289367 0 -0.06446378813454585 -0.0007760586684564036 0
          -0.0972823322704546 0.013581198391205461 0 -0.030587728777016356 -0.01509566103089617 0
          -0.04664288851932081 -0.0007394181417912655 0 -0.0816636046834961 0.014960122592954561 0
          -0.01614357307481283 -0.011754878871905924 0 -0.06453597407635936 0.015657786102370213 0
          -0.029919046703842114 -0.0007177615077931057 0 -0.005910570227951601 -0.00653635616237506 0
          -0.047031559413157946 0.015314483029327586 0 -0.015172860524773837 -0.0004887919586140974 0
          0 0 0 -0.030432225151573476 0.013748887036012895 0
          -0.004107631170254569 -0.0002740405178167746 0 -0.015948705087552452 0.010759970890435101 0
          0 0 0 -0.00556173193812295 0.00598765242093467 0
          0 0 0
          <InformationKey name="L2_NORM_RANGE" location="vtkDataArray" length="2">
            <Value index="0">
              0
            </Value>
            <Value index="1">
              0.13556756593
            </Value>
          </InformationKey>
        </DataArray>
      </PointData>
      <CellData>
        <DataArray type="UInt8" Name="vtkGhostType" format="ascii" RangeMin="0" RangeMax="0">
          0 0 0 0 0 0
          0 0 0 0 0 0
          0 0 0 0 0 0
          0 0
        </DataArray>
        <DataArray type="Float64" Name="Stress" NumberOfComponents="6" format="ascii" RangeMin="46.113455368762175" RangeMax="1943.8565294332482">
          0.5272564890443983 -27.918131033713568 0 36.69810248808487 0 0
          -32.49128830854554 17.55293499023993 0 34.787984289787566 0 0
          -31.47727788152336 98.22018991575969 0 75.4056536775665 0 0
          -3.2517268785105724 -108.41928925307897 0 77.13713126866938 0 0
          -378.7742136123409 -1893.85676083866 0 220.033796377564 0 0
          354.5074073055532 1871.0692920882534 0 223.6595429866135 0 0
          -5.334965579554286 -235.10603666734335 0 109.44326482793409 0 0
          -31.991498222870348 223.81282515202727 0 108.3493094482372 0 0
          -95.97672696518157 1522.292131102648 0 207.66986091209952 0 0
          54.40757950537028 -1549.363463465864 0 207.96689199667932 0 0
          -30.378849920086523 384.0474335159575 0 134.25019586021511 0 0
          -7.90737176700582 -399.4035406004907 0 134.2795527587058 0 0
          -18.59700905067203 1272.0979167776024 0 196.1048523061366 0 0
          -20.254832742481483 -1293.260368532636 0 197.3068876967164 0 0
          -9.430864176228326 -591.9225778634204 0 154.30780993951575 0 0
          -29.1000554179802 573.6639543671216 0 153.84360512739994 0 0
          -2.3104017077018852 -1042.0090505031321 0 184.45409261765036 0 0
          -35.177940808891975 1021.8769361090563 0 184.7756979110789 0 0
          -28.164544581875546 784.7817654879342 0 170.23153588508407 0 0
          -12.585148608441912 -808.3924518645024 0 170.79548606567417 0 0
          <InformationKey name="L2_NORM_RANGE" location="vtkDataArray" length="2">
            <Value index="0">
              46.113455369
            </Value>
            <Value index="1">
              1943.8565294
            </Value>
          </InformationKey>
        </DataArray>
        <DataArray type="Float64" Name="Strain" NumberOfComponents="6" format="ascii" RangeMin="0.0004972221189437883" RangeMax="0.008609949101532555">
          0.00005683937254089347 -0.0001280556463570333 0 0.00047707533234510324 0 0
          -0.00018206358503485007 0.00014322386640725548 0 0.0004522437957672383 0 0
          -0.00033475098469666273 0.0005082825559856772 0 0.0009802734978083642 0 0
          0.00019662225674628092 -0.00048696689868841364 0 0.0010027827064927018 0 0
          0.001969598011699236 -0.007878438545271838 0 0.0028604393529083312 0 0
          -0.002035576416331828 0.007822075834755724 0 0.002907574058825974 0 0
          0.00043418267811434763 -0.0010593292839562816 0 0.0014227624427631431 0 0
          -0.0005819963259605133 0.001080731775976321 0 0.0014085410228270832 0 0
          -0.0034051637633417406 0.007113583814099154 0 0.002699708191857294 0 0
          0.003268813240507871 -0.007155698538805155 0 0.00270356959595683 0 0
          -0.0008871162624925107 0.001806654579841775 0 0.0017452525461827961 0 0
          0.0007428583626310804 -0.0018018667347865715 0 0.001745634185863175 0 0
          -0.002565207328896883 0.005824309688986903 0 0.0025493630799797756 0 0
          0.00242969822966035 -0.005844837752975655 0 0.002564989540057313 0 0
          0.0011113385948318313 -0.0026748575441349178 0 0.0020060015292137044 0 0
          -0.0012510499631676972 0.0026669161004354647 0 0.001999966866656199 0 0
          0.0020214053207110645 -0.0047366358964592336 0 0.0023979032040294546 0 0
          -0.002152719656093118 0.004718137043873544 0 0.0024020840728440265 0 0
          -0.0016584731205490054 0.003625677894904758 0 0.002213009966506092 0 0
          0.0015191028549673689 -0.003653644616197024 0 0.0022203413188537635 0 0
          <InformationKey name="L2_NORM_RANGE" location="vtkDataArray" length="2">
            <Value index="0">
              0.00049722211894
            </Value>
            <Value index="1">
              0.0086099491015
            </Value>
          </InformationKey>
        </DataArray>
        <DataArray type="Float64" Name="Btraction" NumberOfComponents="3" format="ascii" RangeMin="0.14904105194570452" RangeMax="19.085064675500917">
          6.769999998605487 -1.3265073797484959 0 15.706028208534871 1.3689704546418708 0
          18.94149219671117 2.336571640241921 0 3.919728051539788 -0.05777084990517367 0
          0.1322392407688622 0.0687460425476048 0 12.90172128178787 -4.205330887265573 0
          2.4865486088556947 0.35778058658662415 0 18.50595310143831 1.3758143591651524 0
          17.16481148260695 0.009473976396001305 0 0.152512934799599 0.07634656831803 0
          18.11963035871443 0.8393076437564615 0 1.602142246028848 0.4408354255135959 0
          17.263379065880095 0.046694640097539 0 0.19000364855089394 0.17444547680590172 0
          1.019853717264557 0.434790024249694 0 17.883615811457112 0.4982084967266076 0
          0.3411024830239049 0.2822264370759851 0 17.421453108812152 0.125087050854856 0
          17.647536174486618 0.2666912105896856 0 0.6201802129773901 0.3761200514648851 0
          <InformationKey name="L2_NORM_RANGE" location="vtkDataArray" length="2">
            <Value index="0">
              0.14904105195
            </Value>
            <Value index="1">
              19.085064676
            </Value>
          </InformationKey>
        </DataArray>
      </CellData>
      <Points>
        <DataArray type="Float32" Name="Points" NumberOfComponents="3" format="ascii" RangeMin="1.4500000476837158" RangeMax="1.6286497021092299">
          1.4500000476837158 0.5 0 1.4500000476837158 0.44999998807907104 0
          1.4500000476837158 0.4000000059604645 0 1.5 0.5 0
          1.4500000476837158 0.3499999940395355 0 1.5002609491348267 0.45016080141067505 0
          1.4500000476837158 0.30000001192092896 0 1.5001590251922607 0.4000298082828522 0
          1.5499999523162842 0.5 0 1.4500000476837158 0.25 0
          1.5005459785461426 0.35020819306373596 0 1.5499999523162842 0.44999998807907104 0
          1.5002089738845825 0.30000561475753784 0 1.4500000476837158 0.20000000298023224 0
          1.5499999523162842 0.4000000059604645 0 1.5002909898757935 0.24981409311294556 0
          1.5499999523162842 0.3499999940395355 0 1.4500000476837158 0.15000000596046448 0
          1.5001939535140991 0.19956040382385254 0 1.5499999523162842 0.30000001192092896 0
          1.4500000476837158 0.10000000149011612 0 1.5499999523162842 0.25 0
          1.499879002571106 0.15004639327526093 0 1.4500000476837158 0.05000000074505806 0
          1.5499999523162842 0.20000000298023224 0 1.5001660585403442 0.10008130222558975 0
          1.4500000476837158 0 0 1.5499999523162842 0.15000000596046448 0
          1.5000410079956055 0.050020311027765274 0 1.5499999523162842 0.10000000149011612 0
          1.5 0 0 1.5499999523162842 0.05000000074505806 0
          1.5499999523162842 0 0
          <InformationKey name="L2_NORM_RANGE" location="vtkDataArray" length="2">
            <Value index="0">
              1.4500000477
            </Value>
            <Value index="1">
              1.6286497021
            </Value>
          </InformationKey>
        </DataArray>
      </Points>
      <Cells>
        <DataArray type="Int64" Name="connectivity" format="ascii" RangeMin="0" RangeMax="32">
          11 8 3 5 3 0
          1 5 1 2 7 5
          11 5 7 14 32 31
          28 30 26 30 28 23
          16 14 7 10 7 2
          4 10 20 23 28 25
          28 31 29 25 4 6
          12 10 16 10 12 19
          17 20 25 22 25 29
          27 22 21 19 12 15
          12 6 9 15 27 24
          18 22 17 22 18 13
          9 13 18 15 15 18
          24 21
        </DataArray>
        <DataArray type="Int64" Name="offsets" format="ascii" RangeMin="4" RangeMax="80">
          4 8 12 16 20 24
          28 32 36 40 44 48
          52 56 60 64 68 72
          76 80
        </DataArray>
        <DataArray type="UInt8" Name="types" format="ascii" RangeMin="9" RangeMax="9">
          9 9 9 9 9 9
          9 9 9 9 9 9
          9 9 9 9 9 9
          9 9
        </DataArray>
      </Cells>
    </Piece>
  </UnstructuredGrid>
</VTKFile>
