<?xml version="1.0"?>
<VTKFile type="UnstructuredGrid" version="0.1" byte_order="LittleEndian" header_type="UInt32" compressor="vtkZLibDataCompressor">
  <UnstructuredGrid>
    <Piece NumberOfPoints="33" NumberOfCells="20">
      <PointData>
        <DataArray type="Float64" Name="sld_BC" NumberOfComponents="3" format="ascii" RangeMin="0" RangeMax="0">
          0 0 0 0 0 0
          0 0 0 0 0 0
          0 0 0 0 0 0
          0 0 0 0 0 0
          0 0 0 0 0 0
          0 0 0 0 0 0
          0 0 0 0 0 0
          0 0 0 0 0 0
          0 0 0 0 0 0
          0 0 0 0 0 0
          0 0 0 0 0 0
          0 0 0 0 0 0
          0 0 0 0 0 0
          0 0 0 0 0 0
          0 0 0 0 0 0
          0 0 0 0 0 0
          0 0 0
          <InformationKey name="L2_NORM_RANGE" location="vtkDataArray" length="2">
            <Value index="0">
              0
            </Value>
            <Value index="1">
              0
            </Value>
          </InformationKey>
        </DataArray>
        <DataArray type="Float64" Name="sld_FIXNO" NumberOfComponents="3" format="ascii" RangeMin="1.4142135623730951" RangeMax="1.4142135623730951">
          -1 -1 0 -1 -1 0
          -1 -1 0 -1 -1 0
          -1 -1 0 -1 -1 0
          -1 -1 0 -1 -1 0
          -1 -1 0 -1 -1 0
          -1 -1 0 -1 -1 0
          -1 -1 0 -1 -1 0
          -1 -1 0 -1 -1 0
          -1 -1 0 -1 -1 0
          -1 -1 0 -1 -1 0
          -1 -1 0 -1 -1 0
          -1 -1 0 -1 -1 0
          -1 -1 0 -1 -1 0
          1 1 0 -1 -1 0
          -1 -1 0 -1 -1 0
          1 1 0 -1 -1 0
          1 1 0
          <InformationKey name="L2_NORM_RANGE" location="vtkDataArray" length="2">
            <Value index="0">
              1.4142135624
            </Value>
            <Value index="1">
              1.4142135624
            </Value>
          </InformationKey>
        </DataArray>
        <DataArray type="Float64" Name="Disp" NumberOfComponents="3" format="ascii" RangeMin="0" RangeMax="0.04346049360854351">
          0.04306653185054504 0.005838521993128138 0 0.037197447805332885 0.005818446093752049 0
          0.03133390577717648 0.005740713713935355 0 0.04306003306682165 -0.00000966287536072457 0
          0.025561225277830658 0.005566686887139483 0 0.03720272268591857 -0.00004044553301021676 0
          0.019998230756555845 0.005265409803217182 0 0.0313072910807725 -0.00002832715062588186 0
          0.04306211742062143 -0.005856828968259235 0 0.014795584805412083 0.004813288808562202 0
          0.02553022361893661 -0.00007043688223272297 0 0.03719271668621071 -0.0058372824853693845 0
          0.019914864206064642 -0.000030941512731119864 0 0.01011709610621552 0.004196664240675255 0
          0.03132936080652972 -0.005760100010350978 0 0.014658596389999331 -0.00003561886915255284 0
          0.025555966736490143 -0.005586072070195071 0 0.006137040286504499 0.0034059806163396953 0
          0.009924041773603256 -0.000022990884061337288 0 0.0199943399826868 -0.005283042416689402 0
          0.0030277299124942363 0.002438697250024759 0 0.01479084099706506 -0.004829068758056756 0
          0.005947195106343362 0.0000032202959663811363 0 0.0010157109519466955 0.0012708148802778978 0
          0.01011199222450009 -0.004209414124264532 0 0.002809451882671248 -0.000011186791925786921 0
          0 0 0 0.006135126916144345 -0.003415631196875014 0
          0.0006897266991535485 -0.0000033274553745913984 0 0.003021858890528032 -0.002445888259437008 0
          0 0 0 0.0010116560707500758 -0.0012740743558500214 0
          0 0 0
          <InformationKey name="L2_NORM_RANGE" location="vtkDataArray" length="2">
            <Value index="0">
              0
            </Value>
            <Value index="1">
              0.043460493609
            </Value>
          </InformationKey>
        </DataArray>
        <DataArray type="Float64" Name="Sld_traction" NumberOfComponents="3" format="ascii" RangeMin="0" RangeMax="3322.2406552020398">
          18.550562574060233 7.660527664036165 0 -31.523930229524893 -72.91851448960624 0
          -121.8711044985014 -128.27125787973728 0 40.3065838570181 -3.7040240442494112 0
          -252.47688778280383 -172.47729200050486 0 0 0 0
          -415.57177119832033 -205.7344679283679 0 0 0 0
          7.996956418869027 -10.302902136026148 0 -598.043248332046 -229.61821096459752 0
          0 0 0 -54.72541015425843 74.71577575643084 0
          0 0 0 -789.7705307704186 -244.46800007580947 0
          -144.88829202835635 129.3160340680169 0 0 0 0
          -276.0916787610482 172.03983851039666 0 -994.0090252583107 -251.57160355849174 0
          0 0 0 -437.8786585324839 205.58463645452306 0
          -1201.257657539587 -232.26727329841313 0 -622.2796506580851 230.239706115977 0
          0 0 0 -1443.8907225040728 -395.6829107728807 0
          -816.2176182379923 244.52141824681024 0 0 0 0
          -1870.9329565940786 -2732.278878689216 0 -1017.9897628420457 252.3426374496271 0
          0 0 0 -1230.0888500108586 232.60567463691376 0
          -1226.9286017237584 14.967894984442 0 -1468.8068066284563 393.2552751183367 0
          -1876.2841795743861 2741.6857311800254 0
          <InformationKey name="L2_NORM_RANGE" location="vtkDataArray" length="2">
            <Value index="0">
              0
            </Value>
            <Value index="1">
              3322.2406552
            </Value>
          </InformationKey>
        </DataArray>
        <DataArray type="Float64" Name="Fld_traction" NumberOfComponents="3" format="ascii" RangeMin="0" RangeMax="38.621359529611986">
          24.54814936650132 -0.39661231218433557 0 38.1594679688313 5.955200773381927 0
          37.487193401617276 3.458756920196585 0 14.875701099902612 -3.695781121779612 0
          36.44918610951518 2.1126320170707973 0 0 0 0
          35.966903667241375 1.3070820609977252 0 0 0 0
          12.243487613653395 -1.5527403456008178 0 35.52418204730275 0.7379184601398451 0
          0 0 0 9.730076869402541 -0.8491141416648426 0
          0 0 0 35.03354205591621 0.3678912277070328 0
          6.097619452028275 0.542455436421616 0 0 0 0
          3.967898441872123 0.8255350021027155 0 34.62128809704056 0.1581450846310787 0
          0 0 0 2.5342915241958814 0.8854436397579515 0
          34.39771064258126 0.04291682673482747 0 1.616982518012667 0.8137639129865111 0
          0 0 0 34.22114608555897 0.000674302530190378 0
          0.9140192987962519 0.6646422701025654 0 0 0 0
          17.350850544115215 -16.808452638674375 0 0.4797909681741917 0.4523496132516318 0
          0 0 0 0.28753425505697944 0.24477770889991346 0
          0 0 0 0.3076233515411009 0.063715728398298 0
          0.2027754426319249 0.20588484965624795 0
          <InformationKey name="L2_NORM_RANGE" location="vtkDataArray" length="2">
            <Value index="0">
              0
            </Value>
            <Value index="1">
              38.62135953
            </Value>
          </InformationKey>
        </DataArray>
        <DataArray type="Float64" Name="Velocity" NumberOfComponents="3" format="ascii" RangeMin="0" RangeMax="0.06891611050905777">
          -0.06749773270559017 -0.011780959499061664 0 -0.05517747323406623 -0.011613240270018105 0
          -0.042869506541552915 -0.011418463795242459 0 -0.06763941429969145 0.0004456103850413566 0
          -0.030912048293588915 -0.010829836137434344 0 -0.055408338071674335 0.0005810384623767639 0
          -0.019829877871086907 -0.009616846784578584 0 -0.0430412949568626 0.00046145905294973314 0
          -0.0677449572933454 0.012651128369417137 0 -0.010409369093414243 -0.007701894858852974 0
          -0.0310080120895092 0.00042643374142731184 0 -0.05549465289311917 0.012628520141666788 0
          -0.01972617749024093 0.000262586611896461 0 -0.003480633308577329 -0.005261430590645832 0
          -0.04324685988727245 0.012266781901515492 0 -0.010127395177490436 0.00022192598426966532 0
          -0.031261258504826916 0.011461590241763658 0 0.0004366660799931272 -0.0027664891986757707 0
          -0.0031109439117755645 0.00017896056252673757 0 -0.02014587456806024 0.010079710073477218 0
          0.0015846834022439455 -0.000857098641627578 0 -0.010692301265603556 0.008068320206978098 0
          0.0006913738655649551 0.00013900498735425107 0 0.0012014328064713711 0.00005415735632833228 0
          -0.0037499493857494504 0.005579201156477528 0 0.0016685387311625244 0.0001352512365439065 0
          0 0 0 0.00016011233668753594 0.0030555112152100966 0
          0.000966660815727656 0.00006091278957300663 0 0.0013058484610829098 0.0010914962605042618 0
          0 0 0 0.0008143980498590802 0.0000927303877404197 0
          0 0 0
          <InformationKey name="L2_NORM_RANGE" location="vtkDataArray" length="2">
            <Value index="0">
              0
            </Value>
            <Value index="1">
              0.068916110509
            </Value>
          </InformationKey>
        </DataArray>
      </PointData>
      <CellData>
        <DataArray type="UInt8" Name="vtkGhostType" format="ascii" RangeMin="0" RangeMax="0">
          0 0 0 0 0 0
          0 0 0 0 0 0
          0 0 0 0 0 0
          0 0
        </DataArray>
        <DataArray type="Float64" Name="Stress" NumberOfComponents="6" format="ascii" RangeMin="67.69129185949235" RangeMax="3141.7599778317035">
          7.398627853814889 -39.146797037688984 0 54.725675703253906 0 0
          -30.44158815115743 31.799192077914253 0 52.75523296043882 0 0
          -27.980007854662855 158.02547773087193 0 126.31287960006075 0 0
          3.7810777765492585 -168.54238011281672 0 127.65567902133546 0 0
          -604.9861155318032 -3065.2296861155664 0 330.1734842089426 0 0
          584.7880040616576 3037.081307467944 0 331.95652512871584 0 0
          1.3620272474989008 -386.155651916824 0 187.6552842614007 0 0
          -28.52446296832555 366.90720170491545 0 187.0239485722476 0 0
          -130.38331722160268 2502.795860282191 0 317.58457616553477 0 0
          97.52334731280945 -2539.6359926658906 0 316.8427195041892 0 0
          -25.640034937726625 643.8542128711481 0 234.1169640967523 0 0
          -2.5144893576191407 -672.600056051462 0 233.29073068482415 0 0
          -6.0949644540172585 2118.5305757205865 0 304.5179850042874 0 0
          -22.060009429776017 -2146.5304579939507 0 306.0504112795577 0 0
          -5.31967541005119 -1006.6465768053033 0 265.25679520191716 0 0
          -22.997504328641725 974.658262154225 0 265.1023851406635 0 0
          6.4731796889495 -1752.441262876389 0 294.62014580898983 0 0
          -32.92955964657739 1724.3844976466385 0 295.3983856884472 0 0
          -21.125252445790068 1335.3875841568502 0 283.59282090814895 0 0
          -10.891541147766276 -1372.7416109814067 0 284.13460718643364 0 0
          <InformationKey name="L2_NORM_RANGE" location="vtkDataArray" length="2">
            <Value index="0">
              67.691291859
            </Value>
            <Value index="1">
              3141.7599778
            </Value>
          </InformationKey>
        </DataArray>
        <DataArray type="Float64" Name="Strain" NumberOfComponents="6" format="ascii" RangeMin="0.000743094237879235" RangeMax="0.01384987575036527">
          0.00011000001095835127 -0.0001925452508364239 0 0.0007114337841423006 0 0
          -0.0002005176506396991 0.00020404742084926687 0 0.0006858180284857046 0 0
          -0.0004354587173139163 0.0007735769389920599 0 0.0016420674348007894 0 0
          0.00034586154510329176 -0.0007742409311775871 0 0.0016595238272773608 0 0
          0.003224511062255651 -0.012767072146538813 0 0.004292255294716253 0 0
          -0.003261523131081947 0.01267838334105891 0 0.004315434826673304 0 0
          0.0007592007452139268 -0.001759664169354172 0 0.0024395186953982094 0 0
          -0.0008452553498304662 0.0017250504705456002 0 0.0024313113314392183 0 0
          -0.005473696020908565 0.011641968632866094 0 0.0041285994901519504 0 0
          0.00539602141597177 -0.01174551429388978 0 0.0041189553535544605 0 0
          -0.0013721778740653952 0.002979534736692291 0 0.003043520533257779 0 0
          0.0013001291827231844 -0.0030554270007867954 0 0.0030327794989027136 0 0
          -0.0041588667109209235 0.009651199300214002 0 0.003958733805055736 0 0
          0.004085361350182724 -0.009723696565484413 0 0.003978655346634248 0 0
          0.0019387563016546089 -0.004569868557414532 0 0.0034483383376249233 0 0
          -0.0020052222558960588 0.004479540226242575 0 0.003446331006828625 0 0
          0.0034467134301936794 -0.007986230446481023 0 0.0038300618955168677 0 0
          -0.0035123792668028727 0.00791016210560303 0 0.0038401790139498126 0 0
          -0.0027001256877342023 0.006117207750182957 0 0.0036867066718059348 0 0
          0.002627289629191407 -0.0062247358247272564 0 0.0036937498934236364 0 0
          <InformationKey name="L2_NORM_RANGE" location="vtkDataArray" length="2">
            <Value index="0">
              0.00074309423788
            </Value>
            <Value index="1">
              0.01384987575
            </Value>
          </InformationKey>
        </DataArray>
        <DataArray type="Float64" Name="Btraction" NumberOfComponents="3" format="ascii" RangeMin="0.1443068347265264" RangeMax="19.057544398400008">
          6.779797178389002 -1.3121303668451074 0 15.676904333833157 1.3896471152993977 0
          18.91166534261214 2.3534894233946275 0 3.956924080357704 -0.07666467631080665 0
          0.12759969854325642 0.06740014451363649 0 12.892999157418545 -4.201944584036045 0
          2.5163794734750997 0.34199760963108283 0 18.484094877783114 1.3928472343168454 0
          17.154714182035057 0.010897782316254464 0 0.14878940164952006 0.07712335932455286 0
          18.104022444189138 0.8549285195171306 0 1.6255474915170007 0.4277446604651667 0
          17.254749684905455 0.050265477841476544 0 0.19183130580779276 0.17428183053788632 0
          1.037818510552137 0.42480188818611564 0 17.872771428636028 0.5112501302843926 0
          0.34845256674261094 0.2792479708385493 0 17.413707538239187 0.13150907808452786 0
          17.639431025804733 0.2764524219617195 0 0.6327504542022296 0.36960154577226906 0
          <InformationKey name="L2_NORM_RANGE" location="vtkDataArray" length="2">
            <Value index="0">
              0.14430683473
            </Value>
            <Value index="1">
              19.057544398
            </Value>
          </InformationKey>
        </DataArray>
      </CellData>
      <Points>
        <DataArray type="Float32" Name="Points" NumberOfComponents="3" format="ascii" RangeMin="1.4500000476837158" RangeMax="1.6286497021092299">
          1.4500000476837158 0.5 0 1.4500000476837158 0.44999998807907104 0
          1.4500000476837158 0.4000000059604645 0 1.5 0.5 0
          1.4500000476837158 0.3499999940395355 0 1.5002609491348267 0.45016080141067505 0
          1.4500000476837158 0.30000001192092896 0 1.5001590251922607 0.4000298082828522 0
          1.5499999523162842 0.5 0 1.4500000476837158 0.25 0
          1.5005459785461426 0.35020819306373596 0 1.5499999523162842 0.44999998807907104 0
          1.5002089738845825 0.30000561475753784 0 1.4500000476837158 0.20000000298023224 0
          1.5499999523162842 0.4000000059604645 0 1.5002909898757935 0.24981409311294556 0
          1.5499999523162842 0.3499999940395355 0 1.4500000476837158 0.15000000596046448 0
          1.5001939535140991 0.19956040382385254 0 1.5499999523162842 0.30000001192092896 0
          1.4500000476837158 0.10000000149011612 0 1.5499999523162842 0.25 0
          1.499879002571106 0.15004639327526093 0 1.4500000476837158 0.05000000074505806 0
          1.5499999523162842 0.20000000298023224 0 1.5001660585403442 0.10008130222558975 0
          1.4500000476837158 0 0 1.5499999523162842 0.15000000596046448 0
          1.5000410079956055 0.050020311027765274 0 1.5499999523162842 0.10000000149011612 0
          1.5 0 0 1.5499999523162842 0.05000000074505806 0
          1.5499999523162842 0 0
          <InformationKey name="L2_NORM_RANGE" location="vtkDataArray" length="2">
            <Value index="0">
              1.4500000477
            </Value>
            <Value index="1">
              1.6286497021
            </Value>
          </InformationKey>
        </DataArray>
      </Points>
      <Cells>
        <DataArray type="Int64" Name="connectivity" format="ascii" RangeMin="0" RangeMax="32">
          11 8 3 5 3 0
          1 5 1 2 7 5
          11 5 7 14 32 31
          28 30 26 30 28 23
          16 14 7 10 7 2
          4 10 20 23 28 25
          28 31 29 25 4 6
          12 10 16 10 12 19
          17 20 25 22 25 29
          27 22 21 19 12 15
          12 6 9 15 27 24
          18 22 17 22 18 13
          9 13 18 15 15 18
          24 21
        </DataArray>
        <DataArray type="Int64" Name="offsets" format="ascii" RangeMin="4" RangeMax="80">
          4 8 12 16 20 24
          28 32 36 40 44 48
          52 56 60 64 68 72
          76 80
        </DataArray>
        <DataArray type="UInt8" Name="types" format="ascii" RangeMin="9" RangeMax="9">
          9 9 9 9 9 9
          9 9 9 9 9 9
          9 9 9 9 9 9
          9 9
        </DataArray>
      </Cells>
    </Piece>
  </UnstructuredGrid>
</VTKFile>
