<?xml version="1.0"?>
<VTKFile type="UnstructuredGrid" version="0.1" byte_order="LittleEndian" header_type="UInt32" compressor="vtkZLibDataCompressor">
  <UnstructuredGrid>
    <Piece NumberOfPoints="33" NumberOfCells="20">
      <PointData>
        <DataArray type="Float64" Name="sld_BC" NumberOfComponents="3" format="ascii" RangeMin="0" RangeMax="0">
          0 0 0 0 0 0
          0 0 0 0 0 0
          0 0 0 0 0 0
          0 0 0 0 0 0
          0 0 0 0 0 0
          0 0 0 0 0 0
          0 0 0 0 0 0
          0 0 0 0 0 0
          0 0 0 0 0 0
          0 0 0 0 0 0
          0 0 0 0 0 0
          0 0 0 0 0 0
          0 0 0 0 0 0
          0 0 0 0 0 0
          0 0 0 0 0 0
          0 0 0 0 0 0
          0 0 0
          <InformationKey name="L2_NORM_RANGE" location="vtkDataArray" length="2">
            <Value index="0">
              0
            </Value>
            <Value index="1">
              0
            </Value>
          </InformationKey>
        </DataArray>
        <DataArray type="Float64" Name="sld_FIXNO" NumberOfComponents="3" format="ascii" RangeMin="1.4142135623730951" RangeMax="1.4142135623730951">
          -1 -1 0 -1 -1 0
          -1 -1 0 -1 -1 0
          -1 -1 0 -1 -1 0
          -1 -1 0 -1 -1 0
          -1 -1 0 -1 -1 0
          -1 -1 0 -1 -1 0
          -1 -1 0 -1 -1 0
          -1 -1 0 -1 -1 0
          -1 -1 0 -1 -1 0
          -1 -1 0 -1 -1 0
          -1 -1 0 -1 -1 0
          -1 -1 0 -1 -1 0
          -1 -1 0 -1 -1 0
          1 1 0 -1 -1 0
          -1 -1 0 -1 -1 0
          1 1 0 -1 -1 0
          1 1 0
          <InformationKey name="L2_NORM_RANGE" location="vtkDataArray" length="2">
            <Value index="0">
              1.4142135624
            </Value>
            <Value index="1">
              1.4142135624
            </Value>
          </InformationKey>
        </DataArray>
        <DataArray type="Float64" Name="Disp" NumberOfComponents="3" format="ascii" RangeMin="0" RangeMax="0.01062174165319084">
          0.010525730300610964 0.0014249201331757192 0 0.009146926400815965 0.0014188925985891463 0
          0.007774671852176248 0.0014008876652561353 0 0.010519925704080136 0.00005078900633585619 0
          0.006418206407069713 0.0013658487286318747 0 0.009143144152469711 0.00004260267593696578 0
          0.0050960313510695805 0.0013059006236488169 0 0.0077638917937201575 0.000043173733643553976 0
          0.010519470829800199 -0.001322897878242239 0 0.0038376575157300506 0.0012123674137398473 0
          0.006407457879292063 0.000029485424803803753 0 0.009139277347458199 -0.0013187032818759408 0
          0.0050735608726521055 0.00003408161990577019 0 0.002680458839618212 0.0010776919536372707 0
          0.00776527079323202 -0.0013054833741949906 0 0.0038022450352867914 0.000027347464583301457 0
          0.006407543849124257 -0.001277820199193627 0 0.0016690647507730469 0.0008943380646907361 0
          0.0026302738256843016 0.00002414945659072637 0 0.005084780031352073 -0.0012269305780161232 0
          0.000853306138302148 0.0006558878127981986 0 0.003825587186587366 -0.0011440107424056315 0
          0.0016177959249562618 0.000023910667431216563 0 0.0003046861739871824 0.00035060001116937956 0
          0.0026676746818113527 -0.0010210806879816477 0 0.0007920603611671578 0.00001246952555094519 0
          0 0 0 0.0016563751250675183 -0.0008508394474988701 0
          0.0002100640186026595 0.0000055693562826945814 0 0.0008388029834841334 -0.0006269898762049112 0
          0 0 0 0.0002901905099000594 -0.0003358971660778438 0
          0 0 0
          <InformationKey name="L2_NORM_RANGE" location="vtkDataArray" length="2">
            <Value index="0">
              0
            </Value>
            <Value index="1">
              0.010621741653
            </Value>
          </InformationKey>
        </DataArray>
        <DataArray type="Float64" Name="Sld_traction" NumberOfComponents="3" format="ascii" RangeMin="0" RangeMax="942.8662462848934">
          15.010998589802655 0.16744172043456845 0 17.16646461955764 -12.537244654564383 0
          2.1523990631562464 -20.842169331893988 0 10.350217411075317 -1.9276075520867477 0
          -21.029635334186285 -32.66778069595745 0 0 0 0
          -54.30289055531995 -44.98338290189344 0 0 0 0
          0.1185804286235181 -0.8071054166204603 0 -96.79212523542475 -56.6434618223102 0
          0 0 0 -16.49163184682759 15.907408661774774 0
          0 0 0 -147.10891921996327 -67.27863116781468 0
          -33.59409096456798 23.809349671515722 0 0 0 0
          -57.83016866112134 34.52325015951877 0 -206.64148510953288 -77.18774152250127 0
          0 0 0 -91.39153644168707 46.3849421864166 0
          -272.413143664242 -79.20321096262374 0 -134.50804303754657 57.83299236311518 0
          0 0 0 -361.10624864298086 -137.97418305960343 0
          -185.46222762894493 68.12878120437422 0 0 0 0
          -529.5668351434394 -780.0998176512583 0 -244.90983087524683 78.31104947900312 0
          0 0 0 -314.37266603202556 80.90628710730986 0
          -367.8858654677887 -33.1510768125207 0 -391.9726538449326 130.09425862987766 0
          -518.1913521719415 733.4395605812465 0
          <InformationKey name="L2_NORM_RANGE" location="vtkDataArray" length="2">
            <Value index="0">
              0
            </Value>
            <Value index="1">
              942.86624628
            </Value>
          </InformationKey>
        </DataArray>
        <DataArray type="Float64" Name="Fld_traction" NumberOfComponents="3" format="ascii" RangeMin="0" RangeMax="38.69752813598165">
          24.607549363418865 -0.4645237772261853 0 38.243374528443006 5.911259469210274 0
          37.54804121768329 3.4137591619038687 0 14.883482153516965 -3.774611185770378 0
          36.49322113472858 2.0703192296446415 0 0 0 0
          35.997300490089074 1.2705963344291007 0 0 0 0
          12.184469916090038 -1.556050311391291 0 35.54534744737695 0.7093786723755796 0
          0 0 0 9.624013617666622 -0.7984800134361335 0
          0 0 0 35.051294998340786 0.3482053577415469 0
          6.011797303291385 0.5836982259550074 0 0 0 0
          3.8995986544021504 0.8599534482059167 0 34.641437060628 0.1463345450066733 0
          0 0 0 2.4821163271909024 0.9127541582162498 0
          34.42031099913999 0.037340339500744786 0 1.5775845060651514 0.8326058204162565 0
          0 0 0 34.248809249865005 -0.0006257132781609391 0
          0.8903394226265422 0.6749725817044494 0 0 0 0
          17.366601387790514 -16.823932546209196 0 0.46766635746605634 0.45427251438686933 0
          0 0 0 0.29191837528873726 0.24205871895449277 0
          0 0 0 0.322899179235888 0.06188699468381597 0
          0.21106837580901774 0.21433278962078955 0
          <InformationKey name="L2_NORM_RANGE" location="vtkDataArray" length="2">
            <Value index="0">
              0
            </Value>
            <Value index="1">
              38.697528136
            </Value>
          </InformationKey>
        </DataArray>
        <DataArray type="Float64" Name="Velocity" NumberOfComponents="3" format="ascii" RangeMin="0" RangeMax="0.16731302952217628">
          -0.16483655200469766 -0.02668458746578771 0 -0.137053481474115 -0.02653834474226562 0
          -0.10934732248445389 -0.025586078403822574 0 -0.16481134294278066 0.0008734969519071474 0
          -0.08286327273155879 -0.023723166639248727 0 -0.13702037476718418 0.0009374852758952286 0
          -0.05889529174869981 -0.020867489710775566 0 -0.10908003604858574 0.0008983266237631483 0
          -0.16488644132060143 0.02839209954400145 0 -0.03870300229405959 -0.017155275393481256 0
          -0.08249702044883482 0.0010093081140761474 0 -0.137123081797701 0.02808670544938169 0
          -0.05822378895423874 0.0006900260996641895 0 -0.023114766162774785 -0.013044614799539875 0
          -0.10948589767992982 0.027170622163225154 0 -0.03780345297380315 0.0005503186188972712 0
          -0.08308694950001212 0.025187113282433803 0 -0.012143927002354855 -0.00911348478080652 0
          -0.022131330490642052 0.00037507509039016714 0 -0.059158950085781 0.022069689507253604 0
          -0.00502331998936972 -0.005682187619490665 0 -0.038940502234337225 0.018068484928983258 0
          -0.011370002884828392 0.0001933381247793851 0 -0.0012630085698943966 -0.002605017161325386 0
          -0.023323959717746583 0.013696858716623173 0 -0.004390924642217296 0.00011523859752022176 0
          0 0 0 -0.012358689543067783 0.009542904457553784 0
          -0.0004933468884206079 -0.000005657875067999023 0 -0.005257347298708493 0.005913377197942599 0
          0 0 0 -0.0013665834377532965 0.002691540020574292 0
          0 0 0
          <InformationKey name="L2_NORM_RANGE" location="vtkDataArray" length="2">
            <Value index="0">
              0
            </Value>
            <Value index="1">
              0.16731302952
            </Value>
          </InformationKey>
        </DataArray>
      </PointData>
      <CellData>
        <DataArray type="UInt8" Name="vtkGhostType" format="ascii" RangeMin="0" RangeMax="0">
          0 0 0 0 0 0
          0 0 0 0 0 0
          0 0 0 0 0 0
          0 0
        </DataArray>
        <DataArray type="Float64" Name="Stress" NumberOfComponents="6" format="ascii" RangeMin="17.352800875547732" RangeMax="873.9686031058179">
          -3.3321000007144903 -8.389719282024831 0 14.819899398459807 0 0
          -29.506363449861993 2.87660764473232 0 12.854993618172761 0 0
          -29.78970691510862 31.609620616881386 0 19.479761188759596 0 0
          -5.2591304950495 -26.446090952223088 0 21.71850750985262 0 0
          -164.81835312822568 -796.2271806406164 0 121.85007024860215 0 0
          156.17719932387587 849.9259760133355 0 130.59723168530064 0 0
          -6.566441623847311 -56.333737037116975 0 34.00517436439347 0 0
          -30.496819736606625 71.37706877407712 0 32.53444969992226 0 0
          -60.41053465311711 662.66017733243 0 110.39601153790173 0 0
          18.9721799403109 -613.5213053258552 0 112.59921214170996 0 0
          -30.10162867500063 127.7230696852978 0 47.780883445205895 0 0
          -7.864581349101629 -106.0229257281475 0 48.621911718041176 0 0
          -25.011527770006197 529.074536483372 0 98.49244663928496 0 0
          -14.665035904117602 -482.77917568364524 0 99.37426130022405 0 0
          -8.91059982322344 -175.45957009601736 0 62.51106885397108 0 0
          -29.63372662265439 202.97375883141436 0 61.8016649999188 0 0
          -6.628205377950707 -364.3000734740312 0 86.57084764913867 0 0
          -31.901225947857178 404.5359623640045 0 86.4899056784537 0 0
          -29.118706447903655 294.748042466967 0 74.22336423422132 0 0
          -10.439346598547687 -262.4576497366212 0 74.80057839856603 0 0
          <InformationKey name="L2_NORM_RANGE" location="vtkDataArray" length="2">
            <Value index="0">
              17.352800876
            </Value>
            <Value index="1">
              873.96860311
            </Value>
          </InformationKey>
        </DataArray>
        <DataArray type="Float64" Name="Strain" NumberOfComponents="6" format="ascii" RangeMin="0.00019524895497838521" RangeMax="0.004058445711741156">
          0.0000011988975966974866 -0.00003167562773181972 0 0.00019265869217997746 0 0
          -0.0001398633386041001 0.00007062597351076295 0 0.00016711491703624588 0 0
          -0.00019718192666666294 0.00020191370229127214 0 0.0002532368954538747 0 0
          0.000027640833604359802 -0.00011007440936726853 0 0.000282340597628084 0 0
          0.0008027194955157752 -0.0033014378833147646 0 0.0015840509132318277 0 0
          -0.0009467493963023692 0.0035626176521791177 0 0.0016977640119089088 0 0
          0.00007997347783387284 -0.00024351394235237996 0 0.000442067266737115 0 0
          -0.00027794581391101057 0.0003842344614084339 0 0.0004229478460989894 0 0
          -0.0015670552784699217 0.0031329043494361347 0 0.0014351481499927225 0 0
          0.0012826899641138324 -0.002828517690116248 0 0.0014637897578422298 0 0
          -0.00038602239635758366 0.0006398381429843562 0 0.0006211514847876765 0 0
          0.00017096086003147524 -0.000467068378432323 0 0.0006320848523345352 0 0
          -0.0011454977974961035 0.002456061620150854 0 0.0012804018063107042 0 0
          0.0008746934792193731 -0.0021680484293475563 0 0.0012918653969029126 0 0
          0.0003016029324915672 -0.0007809653742815931 0 0.0008126438951016239 0 0
          -0.0005306322858543355 0.0009813163695971115 0 0.0008034216449989444 0 0
          0.0006802268088046851 -0.0016446403338198376 0 0.0011254210194388025 0 0
          -0.000933995704672559 0.0019028460193545415 0 0.0011243687738198974 0 0
          -0.0007072487971485474 0.0013978850707981121 0 0.0009649037350448771 0 0
          0.0004642933899630195 -0.0011738255804344586 0 0.0009724075191813581 0 0
          <InformationKey name="L2_NORM_RANGE" location="vtkDataArray" length="2">
            <Value index="0">
              0.00019524895498
            </Value>
            <Value index="1">
              0.0040584457117
            </Value>
          </InformationKey>
        </DataArray>
        <DataArray type="Float64" Name="Btraction" NumberOfComponents="3" format="ascii" RangeMin="0.15029527584930882" RangeMax="19.09072856335109">
          6.76698801740175 -1.332665374290417 0 15.712730972965465 1.361683922996022 0
          18.947853936531573 2.3312546577785356 0 3.908952730239501 -0.05369544687028152 0
          0.13349188876122645 0.06905494607615138 0 12.903852659413879 -4.2061395648718385 0
          2.4778489894233835 0.360912918540231 0 18.510315588102966 1.3710195978871274 0
          17.167280062251248 0.00917865655564596 0 0.1537043886311563 0.07598642840957717 0
          18.12263040620441 0.8352288910184356 0 1.595428745398263 0.4431769016055416 0
          17.265437014942002 0.04591872112685452 0 0.1898961831886984 0.1740828083353405 0
          1.0149252083140132 0.43633999465812656 0 17.885661984366504 0.4949937517011701 0
          0.33950144502314966 0.2823112740228297 0 17.423183014742197 0.12363497568705503 0
          17.64916061142943 0.2643960075292816 0 0.6169809821729234 0.3768946005301764 0
          <InformationKey name="L2_NORM_RANGE" location="vtkDataArray" length="2">
            <Value index="0">
              0.15029527585
            </Value>
            <Value index="1">
              19.090728563
            </Value>
          </InformationKey>
        </DataArray>
      </CellData>
      <Points>
        <DataArray type="Float32" Name="Points" NumberOfComponents="3" format="ascii" RangeMin="1.4500000476837158" RangeMax="1.6286497021092299">
          1.4500000476837158 0.5 0 1.4500000476837158 0.44999998807907104 0
          1.4500000476837158 0.4000000059604645 0 1.5 0.5 0
          1.4500000476837158 0.3499999940395355 0 1.5002609491348267 0.45016080141067505 0
          1.4500000476837158 0.30000001192092896 0 1.5001590251922607 0.4000298082828522 0
          1.5499999523162842 0.5 0 1.4500000476837158 0.25 0
          1.5005459785461426 0.35020819306373596 0 1.5499999523162842 0.44999998807907104 0
          1.5002089738845825 0.30000561475753784 0 1.4500000476837158 0.20000000298023224 0
          1.5499999523162842 0.4000000059604645 0 1.5002909898757935 0.24981409311294556 0
          1.5499999523162842 0.3499999940395355 0 1.4500000476837158 0.15000000596046448 0
          1.5001939535140991 0.19956040382385254 0 1.5499999523162842 0.30000001192092896 0
          1.4500000476837158 0.10000000149011612 0 1.5499999523162842 0.25 0
          1.499879002571106 0.15004639327526093 0 1.4500000476837158 0.05000000074505806 0
          1.5499999523162842 0.20000000298023224 0 1.5001660585403442 0.10008130222558975 0
          1.4500000476837158 0 0 1.5499999523162842 0.15000000596046448 0
          1.5000410079956055 0.050020311027765274 0 1.5499999523162842 0.10000000149011612 0
          1.5 0 0 1.5499999523162842 0.05000000074505806 0
          1.5499999523162842 0 0
          <InformationKey name="L2_NORM_RANGE" location="vtkDataArray" length="2">
            <Value index="0">
              1.4500000477
            </Value>
            <Value index="1">
              1.6286497021
            </Value>
          </InformationKey>
        </DataArray>
      </Points>
      <Cells>
        <DataArray type="Int64" Name="connectivity" format="ascii" RangeMin="0" RangeMax="32">
          11 8 3 5 3 0
          1 5 1 2 7 5
          11 5 7 14 32 31
          28 30 26 30 28 23
          16 14 7 10 7 2
          4 10 20 23 28 25
          28 31 29 25 4 6
          12 10 16 10 12 19
          17 20 25 22 25 29
          27 22 21 19 12 15
          12 6 9 15 27 24
          18 22 17 22 18 13
          9 13 18 15 15 18
          24 21
        </DataArray>
        <DataArray type="Int64" Name="offsets" format="ascii" RangeMin="4" RangeMax="80">
          4 8 12 16 20 24
          28 32 36 40 44 48
          52 56 60 64 68 72
          76 80
        </DataArray>
        <DataArray type="UInt8" Name="types" format="ascii" RangeMin="9" RangeMax="9">
          9 9 9 9 9 9
          9 9 9 9 9 9
          9 9 9 9 9 9
          9 9
        </DataArray>
      </Cells>
    </Piece>
  </UnstructuredGrid>
</VTKFile>
