<?xml version="1.0"?>
<VTKFile type="UnstructuredGrid" version="0.1" byte_order="LittleEndian" header_type="UInt32" compressor="vtkZLibDataCompressor">
  <UnstructuredGrid>
    <Piece NumberOfPoints="33" NumberOfCells="20">
      <PointData>
        <DataArray type="Float64" Name="sld_BC" NumberOfComponents="3" format="ascii" RangeMin="0" RangeMax="0">
          0 0 0 0 0 0
          0 0 0 0 0 0
          0 0 0 0 0 0
          0 0 0 0 0 0
          0 0 0 0 0 0
          0 0 0 0 0 0
          0 0 0 0 0 0
          0 0 0 0 0 0
          0 0 0 0 0 0
          0 0 0 0 0 0
          0 0 0 0 0 0
          0 0 0 0 0 0
          0 0 0 0 0 0
          0 0 0 0 0 0
          0 0 0 0 0 0
          0 0 0 0 0 0
          0 0 0
          <InformationKey name="L2_NORM_RANGE" location="vtkDataArray" length="2">
            <Value index="0">
              0
            </Value>
            <Value index="1">
              0
            </Value>
          </InformationKey>
        </DataArray>
        <DataArray type="Float64" Name="sld_FIXNO" NumberOfComponents="3" format="ascii" RangeMin="1.4142135623730951" RangeMax="1.4142135623730951">
          -1 -1 0 -1 -1 0
          -1 -1 0 -1 -1 0
          -1 -1 0 -1 -1 0
          -1 -1 0 -1 -1 0
          -1 -1 0 -1 -1 0
          -1 -1 0 -1 -1 0
          -1 -1 0 -1 -1 0
          -1 -1 0 -1 -1 0
          -1 -1 0 -1 -1 0
          -1 -1 0 -1 -1 0
          -1 -1 0 -1 -1 0
          -1 -1 0 -1 -1 0
          -1 -1 0 -1 -1 0
          1 1 0 -1 -1 0
          -1 -1 0 -1 -1 0
          1 1 0 -1 -1 0
          1 1 0
          <InformationKey name="L2_NORM_RANGE" location="vtkDataArray" length="2">
            <Value index="0">
              1.4142135624
            </Value>
            <Value index="1">
              1.4142135624
            </Value>
          </InformationKey>
        </DataArray>
        <DataArray type="Float64" Name="Disp" NumberOfComponents="3" format="ascii" RangeMin="0" RangeMax="0.004374313655777117">
          -0.004342396554333433 -0.0004419578731512815 0 -0.0038817644294045764 -0.00044856682989691515 0
          -0.003408094555218365 -0.0004638288361135416 0 -0.004347581653700286 0.000022091899678738317 0
          -0.0029139394730781356 -0.00048193983309961547 0 -0.0038903500245620194 0.00002367524239683304 0
          -0.0023985746367700123 -0.000495443545302091 0 -0.0034169548130034027 0.000021386236078710524 0
          -0.0043471247401989065 0.0004869563145383321 0 -0.0018706769099553022 -0.0004954831110675415 0
          -0.002924627595581323 0.000023391226195257058 0 -0.0038872245419779923 0.0004921040276214168 0
          -0.00240540155922967 0.00001757596112284172 0 -0.0013484791353766798 -0.00047268000653803894 0
          -0.003414509927850266 0.0005043434102519741 0 -0.0018716256075036767 0.00001549855288669442 0
          -0.0029211463955343656 0.0005184340673169357 0 -0.0008597939053492542 -0.00041740084687899505 0
          -0.0013409509150946986 0.000011405533555424076 0 -0.0024063609606901387 0.0005268894934262638 0
          -0.0004420215852732942 -0.00032115255424488415 0 -0.0018787771779612014 0.0005211536198847881 0
          -0.0008489595869814413 0.000005590276825198092 0 -0.0001503419035257217 -0.00017641057719133946 0
          -0.0013565581985681369 0.0004922218311081288 0 -0.0004232032822558234 0.000004844811874199969 0
          0 0 0 -0.0008680411225416379 0.0004308722907195495 0
          -0.00011225695781066577 0.0000011978006499255348 0 -0.0004497236627010743 0.00032923883879604785 0
          0 0 0 -0.0001580165134501 0.00018009886503465947 0
          0 0 0
          <InformationKey name="L2_NORM_RANGE" location="vtkDataArray" length="2">
            <Value index="0">
              0
            </Value>
            <Value index="1">
              0.0043743136558
            </Value>
          </InformationKey>
        </DataArray>
        <DataArray type="Float64" Name="Sld_traction" NumberOfComponents="3" format="ascii" RangeMin="0" RangeMax="486.20181090060044">
          11.14288401112186 2.5428893405834 0 12.392765743337542 -6.1103960456578745 0
          6.126994222330272 -0.20053515324345011 0 8.032725878555102 -1.11850309693969 0
          7.726250798470935 8.912871175148128 0 0 0 0
          18.758948601352696 20.118696903288505 0 0 0 0
          0.4799407721712749 -2.6089193617677267 0 40.01618880937879 32.16798909179073 0
          0 0 0 -11.836734520143978 8.959598537575902 0
          0 0 0 71.60051511377212 44.33823158965969 0
          -19.87137212350219 2.8142884049526495 0 0 0 0
          -19.985479607623667 -6.844039606551631 0 114.13390660294783 55.455751292494796 0
          0 0 0 -10.275847514709541 -18.515183831083007 0
          164.29891134635733 58.04627636924634 0 10.353650646505184 -31.11953934065363 0
          0 0 0 216.33762028362526 74.4990604278545 0
          41.802758025459354 -43.69480854189275 0 0 0 0
          275.16714283657967 385.6268176260788 0 83.65409820807905 -55.19216620223805 0
          0 0 0 133.09748004361373 -57.38667990531516 0
          194.1506547173398 -7.621053051297608 0 190.8036353786985 -78.78285243082469 0
          276.4743596482517 -399.9426576149541 0
          <InformationKey name="L2_NORM_RANGE" location="vtkDataArray" length="2">
            <Value index="0">
              0
            </Value>
            <Value index="1">
              486.2018109
            </Value>
          </InformationKey>
        </DataArray>
        <DataArray type="Float64" Name="Fld_traction" NumberOfComponents="3" format="ascii" RangeMin="0" RangeMax="38.703252647272706">
          24.61371709552792 -0.4778428853253532 0 38.25040061405234 5.9032718337483345 0
          37.551985170755295 3.4069680542284404 0 14.883975363925545 -3.7904773378202727 0
          36.49561312904503 2.064734315414845 0 0 0 0
          35.998524793042904 1.2662526070151867 0 0 0 0
          12.176066270037396 -1.5589833375419895 0 35.54603780884231 0.7062803948904897 0
          0 0 0 9.609129818088816 -0.7930612491057911 0
          0 0 0 35.05210028024392 0.34622776525424137 0
          5.999561337830203 0.5878641554266423 0 0 0 0
          3.8898560367228314 0.8631350880601046 0 34.642797253954086 0.14523252846449738 0
          0 0 0 2.4748415348114268 0.9149951432264372 0
          34.4221169521605 0.036869436077612894 0 1.572328685986266 0.8338559475642016 0
          0 0 0 34.251218188080124 -0.0007208562178063751 0
          0.8874173867187608 0.6753343308806286 0 0 0 0
          17.367985125855352 -16.82529480783486 0 0.4664272432850721 0.45388192455405424 0
          0 0 0 0.29270905836857725 0.24140324106978098 0
          0 0 0 0.3248260818203699 0.06159056067881667 0
          0.21202380614022245 0.21529900888457965 0
          <InformationKey name="L2_NORM_RANGE" location="vtkDataArray" length="2">
            <Value index="0">
              0
            </Value>
            <Value index="1">
              38.703252647
            </Value>
          </InformationKey>
        </DataArray>
        <DataArray type="Float64" Name="Velocity" NumberOfComponents="3" format="ascii" RangeMin="0" RangeMax="0.036429048446842714">
          -0.036386907972505864 -0.0008727799891652581 0 -0.03398286141995419 -0.0010009640111982307 0
          -0.03132919118307466 -0.001573252963396405 0 -0.036330366412122166 0.0016074968090471209 0
          -0.028002813964577683 -0.002210860733245553 0 -0.03398361264509265 0.001641521261607962 0
          -0.02403631194393343 -0.0027656434086239896 0 -0.03135674819637638 0.0014999659000980213 0
          -0.03619457144978384 0.004126568587689551 0 -0.0197321530046067 -0.0032386356096673515 0
          -0.02803283305910055 0.0014296164260515414 0 -0.03377662919609876 0.004290606250349943 0
          -0.024056485215569936 0.001283369485988872 0 -0.015196972657060239 -0.003634687922003042 0
          -0.031088449658647595 0.004573550908249198 0 -0.0197479612896251 0.001090416262759429 0
          -0.027745873994326268 0.004976851466351967 0 -0.010427736812872287 -0.00374450226738112 0
          -0.015171494225485475 0.0008187707401975369 0 -0.02384080839642684 0.005262375730763779 0
          -0.005876448644235647 -0.003235341116045335 0 -0.01961077726907891 0.005342875649493626 0
          -0.01034156392964659 0.0005231954166509243 0 -0.002317747443548103 -0.0019425958108276868 0
          -0.015111864796593082 0.005240462919314216 0 -0.005605928683955106 0.0003468645290954015 0
          0 0 0 -0.010319991937274101 0.0048421182200759395 0
          -0.0018230295873044341 0.00021068173638936463 0 -0.0056543403615988315 0.0039044266948157986 0
          0 0 0 -0.0021784970222979835 0.0022567172331735236 0
          0 0 0
          <InformationKey name="L2_NORM_RANGE" location="vtkDataArray" length="2">
            <Value index="0">
              0
            </Value>
            <Value index="1">
              0.036429048447
            </Value>
          </InformationKey>
        </DataArray>
      </PointData>
      <CellData>
        <DataArray type="UInt8" Name="vtkGhostType" format="ascii" RangeMin="0" RangeMax="0">
          0 0 0 0 0 0
          0 0 0 0 0 0
          0 0 0 0 0 0
          0 0
        </DataArray>
        <DataArray type="Float64" Name="Stress" NumberOfComponents="6" format="ascii" RangeMin="16.04249219954088" RangeMax="448.8183430396505">
          0.7328820510020799 -9.119893093796373 0 13.177708064355281 0 0
          -24.382816711008715 5.971912761261168 0 11.126487637761027 0 0
          -22.83033636881711 26.617554185811635 0 5.8577383009317465 0 0
          -2.4051720062237965 -25.02305639792604 0 8.074578875520745 0 0
          85.66126578079023 434.95061098628395 0 -70.12858615677709 0 0
          -99.60150242744169 -427.87754340379763 0 -65.39755076325687 0 0
          -4.4946412189103535 -28.951281085599962 0 -1.925867680500576 0 0
          -22.967682578329338 33.977028307919134 0 -3.6674774545905544 0 0
          -8.911632262034434 -315.1749843007499 0 -76.67598749089349 0 0
          -21.140877878762183 325.2106108127894 0 -75.1046190343117 0 0
          -22.56648559911658 25.247786358044515 0 -16.729678413123576 0 0
          -6.112471702074149 -15.906687431469418 0 -15.3451841721964 0 0
          -25.06359396607846 -215.96078979706328 0 -72.9771946010146 0 0
          -5.112668130214885 227.6032548496183 0 -72.6545313112915 0 0
          -6.818509542399065 16.055800749178015 0 -30.216191794895785 0 0
          -22.553112832019615 -3.1930548460835397 0 -31.33630950967834 0 0
          -8.54543608475858 138.1572932085885 0 -60.49619015265057 0 0
          -21.553555483593016 -124.57605863829532 0 -61.05951385636805 0 0
          -22.631463889414025 -52.86986508625203 0 -46.20719145790893 0 0
          -6.867549794431033 67.39531245172269 0 -45.478705827431135 0 0
          <InformationKey name="L2_NORM_RANGE" location="vtkDataArray" length="2">
            <Value index="0">
              16.0424922
            </Value>
            <Value index="1">
              448.81834304
            </Value>
          </InformationKey>
        </DataArray>
        <DataArray type="Float64" Name="Strain" NumberOfComponents="6" format="ascii" RangeMin="0.0001305496900311851" RangeMax="0.0020795585200790705">
          0.000021118404864962394 -0.00004292463357622755 0 0.00017131020483661863 0 0
          -0.00012258704591954894 0.00007471869565020531 0 0.00014464433929089332 0 0
          -0.00015578226114045055 0.00016562902746463631 0 0.0000761505979121127 0 0
          0.000037851427347637516 -0.00010916482119842709 0 0.00010496952538176967 0 0
          -0.0004583949321206584 0.0018119858117150514 0 -0.000911671620038102 0 0
          0.00038117437359254575 -0.0017526198927537676 0 -0.0008501681599223394 0 0
          0.000036004380570877834 -0.00012296377856260463 0 -0.000025036279846507494 0 0
          -0.0001707581609318408 0.00019938245982877424 0 -0.00004767720690967719 0 0
          0.0005740432925942058 -0.001416668495657445 0 -0.0009967878373816153 0 0
          -0.0007303516854333073 0.001520932991061778 0 -0.000976360047446052 0 0
          -0.00015191069287416722 0.00015888207484737984 0 -0.00021748581937060642 0 0
          0.000003206294246927993 -0.00006045610799414126 0 -0.0001994873942385532 0 0
          0.0003070841875586164 -0.000933747585342785 0 -0.0009487035298131898 0 0
          -0.00046708898694923344 0.0010455645124196821 0 -0.0009445089070467895 0 0
          -0.00006233302987881289 0.00008634998701643817 0 -0.00039281049333364504 0 0
          -0.00009639020643582635 0.000029450170472758147 0 -0.00040737202362581834 0 0
          -0.00030828845594239917 0.0006452792844643569 0 -0.0007864504719844573 0 0
          0.00014485463689432767 -0.0005247916336112374 0 -0.0007937736801327844 0 0
          1.230762213576611e-7 -0.00019642653155808935 0 -0.000600693488952816 0 0
          -0.00016266821084552041 0.00032004039375447873 0 -0.0005912231757566047 0 0
          <InformationKey name="L2_NORM_RANGE" location="vtkDataArray" length="2">
            <Value index="0">
              0.00013054969003
            </Value>
            <Value index="1">
              0.0020795585201
            </Value>
          </InformationKey>
        </DataArray>
        <DataArray type="Float64" Name="Btraction" NumberOfComponents="3" format="ascii" RangeMin="0.15101234136989916" RangeMax="19.0929997928568">
          6.765010408490735 -1.3373651688405654 0 15.716029427395064 1.3563572371057453 0
          18.950596446201907 2.327559971994193 0 3.902172788979754 -0.05129927341978724 0
          0.13421247199014807 0.06922239239084907 0 12.904800828483868 -4.206503916013167 0
          2.4723543436382585 0.36274981087168673 0 18.51189957495008 1.3679255924108213 0
          17.168333785060153 0.009037144964951631 0 0.1543837850472368 0.07574845043714941 0
          18.123534480521982 0.8327467306075079 0 1.5911743928835644 0.44453255782163537 0
          17.26622855152865 0.04552549113552757 0 0.18978407541341233 0.1738212914059588 0
          1.0117925551994231 0.43721277269765957 0 17.8861406504713 0.49313325047641904 0
          0.33846115750095823 0.2823040638586707 0 17.423724383549498 0.12286507342968467 0
          17.64953452227155 0.26312704003618276 0 0.6149365181762567 0.3772975696112075 0
          <InformationKey name="L2_NORM_RANGE" location="vtkDataArray" length="2">
            <Value index="0">
              0.15101234137
            </Value>
            <Value index="1">
              19.092999793
            </Value>
          </InformationKey>
        </DataArray>
      </CellData>
      <Points>
        <DataArray type="Float32" Name="Points" NumberOfComponents="3" format="ascii" RangeMin="1.4500000476837158" RangeMax="1.6286497021092299">
          1.4500000476837158 0.5 0 1.4500000476837158 0.44999998807907104 0
          1.4500000476837158 0.4000000059604645 0 1.5 0.5 0
          1.4500000476837158 0.3499999940395355 0 1.5002609491348267 0.45016080141067505 0
          1.4500000476837158 0.30000001192092896 0 1.5001590251922607 0.4000298082828522 0
          1.5499999523162842 0.5 0 1.4500000476837158 0.25 0
          1.5005459785461426 0.35020819306373596 0 1.5499999523162842 0.44999998807907104 0
          1.5002089738845825 0.30000561475753784 0 1.4500000476837158 0.20000000298023224 0
          1.5499999523162842 0.4000000059604645 0 1.5002909898757935 0.24981409311294556 0
          1.5499999523162842 0.3499999940395355 0 1.4500000476837158 0.15000000596046448 0
          1.5001939535140991 0.19956040382385254 0 1.5499999523162842 0.30000001192092896 0
          1.4500000476837158 0.10000000149011612 0 1.5499999523162842 0.25 0
          1.499879002571106 0.15004639327526093 0 1.4500000476837158 0.05000000074505806 0
          1.5499999523162842 0.20000000298023224 0 1.5001660585403442 0.10008130222558975 0
          1.4500000476837158 0 0 1.5499999523162842 0.15000000596046448 0
          1.5000410079956055 0.050020311027765274 0 1.5499999523162842 0.10000000149011612 0
          1.5 0 0 1.5499999523162842 0.05000000074505806 0
          1.5499999523162842 0 0
          <InformationKey name="L2_NORM_RANGE" location="vtkDataArray" length="2">
            <Value index="0">
              1.4500000477
            </Value>
            <Value index="1">
              1.6286497021
            </Value>
          </InformationKey>
        </DataArray>
      </Points>
      <Cells>
        <DataArray type="Int64" Name="connectivity" format="ascii" RangeMin="0" RangeMax="32">
          11 8 3 5 3 0
          1 5 1 2 7 5
          11 5 7 14 32 31
          28 30 26 30 28 23
          16 14 7 10 7 2
          4 10 20 23 28 25
          28 31 29 25 4 6
          12 10 16 10 12 19
          17 20 25 22 25 29
          27 22 21 19 12 15
          12 6 9 15 27 24
          18 22 17 22 18 13
          9 13 18 15 15 18
          24 21
        </DataArray>
        <DataArray type="Int64" Name="offsets" format="ascii" RangeMin="4" RangeMax="80">
          4 8 12 16 20 24
          28 32 36 40 44 48
          52 56 60 64 68 72
          76 80
        </DataArray>
        <DataArray type="UInt8" Name="types" format="ascii" RangeMin="9" RangeMax="9">
          9 9 9 9 9 9
          9 9 9 9 9 9
          9 9 9 9 9 9
          9 9
        </DataArray>
      </Cells>
    </Piece>
  </UnstructuredGrid>
</VTKFile>
