<?xml version="1.0"?>
<VTKFile type="UnstructuredGrid" version="0.1" byte_order="LittleEndian" header_type="UInt32" compressor="vtkZLibDataCompressor">
  <UnstructuredGrid>
    <Piece NumberOfPoints="33" NumberOfCells="20">
      <PointData>
        <DataArray type="Float64" Name="sld_BC" NumberOfComponents="3" format="ascii" RangeMin="0" RangeMax="0">
          0 0 0 0 0 0
          0 0 0 0 0 0
          0 0 0 0 0 0
          0 0 0 0 0 0
          0 0 0 0 0 0
          0 0 0 0 0 0
          0 0 0 0 0 0
          0 0 0 0 0 0
          0 0 0 0 0 0
          0 0 0 0 0 0
          0 0 0 0 0 0
          0 0 0 0 0 0
          0 0 0 0 0 0
          0 0 0 0 0 0
          0 0 0 0 0 0
          0 0 0 0 0 0
          0 0 0
          <InformationKey name="L2_NORM_RANGE" location="vtkDataArray" length="2">
            <Value index="0">
              0
            </Value>
            <Value index="1">
              0
            </Value>
          </InformationKey>
        </DataArray>
        <DataArray type="Float64" Name="sld_FIXNO" NumberOfComponents="3" format="ascii" RangeMin="1.4142135623730951" RangeMax="1.4142135623730951">
          -1 -1 0 -1 -1 0
          -1 -1 0 -1 -1 0
          -1 -1 0 -1 -1 0
          -1 -1 0 -1 -1 0
          -1 -1 0 -1 -1 0
          -1 -1 0 -1 -1 0
          -1 -1 0 -1 -1 0
          -1 -1 0 -1 -1 0
          -1 -1 0 -1 -1 0
          -1 -1 0 -1 -1 0
          -1 -1 0 -1 -1 0
          -1 -1 0 -1 -1 0
          -1 -1 0 -1 -1 0
          1 1 0 -1 -1 0
          -1 -1 0 -1 -1 0
          1 1 0 -1 -1 0
          1 1 0
          <InformationKey name="L2_NORM_RANGE" location="vtkDataArray" length="2">
            <Value index="0">
              1.4142135624
            </Value>
            <Value index="1">
              1.4142135624
            </Value>
          </InformationKey>
        </DataArray>
        <DataArray type="Float64" Name="Disp" NumberOfComponents="3" format="ascii" RangeMin="0" RangeMax="0.02132468747357712">
          0.021129322586068082 0.0028799345304381723 0 0.018285618049176885 0.0028681919396746506 0
          0.015450128696902755 0.0028280986722262285 0 0.021123481291721213 0.000046061919238643556 0
          0.01265783097764319 0.002745154894944464 0 0.018284579570339493 0.000030242587335306244 0
          0.009958000172731607 0.002605386905120661 0 0.015433640541448317 0.00003368939380050105 0
          0.02112440909402668 -0.002787649289474238 0 0.007416044118756276 0.0023952356526019862 0
          0.012639974347950033 0.000009410196072713085 0 0.01827914168305843 -0.002777842407789661 0
          0.009915456017190794 0.00002360954951093709 0 0.005108784532944031 0.0021035456483159414 0
          0.015442018240692598 -0.0027428738492275054 0 0.007347411031172023 0.000015514116617621187 0
          0.012648204330702092 -0.0026675284482923466 0 0.0031251394596932495 0.0017205430564407385 0
          0.0050116422820917625 0.00001536904453095108 0 0.009948085793872864 -0.00253670609587809 0
          0.001558757591604187 0.0012412063142485698 0 0.00740514268688538 -0.0023370217630535282 0
          0.003027974605754337 0.000021800093459177424 0 0.0005336949448693173 0.0006516518750269938 0
          0.005097282941979716 -0.0020563342369981216 0 0.0014454665949493982 0.000007624074102396562 0
          0 0 0 0.0031149073235761642 -0.0016850407479436908 0
          0.0003631648653995397 0.000003983227308155438 0 0.0015462132694651738 -0.0012182458406148333 0
          0 0 0 0.0005218365996018201 -0.0006400227641272905 0
          0 0 0
          <InformationKey name="L2_NORM_RANGE" location="vtkDataArray" length="2">
            <Value index="0">
              0
            </Value>
            <Value index="1">
              0.021324687474
            </Value>
          </InformationKey>
        </DataArray>
        <DataArray type="Float64" Name="Sld_traction" NumberOfComponents="3" format="ascii" RangeMin="0" RangeMax="1715.0245239087028">
          14.708103662897415 4.979755072065189 0 -1.9709557789855086 -32.037575259639084 0
          -41.72647757307634 -54.20287852368397 0 20.102872503725138 -0.24123476725288562 0
          -98.38434847383955 -75.12580711295227 0 0 0 0
          -171.75186182705164 -94.61276869644931 0 0 0 0
          3.2840680906236375 -3.9597100126117866 0 -258.8581859365374 -112.53968523692825 0
          0 0 0 -28.40563208466571 34.99062785948113 0
          0 0 0 -356.41581243660437 -126.79843010938025 0
          -69.78843619226402 56.66031661189663 0 0 0 0
          -127.72497512317113 76.33551618480601 0 -465.3537527312767 -135.91651737945716 0
          0 0 0 -201.13894034058626 95.53912054698161 0
          -578.3983261761533 -128.93284695939394 0 -289.4117639143993 113.47853786314555 0
          0 0 0 -716.3550364771761 -219.29860675442916 0
          -388.1418890780563 127.23270913742041 0 0 0 0
          -965.3780508227636 -1417.516961661452 0 -496.09771721107546 136.7401271136337 0
          0 0 0 -613.2209275802728 130.1212509822974 0
          -642.9572507179463 -24.67672243650609 0 -742.0746226940938 212.72188643286603 0
          -956.5404436281272 1381.233663040689 0
          <InformationKey name="L2_NORM_RANGE" location="vtkDataArray" length="2">
            <Value index="0">
              0
            </Value>
            <Value index="1">
              1715.0245239
            </Value>
          </InformationKey>
        </DataArray>
        <DataArray type="Float64" Name="Fld_traction" NumberOfComponents="3" format="ascii" RangeMin="0" RangeMax="38.931281659133724">
          24.678381726958886 -0.12244700449061914 0 38.37432177575558 6.561716229278199 0
          37.89169671967993 4.092576842936293 0 15.181277050239197 -4.02261311896319 0
          37.019786610864614 2.7351894683495686 0 0 0 0
          36.69892619892879 1.8662594659765954 0 0 0 0
          12.987817455047978 -2.4861714511100366 0 36.3859341980767 1.1943176436810619 0
          0 0 0 10.734913562080813 -2.126138981188384 0
          0 0 0 35.95582381815866 0.6925788427973275 0
          6.836197764187645 -0.5892995459288302 0 0 0 0
          4.661968732894465 -0.2200342032525299 0 35.512177105644206 0.3549901773600138 0
          0 0 0 3.2575081407852275 -0.023609433907128396 0
          35.251370009406884 0.13348790734263236 0 2.404553734261604 0.10042970336376826 0
          0 0 0 34.989686978054145 0.02064388473505469 0
          1.6653557415282967 0.16381135280834783 0 0 0 0
          17.714846358208625 -17.157860625673774 0 1.2000517054832511 0.1867824429940758 0
          0 0 0 0.808862852474504 0.15610108138717294 0
          0 0 0 0.6305551766891269 0.05810762443549881 0
          0.3263145239305309 0.3246849654649475 0
          <InformationKey name="L2_NORM_RANGE" location="vtkDataArray" length="2">
            <Value index="0">
              0
            </Value>
            <Value index="1">
              38.931281659
            </Value>
          </InformationKey>
        </DataArray>
        <DataArray type="Float64" Name="Velocity" NumberOfComponents="3" format="ascii" RangeMin="0" RangeMax="0.1749916281143606">
          0.17260988073308464 0.028773233802007137 0 0.14443108346257882 0.028785171013870636 0
          0.11624149363303163 0.028106152340119747 0 0.17236467209909836 0.0007571511112415878 0
          0.08903347755561584 0.026406455865382466 0 0.14414533434483928 0.0007612730420322532 0
          0.06403505699113995 0.023585750009247838 0 0.1156658786546399 0.0008917177257349175 0
          0.1722092881638031 -0.02727877666617869 0 0.04250360852943068 0.019776169738499202 0
          0.08828302945071642 0.0007017116824434643 0 0.14398563202768982 -0.026999854300582167 0
          0.06293476937299197 0.0008278250426743981 0 0.025371037979964532 0.015332802382054238 0
          0.11573524010370115 -0.026184182211057023 0 0.04112961909859739 0.0007133698832835552 0
          0.08846423132325135 -0.024481543307001353 0 0.013070785460564501 0.01073086408785928 0
          0.023841514059807584 0.0006279262749152101 0 0.06343393416783003 -0.021761551770505413 0
          0.00541969176702674 0.006473787023456877 0 0.041859015757991176 -0.01814724141466972 0
          0.011697740823744767 0.0005506043115125532 0 0.0017408436847740202 0.0028483398563510483 0
          0.02469764112908105 -0.013967058821673468 0 0.004162466988334147 0.0003177436774602907 0
          0 0 0 0.012389663922737859 -0.009690729157701654 0
          0.000468717225854485 0.0000953105677179044 0 0.004692106169128239 -0.005796788591026926 0
          0 0 0 0.0009971156828568768 -0.0025072372078318644 0
          0 0 0
          <InformationKey name="L2_NORM_RANGE" location="vtkDataArray" length="2">
            <Value index="0">
              0
            </Value>
            <Value index="1">
              0.17499162811
            </Value>
          </InformationKey>
        </DataArray>
      </PointData>
      <CellData>
        <DataArray type="UInt8" Name="vtkGhostType" format="ascii" RangeMin="0" RangeMax="0">
          0 0 0 0 0 0
          0 0 0 0 0 0
          0 0 0 0 0 0
          0 0
        </DataArray>
        <DataArray type="Float64" Name="Stress" NumberOfComponents="6" format="ascii" RangeMin="33.72819344929274" RangeMax="1608.1841780079533">
          2.4375338916679823 -18.206834245492907 0 28.287110998421703 0 0
          -28.2579515726176 16.04728503763052 0 26.640218775318964 0 0
          -27.176583746166692 81.3826723240863 0 53.957630986938234 0 0
          -0.4787360180345903 -72.00387563349844 0 55.63539814790307 0 0
          -305.5774007275679 -1528.0822338054913 0 184.83072223057107 0 0
          297.3464852390357 1568.777443348682 0 191.7778698168282 0 0
          -2.354847254504296 -160.13821407635095 0 80.9967850024127 0 0
          -28.06734291435425 177.14962209285855 0 80.01990757824223 0 0
          -81.48655624815598 1273.4239284419145 0 175.92213077942526 0 0
          45.5796295352209 -1237.6288404177874 0 177.28771982088094 0 0
          -27.187903156011807 302.97779464149403 0 104.44915553985497 0 0
          -4.418147069122682 -281.16842271590826 0 104.58369923077623 0 0
          -17.276609999764247 1058.9968862848698 0 167.1518971070128 0 0
          -15.6881000957586 -1020.2297071879487 0 168.22075586554277 0 0
          -5.826302268419184 -431.93282524266243 0 126.26716064748838 0 0
          -26.356839011811473 458.85933253727654 0 125.88762253914713 0 0
          -0.761423385839592 -806.8939698531044 0 157.4552613328616 0 0
          -30.895772772401102 843.3961521706077 0 157.73522485788732 0 0
          -25.437878980527643 638.8554292836261 0 143.84240701095413 0 0
          -8.710152666821529 -609.8263759698555 0 144.30131188827616 0 0
          <InformationKey name="L2_NORM_RANGE" location="vtkDataArray" length="2">
            <Value index="0">
              33.728193449
            </Value>
            <Value index="1">
              1608.184178
            </Value>
          </InformationKey>
        </DataArray>
        <DataArray type="Float64" Name="Strain" NumberOfComponents="6" format="ascii" RangeMin="0.00038088176568431317" RangeMax="0.007220493124193948">
          0.000046594105985800494 -0.00008759428690574528 0 0.00036773244297948204 0 0
          -0.0001598658854787896 0.0001281181524878232 0 0.0003463228440791464 0 0
          -0.00028234966707702674 0.0004232854973796177 0 0.0007014492028301969 0 0
          0.0001382293086032646 -0.00032668409889725046 0 0.0007232601759227398 0 0
          0.0015893831826102745 -0.006356898232396228 0 0.0024027993889974234 0 0
          -0.0017061895066923175 0.006558111721020383 0 0.002493112307618767 0 0
          0.0003015549624408899 -0.0007240369219011136 0 0.0010529582050313648 0 0
          -0.00047314817334138595 0.0008607620992054971 0 0.0010402587985171487 0 0
          -0.002853940491390844 0.005952977659094617 0 0.002286987700132528 0 0
          0.0026207635531999406 -0.005720091501494614 0 0.002304740357671452 0 0
          -0.0007145116589107672 0.001431565376773021 0 0.0013578390220181143 0 0
          0.000528175855131513 -0.0012707009365725932 0 0.0013595880900000908 0 0
          -0.002143652503754424 0.004852125222095698 0 0.0021729746623911656 0 0
          0.0019180670735807984 -0.004611453372518438 0 0.0021868698262520556 0 0
          0.0008157593339018844 -0.001953933065430697 0 0.0016414730884173488 0 0
          -0.0010146993159514317 0.002139205799117641 0 0.0016365390930089124 0 0
          0.0015699787648079835 -0.0036698827872292377 0 0.0020469183973272007 0 0
          -0.0017851982628471104 0.0038976992492824472 0 0.002050557923152535 0 0
          -0.001361510436464472 0.002956396067252528 0 0.0018699512911424037 0 0
          0.0011495302385071803 -0.00275772521296254 0 0.0018759170545475895 0 0
          <InformationKey name="L2_NORM_RANGE" location="vtkDataArray" length="2">
            <Value index="0">
              0.00038088176568
            </Value>
            <Value index="1">
              0.0072204931242
            </Value>
          </InformationKey>
        </DataArray>
        <DataArray type="Float64" Name="Btraction" NumberOfComponents="3" format="ascii" RangeMin="0.25764920323555296" RangeMax="19.2516550230343">
          7.042273626321793 -1.6271961425183064 0 15.763175875678618 1.6098173061968948 0
          19.066504623858876 2.663573268053623 0 4.392777831567114 -0.6788596317793034 0
          0.2392174251549144 0.09569814747511156 0 13.17613333406569 -4.28430418523468 0
          2.8745416242705275 -0.20233343729533998 0 18.727870832636135 1.7069415778214656 0
          17.56026424686526 0.03853294801942177 0 0.35985450729090773 0.05355217645566793 0
          18.42967820244835 1.1503622335815409 0 1.9798692184199231 -0.060910909289914564 0
          17.690886778762767 0.12211952117566152 0 0.5022286394894386 0.08572088109531217 0
          1.4155154687617078 0.019205067364159965 0 18.271215099251368 0.7651442774144144 0
          0.7163518617528869 0.08764844895060589 0 17.867000230950715 0.2618922550393353 0
          18.085439504058836 0.4717241216195973 0 1.017477368947475 0.06606026404302903 0
          <InformationKey name="L2_NORM_RANGE" location="vtkDataArray" length="2">
            <Value index="0">
              0.25764920324
            </Value>
            <Value index="1">
              19.251655023
            </Value>
          </InformationKey>
        </DataArray>
      </CellData>
      <Points>
        <DataArray type="Float32" Name="Points" NumberOfComponents="3" format="ascii" RangeMin="1.4500000476837158" RangeMax="1.6286497021092299">
          1.4500000476837158 0.5 0 1.4500000476837158 0.44999998807907104 0
          1.4500000476837158 0.4000000059604645 0 1.5 0.5 0
          1.4500000476837158 0.3499999940395355 0 1.5002609491348267 0.45016080141067505 0
          1.4500000476837158 0.30000001192092896 0 1.5001590251922607 0.4000298082828522 0
          1.5499999523162842 0.5 0 1.4500000476837158 0.25 0
          1.5005459785461426 0.35020819306373596 0 1.5499999523162842 0.44999998807907104 0
          1.5002089738845825 0.30000561475753784 0 1.4500000476837158 0.20000000298023224 0
          1.5499999523162842 0.4000000059604645 0 1.5002909898757935 0.24981409311294556 0
          1.5499999523162842 0.3499999940395355 0 1.4500000476837158 0.15000000596046448 0
          1.5001939535140991 0.19956040382385254 0 1.5499999523162842 0.30000001192092896 0
          1.4500000476837158 0.10000000149011612 0 1.5499999523162842 0.25 0
          1.499879002571106 0.15004639327526093 0 1.4500000476837158 0.05000000074505806 0
          1.5499999523162842 0.20000000298023224 0 1.5001660585403442 0.10008130222558975 0
          1.4500000476837158 0 0 1.5499999523162842 0.15000000596046448 0
          1.5000410079956055 0.050020311027765274 0 1.5499999523162842 0.10000000149011612 0
          1.5 0 0 1.5499999523162842 0.05000000074505806 0
          1.5499999523162842 0 0
          <InformationKey name="L2_NORM_RANGE" location="vtkDataArray" length="2">
            <Value index="0">
              1.4500000477
            </Value>
            <Value index="1">
              1.6286497021
            </Value>
          </InformationKey>
        </DataArray>
      </Points>
      <Cells>
        <DataArray type="Int64" Name="connectivity" format="ascii" RangeMin="0" RangeMax="32">
          11 8 3 5 3 0
          1 5 1 2 7 5
          11 5 7 14 32 31
          28 30 26 30 28 23
          16 14 7 10 7 2
          4 10 20 23 28 25
          28 31 29 25 4 6
          12 10 16 10 12 19
          17 20 25 22 25 29
          27 22 21 19 12 15
          12 6 9 15 27 24
          18 22 17 22 18 13
          9 13 18 15 15 18
          24 21
        </DataArray>
        <DataArray type="Int64" Name="offsets" format="ascii" RangeMin="4" RangeMax="80">
          4 8 12 16 20 24
          28 32 36 40 44 48
          52 56 60 64 68 72
          76 80
        </DataArray>
        <DataArray type="UInt8" Name="types" format="ascii" RangeMin="9" RangeMax="9">
          9 9 9 9 9 9
          9 9 9 9 9 9
          9 9 9 9 9 9
          9 9
        </DataArray>
      </Cells>
    </Piece>
  </UnstructuredGrid>
</VTKFile>
