<?xml version="1.0"?>
<VTKFile type="UnstructuredGrid" version="0.1" byte_order="LittleEndian" header_type="UInt32" compressor="vtkZLibDataCompressor">
  <UnstructuredGrid>
    <Piece NumberOfPoints="33" NumberOfCells="20">
      <PointData>
        <DataArray type="Float64" Name="sld_BC" NumberOfComponents="3" format="ascii" RangeMin="0" RangeMax="0">
          0 0 0 0 0 0
          0 0 0 0 0 0
          0 0 0 0 0 0
          0 0 0 0 0 0
          0 0 0 0 0 0
          0 0 0 0 0 0
          0 0 0 0 0 0
          0 0 0 0 0 0
          0 0 0 0 0 0
          0 0 0 0 0 0
          0 0 0 0 0 0
          0 0 0 0 0 0
          0 0 0 0 0 0
          0 0 0 0 0 0
          0 0 0 0 0 0
          0 0 0 0 0 0
          0 0 0
          <InformationKey name="L2_NORM_RANGE" location="vtkDataArray" length="2">
            <Value index="0">
              0
            </Value>
            <Value index="1">
              0
            </Value>
          </InformationKey>
        </DataArray>
        <DataArray type="Float64" Name="sld_FIXNO" NumberOfComponents="3" format="ascii" RangeMin="1.4142135623730951" RangeMax="1.4142135623730951">
          -1 -1 0 -1 -1 0
          -1 -1 0 -1 -1 0
          -1 -1 0 -1 -1 0
          -1 -1 0 -1 -1 0
          -1 -1 0 -1 -1 0
          -1 -1 0 -1 -1 0
          -1 -1 0 -1 -1 0
          -1 -1 0 -1 -1 0
          -1 -1 0 -1 -1 0
          -1 -1 0 -1 -1 0
          -1 -1 0 -1 -1 0
          -1 -1 0 -1 -1 0
          -1 -1 0 -1 -1 0
          1 1 0 -1 -1 0
          -1 -1 0 -1 -1 0
          1 1 0 -1 -1 0
          1 1 0
          <InformationKey name="L2_NORM_RANGE" location="vtkDataArray" length="2">
            <Value index="0">
              1.4142135624
            </Value>
            <Value index="1">
              1.4142135624
            </Value>
          </InformationKey>
        </DataArray>
        <DataArray type="Float64" Name="Disp" NumberOfComponents="3" format="ascii" RangeMin="0" RangeMax="0.013121155417620057">
          0.013025945459143626 0.0015778036597611641 0 0.01143336472116049 0.0015737295461779113 0
          0.00984972725885585 0.0015626872635936993 0 0.013020175304415595 -0.000011672600440221096 0
          0.008276404588424638 0.0015440390378562883 0 0.011430711985452606 -0.000019488242943159636 0
          0.006719023768896328 0.0015103953821445227 0 0.009841407521006804 -0.000015646168370940148 0
          0.013020466750018578 -0.0016007625986831262 0 0.005194357149734743 0.0014479805983258225 0
          0.00827143534952105 -0.00002690684634521764 0 0.011426941977751043 -0.001595395866003818 0
          0.006703290878736765 -0.000015437092727196155 0 0.003736287048054521 0.0013381391732140147 0
          0.009842678581291014 -0.0015832530503554739 0 0.005164777765743755 -0.00001647264624360774 0
          0.008269157676486293 -0.0015634223833308019 0 0.0024019092235320876 0.0011582648818063862 0
          0.003687520946773214 -0.000012101610896381033 0 0.006711820783314399 -0.001528180610586993 0
          0.0012702635734957912 0.0008858770015655415 0 0.0051870722484719635 -0.0014639115264210056 0
          0.0023487172158185047 -0.000002697649932657231 0 0.0004679374728174512 0.000491557293944366 0
          0.003728917069817445 -0.0013516625157091481 0 0.001199317361019722 -0.000006823833617070479 0
          0 0 0 0.0023954526644663003 -0.0011689766441785076 0
          0.0003420068748281634 -0.0000032061375845983886 0 0.0012626919389858138 -0.000893896686379291 0
          0 0 0 0.00046095431374593046 -0.0004955747659886469 0
          0 0 0
          <InformationKey name="L2_NORM_RANGE" location="vtkDataArray" length="2">
            <Value index="0">
              0
            </Value>
            <Value index="1">
              0.013121155418
            </Value>
          </InformationKey>
        </DataArray>
        <DataArray type="Float64" Name="Sld_traction" NumberOfComponents="3" format="ascii" RangeMin="0" RangeMax="1370.3814574744983">
          15.496539330747895 -3.323115485193033 0 23.741815706909083 -6.657971011207717 0
          16.020287985591896 -9.88503207865503 0 7.361416706109067 -9.215300124019805 0
          2.960063911910152 -21.259329229528856 0 0 0 0
          -22.40895236915375 -40.58803409020162 0 0 0 0
          -0.7710677751420129 -5.073168270274519 0 -66.47913559306035 -67.18088905473743 0
          0 0 0 -13.11122992849119 8.932478681111203 0
          0 0 0 -133.56904815897823 -97.97045909930503 0
          -23.866402996335864 11.548548064047166 0 0 0 0
          -38.30079902103814 22.185386646675937 0 -228.4807024152451 -130.41231142154038 0
          0 0 0 -64.54373911355326 41.192239090910654 0
          -347.76271156108584 -149.36781847836772 0 -109.45279773924412 67.58798861456238 0
          0 0 0 -504.8091826535051 -241.42678256329862 0
          -177.3451199074012 98.06258852318757 0 0 0 0
          -781.5718885605363 -1112.3799373669683 0 -271.64517330267364 130.77436391182025 0
          0 0 0 -393.0999694724797 149.8139428868504 0
          -588.798319760763 15.149050980924756 0 -544.7698299279956 237.5102664113395 0
          -788.9098665484661 1120.520665339293 0
          <InformationKey name="L2_NORM_RANGE" location="vtkDataArray" length="2">
            <Value index="0">
              0
            </Value>
            <Value index="1">
              1370.3814575
            </Value>
          </InformationKey>
        </DataArray>
        <DataArray type="Float64" Name="Fld_traction" NumberOfComponents="3" format="ascii" RangeMin="0" RangeMax="48.39432608114476">
          29.566837922406425 -2.454148655048084 0 47.77051728008668 7.745222762523231 0
          47.67346539167456 5.088734370053164 0 16.982795998823878 -8.86066975131747 0
          46.96899613128223 3.59461651482737 0 0 0 0
          46.78538383648598 2.5854278132570876 0 0 0 0
          13.76861362460243 -5.16422787716727 0 46.56041443245073 1.7801875346798737 0
          0 0 0 11.241625040491384 -3.8226826094920643 0
          0 0 0 46.17308270211414 1.1383994189076776 0
          7.246479703819892 -1.9529794480263072 0 0 0 0
          5.114109245088191 -1.355284819732868 0 45.69778557645542 0.6512818520646708 0
          0 0 0 3.7325203153508295 -0.9389253593355855 0
          45.352455157097005 0.2871411050817569 0 2.9123130309421086 -0.6023898455026152 0
          0 0 0 44.93467338363573 0.059117421390898324 0
          2.1258477456398532 -0.35229416540229597 0 0 0 0
          22.711934478834674 -21.99285531714725 0 1.6241885923588648 -0.14172000268241922 0
          0 0 0 1.111881913158826 -0.007003142394434233 0
          0 0 0 0.7610880262014884 0.023624851417231675 0
          0.33373019108699387 0.3254873240678688 0
          <InformationKey name="L2_NORM_RANGE" location="vtkDataArray" length="2">
            <Value index="0">
              0
            </Value>
            <Value index="1">
              48.394326081
            </Value>
          </InformationKey>
        </DataArray>
        <DataArray type="Float64" Name="Velocity" NumberOfComponents="3" format="ascii" RangeMin="0" RangeMax="0.15330798069002058">
          0.1515252043438936 0.023312001025073192 0 0.12965904965807695 0.02299332472599893 0
          0.10777456388884449 0.022510304005181413 0 0.15176756739312636 0.0015522296759129983 0
          0.08622357801312626 0.021638178418144565 0 0.1300093690506362 0.0012279601691063814 0
          0.06552399916227118 0.0202139109097977 0 0.10802344216302068 0.0010817047611227301 0
          0.15194840559652092 -0.020196690965465787 0 0.04636387023143063 0.018114032432547347 0
          0.08645853048644292 0.0007509700142737648 0 0.13010235618460572 -0.02029800737085155 0
          0.06555183616516914 0.0007340406468509317 0 0.029528861415615865 0.015283456622022828 0
          0.10823834627236217 -0.02020064974382424 0 0.04617571151853335 0.0005661006311656019 0
          0.08669763484538062 -0.019682699291460437 0 0.015858423985881977 0.011760262897514815 0
          0.029123339352934347 0.00047089994217807443 0 0.06601666625450857 -0.018579467641138457 0
          0.006120068957309096 0.007739385483864254 0 0.046863801778545496 -0.016777168050631192 0
          0.015472554773688522 0.0004293054241608332 0 0.0008894551973006228 0.0035554433869540644 0
          0.030036993757409813 -0.014219810029885472 0 0.0056835023688529 0.00026017263131839093 0
          0 0 0 0.0163885224416567 -0.010951834992905675 0
          0.0003776023970005664 0.00019226402799224867 0 0.006648747050046158 -0.007177177578394768 0
          0 0 0 0.0014381757513787109 -0.00327068271771388 0
          0 0 0
          <InformationKey name="L2_NORM_RANGE" location="vtkDataArray" length="2">
            <Value index="0">
              0
            </Value>
            <Value index="1">
              0.15330798069
            </Value>
          </InformationKey>
        </DataArray>
      </PointData>
      <CellData>
        <DataArray type="UInt8" Name="vtkGhostType" format="ascii" RangeMin="0" RangeMax="0">
          0 0 0 0 0 0
          0 0 0 0 0 0
          0 0 0 0 0 0
          0 0
        </DataArray>
        <DataArray type="Float64" Name="Stress" NumberOfComponents="6" format="ascii" RangeMin="18.06450241286294" RangeMax="1254.0764866036216">
          -2.2877252039722973 -13.815887594636717 0 11.411126622196605 0 0
          -32.212344055249766 -5.875850216836186 0 9.781692347137128 0 0
          -33.596819419016086 8.48734044634898 0 8.080885443163154 0 0
          -5.139901155382939 -30.232012519505815 0 9.700464935364554 0 0
          -254.3475288865361 -1204.6346413770818 0 238.47546958902464 0 0
          224.33894341633584 1169.7456904901485 0 242.49828402445326 0 0
          -6.2775602347632065 -48.171476424008404 0 17.654674016894077 0 0
          -34.98648139108414 24.18497084323593 0 16.565036176633974 0 0
          -80.9231826081053 827.459699779086 0 210.79235467718257 0 0
          34.77495805258266 -864.3223709985397 0 211.47650491406444 0 0
          -35.66502714488297 56.12049953666507 0 35.146730243691096 0 0
          -6.854090941982298 -82.7320388119332 0 35.80148824825103 0 0
          -29.533974067046287 582.2521812692038 0 175.4863307268499 0 0
          -15.033551950045968 -615.0458631615462 0 176.0890505299733 0 0
          -7.182285637340151 -147.22653893854948 0 63.462314524185444 0 0
          -36.305770228624695 118.36256224122786 0 63.05450829202648 0 0
          -4.273074728060408 -407.97688796430555 0 136.8992478155194 0 0
          -39.454045341728026 376.3848110225906 0 136.98202087477776 0 0
          -36.22870893501455 221.85202332453102 0 98.11234993410423 0 0
          -8.450209251355325 -253.53133714818034 0 98.48140146111339 0 0
          <InformationKey name="L2_NORM_RANGE" location="vtkDataArray" length="2">
            <Value index="0">
              18.064502413
            </Value>
            <Value index="1">
              1254.0764866
            </Value>
          </InformationKey>
        </DataArray>
        <DataArray type="Float64" Name="Strain" NumberOfComponents="6" format="ascii" RangeMin="0.00016028143521953632" RangeMax="0.0059902192806198925">
          0.000016531831131467653 -0.00005840122440785108 0 0.0001483446460885558 0 0
          -0.00013510825752855588 0.00003607895242113241 0 0.00012716200051278263 0 0
          -0.00016941584222690366 0.00010413119689796924 0 0.000105051510761121 0 0
          0.00003556587415604398 -0.00012753284971075475 0 0.0001261060441597392 0 0
          0.0011917562942515706 -0.0049851099369369765 0 0.0031001811046573197 0 0
          -0.001260261903911462 0.0048848819520683215 0 0.003152477692317892 0 0
          0.00006537147995864384 -0.00020693897527145 0 0.00022951076221962297 0 0
          -0.00020634918347374288 0.00017826525604933756 0 0.00021534547029624165 0 0
          -0.001981746895436097 0.003922741840080647 0 0.0027403006108033725 0 0
          0.001843654682586403 -0.004000477956245891 0 0.0027491945638828375 0 0
          -0.0002717108476057144 0.00032489507582434795 0 0.0004569074931679842 0 0
          0.0001301413618972503 -0.00036306529925743056 0 0.00046541934722726334 0 0
          -0.0012697713354800082 0.0027068386742056185 0 0.0022813222994490486 0 0
          0.0011309367717923062 -0.002769143251082446 0 0.002289157656889653 0 0
          0.00025441235128027383 -0.0006558752951775868 0 0.0008250100888144107 0 0
          -0.0003959982509106367 0.0006093459101434048 0 0.0008197086077963442 0 0
          0.000776112441517721 -0.0018479623445178722 0 0.001779690221601752 0 0
          -0.0009134662877989144 0.0017894862785691572 0 0.001780766271372111 0 0
          -0.0005974520711371518 0.0010800726885498947 0 0.0012754605491433549 0 0
          0.000455937655345285 -0.0011370896759840777 0 0.0012802582189944739 0 0
          <InformationKey name="L2_NORM_RANGE" location="vtkDataArray" length="2">
            <Value index="0">
              0.00016028143522
            </Value>
            <Value index="1">
              0.0059902192806
            </Value>
          </InformationKey>
        </DataArray>
        <DataArray type="Float64" Name="Btraction" NumberOfComponents="3" format="ascii" RangeMin="0.28728320521510975" RangeMax="24.075745424503822">
          7.687852405856577 -3.5062244071211843 0 19.334338800623275 1.322768526868787 0
          23.86099566794031 3.208489283144099 0 4.622026186077818 -1.4439155143795928 0
          0.27370455432212054 0.08727804387127512 0 16.9116519656176 -5.483434473939087 0
          3.0901472372270202 -0.8270660669397937 0 23.660615380739195 2.170837721220133 0
          22.57178213518318 0.08656463161816379 0 0.4682424848400786 0.004155427255699359 0
          23.438594991942047 1.545011082021114 0 2.211657390109755 -0.5735525447671133 0
          22.762560183388103 0.23460573928660688 0 0.6840176263794228 -0.03718078626921335 0
          1.6612083365732344 -0.3853288012095501 0 23.336449567234176 1.0914038369842403 0
          0.9375090844996794 -0.12350354202117879 0 22.96771706964239 0.44742031774308716 0
          23.183374283641218 0.7296467383968878 0 1.2595401941454902 -0.23867100272622777 0
          <InformationKey name="L2_NORM_RANGE" location="vtkDataArray" length="2">
            <Value index="0">
              0.28728320522
            </Value>
            <Value index="1">
              24.075745425
            </Value>
          </InformationKey>
        </DataArray>
      </CellData>
      <Points>
        <DataArray type="Float32" Name="Points" NumberOfComponents="3" format="ascii" RangeMin="1.4500000476837158" RangeMax="1.6286497021092299">
          1.4500000476837158 0.5 0 1.4500000476837158 0.44999998807907104 0
          1.4500000476837158 0.4000000059604645 0 1.5 0.5 0
          1.4500000476837158 0.3499999940395355 0 1.5002609491348267 0.45016080141067505 0
          1.4500000476837158 0.30000001192092896 0 1.5001590251922607 0.4000298082828522 0
          1.5499999523162842 0.5 0 1.4500000476837158 0.25 0
          1.5005459785461426 0.35020819306373596 0 1.5499999523162842 0.44999998807907104 0
          1.5002089738845825 0.30000561475753784 0 1.4500000476837158 0.20000000298023224 0
          1.5499999523162842 0.4000000059604645 0 1.5002909898757935 0.24981409311294556 0
          1.5499999523162842 0.3499999940395355 0 1.4500000476837158 0.15000000596046448 0
          1.5001939535140991 0.19956040382385254 0 1.5499999523162842 0.30000001192092896 0
          1.4500000476837158 0.10000000149011612 0 1.5499999523162842 0.25 0
          1.499879002571106 0.15004639327526093 0 1.4500000476837158 0.05000000074505806 0
          1.5499999523162842 0.20000000298023224 0 1.5001660585403442 0.10008130222558975 0
          1.4500000476837158 0 0 1.5499999523162842 0.15000000596046448 0
          1.5000410079956055 0.050020311027765274 0 1.5499999523162842 0.10000000149011612 0
          1.5 0 0 1.5499999523162842 0.05000000074505806 0
          1.5499999523162842 0 0
          <InformationKey name="L2_NORM_RANGE" location="vtkDataArray" length="2">
            <Value index="0">
              1.4500000477
            </Value>
            <Value index="1">
              1.6286497021
            </Value>
          </InformationKey>
        </DataArray>
      </Points>
      <Cells>
        <DataArray type="Int64" Name="connectivity" format="ascii" RangeMin="0" RangeMax="32">
          11 8 3 5 3 0
          1 5 1 2 7 5
          11 5 7 14 32 31
          28 30 26 30 28 23
          16 14 7 10 7 2
          4 10 20 23 28 25
          28 31 29 25 4 6
          12 10 16 10 12 19
          17 20 25 22 25 29
          27 22 21 19 12 15
          12 6 9 15 27 24
          18 22 17 22 18 13
          9 13 18 15 15 18
          24 21
        </DataArray>
        <DataArray type="Int64" Name="offsets" format="ascii" RangeMin="4" RangeMax="80">
          4 8 12 16 20 24
          28 32 36 40 44 48
          52 56 60 64 68 72
          76 80
        </DataArray>
        <DataArray type="UInt8" Name="types" format="ascii" RangeMin="9" RangeMax="9">
          9 9 9 9 9 9
          9 9 9 9 9 9
          9 9 9 9 9 9
          9 9
        </DataArray>
      </Cells>
    </Piece>
  </UnstructuredGrid>
</VTKFile>
