<?xml version="1.0"?>
<VTKFile type="UnstructuredGrid" version="0.1" byte_order="LittleEndian" header_type="UInt32" compressor="vtkZLibDataCompressor">
  <UnstructuredGrid>
    <Piece NumberOfPoints="33" NumberOfCells="20">
      <PointData>
        <DataArray type="Float64" Name="sld_BC" NumberOfComponents="3" format="ascii" RangeMin="0" RangeMax="0">
          0 0 0 0 0 0
          0 0 0 0 0 0
          0 0 0 0 0 0
          0 0 0 0 0 0
          0 0 0 0 0 0
          0 0 0 0 0 0
          0 0 0 0 0 0
          0 0 0 0 0 0
          0 0 0 0 0 0
          0 0 0 0 0 0
          0 0 0 0 0 0
          0 0 0 0 0 0
          0 0 0 0 0 0
          0 0 0 0 0 0
          0 0 0 0 0 0
          0 0 0 0 0 0
          0 0 0
          <InformationKey name="L2_NORM_RANGE" location="vtkDataArray" length="2">
            <Value index="0">
              0
            </Value>
            <Value index="1">
              0
            </Value>
          </InformationKey>
        </DataArray>
        <DataArray type="Float64" Name="sld_FIXNO" NumberOfComponents="3" format="ascii" RangeMin="1.4142135623730951" RangeMax="1.4142135623730951">
          -1 -1 0 -1 -1 0
          -1 -1 0 -1 -1 0
          -1 -1 0 -1 -1 0
          -1 -1 0 -1 -1 0
          -1 -1 0 -1 -1 0
          -1 -1 0 -1 -1 0
          -1 -1 0 -1 -1 0
          -1 -1 0 -1 -1 0
          -1 -1 0 -1 -1 0
          -1 -1 0 -1 -1 0
          -1 -1 0 -1 -1 0
          -1 -1 0 -1 -1 0
          -1 -1 0 -1 -1 0
          1 1 0 -1 -1 0
          -1 -1 0 -1 -1 0
          1 1 0 -1 -1 0
          1 1 0
          <InformationKey name="L2_NORM_RANGE" location="vtkDataArray" length="2">
            <Value index="0">
              1.4142135624
            </Value>
            <Value index="1">
              1.4142135624
            </Value>
          </InformationKey>
        </DataArray>
        <DataArray type="Float64" Name="Disp" NumberOfComponents="3" format="ascii" RangeMin="0" RangeMax="0.0008816700353646966">
          -0.000840931224444878 -0.0002583837877544589 0 -0.0005868470548149443 -0.00025756820149860265 0
          -0.0003251027964571168 -0.000246818346551783 0 -0.0008457660722322897 -0.000006460117955903565 0
          -0.0000807014133621526 -0.00021511719779017 0 -0.0005922498206322797 -0.00000553041398393384 0
          0.00011694752446207815 -0.0001617628040777055 0 -0.000326357377997495 -0.000006602899911016079 0
          -0.0008465417368428381 0.000246392246312859 0 0.00024345065038134037 -0.00009482900054351072 0
          -0.00007759875061317575 -0.0000055870611998243805 0 -0.0005931027402559956 0.0002452255102994221 0
          0.00012494879095520484 -0.000007275955371500566 0 0.00028999989498065294 -0.00002727465211581398 0
          -0.00033206825833173836 0.0002333875730680278 0 0.0002535237216243065 -0.000007152269066752699 0
          -0.00008735481424007188 0.000200642233114249 0 0.0002639080256470176 0.00002742294458178514 0
          0.0002986189142042231 -0.000006901587879590969 0 0.00011023053143446919 0.0001467575809796204 0
          0.00018520795464352217 0.000056789812019127606 0 0.00023709028840981195 0.0000801453960518907 0
          0.000268330155933958 -0.000005839424939589355 0 0.00009011859916079718 0.000048849360706209834 0
          0.00028392769661493057 0.000013724971258345388 0 0.00018390748358066854 -0.000004506406798933945 0
          0 0 0 0.00025815642806343507 -0.0000388210446225629 0
          0.00007569640910121092 -0.000002744284019687385 0 0.00017992332371142203 -0.00006524912163449804 0
          0 0 0 0.00008475223654262497 -0.000053232193728436757 0
          0 0 0
          <InformationKey name="L2_NORM_RANGE" location="vtkDataArray" length="2">
            <Value index="0">
              0
            </Value>
            <Value index="1">
              0.00088167003536
            </Value>
          </InformationKey>
        </DataArray>
        <DataArray type="Float64" Name="Sld_traction" NumberOfComponents="3" format="ascii" RangeMin="0" RangeMax="189.88423942537645">
          11.979827059380481 -4.728811902366317 0 34.99579664007255 13.61718821657738 0
          53.347428927397026 26.286376293475584 0 -2.7153263991058387 -4.761515537646029 0
          77.65178306415956 26.41119405022822 0 0 0 0
          97.99325020003592 16.03386265378039 0 0 0 0
          -2.2290881162002307 0.9029140814275229 0 105.75605185957022 -0.5366422062779465 0
          0 0 0 2.9576614205235554 -10.627563929190124 0
          0 0 0 97.79168238541789 -18.334789400297762 0
          19.060063951636504 -23.92181485087979 0 0 0 0
          42.635520237558005 -24.804656379918306 0 74.73354787912162 -35.895632063880406 0
          0 0 0 61.803343448702094 -14.98303168430636 0
          38.94198711464822 -49.25856121022453 0 69.07477725658114 1.0128359279903212 0
          0 0 0 -12.363688655502768 -73.9071706850647 0
          60.94691865970611 18.457368232546546 0 0 0 0
          -109.00004253583064 -141.29728890933325 0 38.05281575729328 35.84080657235632 0
          0 0 0 1.9162497474705689 49.52998969119794 0
          -122.44316362753572 13.784499369181061 0 -46.051893906261455 70.94223665697754 0
          -116.12552966087509 150.2360999997501 0
          <InformationKey name="L2_NORM_RANGE" location="vtkDataArray" length="2">
            <Value index="0">
              0
            </Value>
            <Value index="1">
              189.88423943
            </Value>
          </InformationKey>
        </DataArray>
        <DataArray type="Float64" Name="Fld_traction" NumberOfComponents="3" format="ascii" RangeMin="0" RangeMax="38.70417975721706">
          24.615303761006786 -0.4828637524366149 0 38.25180030000755 5.900280034652016 0
          37.55238387711967 3.4045854671681837 0 14.883997378565613 -3.796480183333295 0
          36.49561731987084 2.0628820118663524 0 0 0 0
          35.99825018841936 1.2648804954775668 0 0 0 0
          12.173270737407144 -1.5602505259349737 0 35.5456926616875 0.7053483664691821 0
          0 0 0 9.604258395456135 -0.7913462086294486 0
          0 0 0 35.05187787154372 0.3456607069073785 0
          5.995556907697888 0.589217308000559 0 0 0 0
          3.886666179785444 0.8641898936689273 0 34.64279856488888 0.1449320316113575 0
          0 0 0 2.4724515592554415 0.9157548335699698 0
          34.422283075090014 0.03675002519647575 0 1.5705948641331569 0.8342943703546135 0
          0 0 0 34.251573344920025 -0.0007420985605830034 0
          0.8864426028320157 0.6754775295463094 0 0 0 0
          17.368209780735903 -16.825518599940782 0 0.46600232257782165 0.4537688748663197 0
          0 0 0 0.2929574919832976 0.2411939921870855 0
          0 0 0 0.32545750935770196 0.0614939209711665 0
          0.21233921977964149 0.21561823953458417 0
          <InformationKey name="L2_NORM_RANGE" location="vtkDataArray" length="2">
            <Value index="0">
              0
            </Value>
            <Value index="1">
              38.704179757
            </Value>
          </InformationKey>
        </DataArray>
        <DataArray type="Float64" Name="Velocity" NumberOfComponents="3" format="ascii" RangeMin="0" RangeMax="0.10956581509771306">
          0.10798546275165138 0.01854205145980236 0 0.08994767156799055 0.018399166936304962 0
          0.07188486224174659 0.017938107326613294 0 0.10781734090713585 0.000622051456086637 0
          0.05446576095623207 0.01664447020085521 0 0.08975879971594902 0.0004966712775204272 0
          0.03865877609796598 0.01454321688028625 0 0.07146594739567053 0.0005677062529449548 0
          0.10764798190397702 -0.01736970111989807 0 0.02553533945282817 0.011896886743382882 0
          0.05391066612001505 0.00037212935099076696 0 0.08952318807797924 -0.017288408128271943 0
          0.037916399613837554 0.00042112989873027066 0 0.015586099061532492 0.009142877755124755 0
          0.07134982342429225 -0.01673343973699079 0 0.02468870549411055 0.00040607700950388956 0
          0.05388939392259907 -0.015544049570467493 0 0.00849269174951458 0.006579403935153301 0
          0.014729978462118092 0.0004559808296952148 0 0.038150058823436694 -0.013555723937128311 0
          0.0037991318748254047 0.004197020456013169 0 0.02506513654514952 -0.010941141159842328 0
          0.007759611156323689 0.0005014984872765438 0 0.0012536246923748418 0.0019539852644053566 0
          0.015117954812730351 -0.008171237384751406 0 0.0030385088962554185 0.0003645148898351355 0
          0 0 0 0.007988703231057805 -0.005654408075773948 0
          0.00048361624684748286 0.00011427438309774473 0 0.003130060511357664 -0.003465218944203826 0
          0 0 0 0.0006011876770435245 -0.0015361031944646046 0
          0 0 0
          <InformationKey name="L2_NORM_RANGE" location="vtkDataArray" length="2">
            <Value index="0">
              0
            </Value>
            <Value index="1">
              0.1095658151
            </Value>
          </InformationKey>
        </DataArray>
      </PointData>
      <CellData>
        <DataArray type="UInt8" Name="vtkGhostType" format="ascii" RangeMin="0" RangeMax="0">
          0 0 0 0 0 0
          0 0 0 0 0 0
          0 0 0 0 0 0
          0 0
        </DataArray>
        <DataArray type="Float64" Name="Stress" NumberOfComponents="6" format="ascii" RangeMin="5.455257416635406" RangeMax="168.49032771225572">
          -4.805774832031863 1.3623161559033212 0 -2.1928192896199903 0 0
          -25.79636587703032 -12.008170740642438 0 -4.454916840155836 0 0
          -26.886293346036375 -33.87214300179763 0 -28.253280762062577 0 0
          -6.150664400488127 24.608861553720715 0 -25.680140568437515 0 0
          -40.07300375651157 -140.1363854134348 0 84.52773737520248 0 0
          14.317417395727118 107.49943223332629 0 87.85647469906975 0 0
          -6.480927947860982 70.8695407261246 0 -34.61202025767385 0 0
          -27.731076943905006 -80.07020381429334 0 -36.40095362405483 0 0
          -35.52293047917687 -1.3400713136083624 0 69.6420281582016 0 0
          -1.5055140235478 -30.60896552238763 0 70.59183545288298 0 0
          -28.97206120983362 -128.48790381570774 0 -29.29440374618077 0 0
          -6.070756757215223 116.68587077678151 0 -27.733798998561227 0 0
          -27.88972398231929 -80.03751429967234 0 52.87596639786611 0 0
          -8.907471438710157 50.75687227478234 0 53.008919362057476 0 0
          -6.199690192162571 143.7215243666626 0 -9.66619261342307 0 0
          -29.859087224268293 -159.5546709870388 0 -10.552345819649696 0 0
          -7.965207513534038 110.18511910839456 0 33.777040031174266 0 0
          -28.832226124587372 -135.22104587567244 0 33.43495640647207 0 0
          -29.67548161079072 -161.7155879881612 0 12.041063575981633 0 0
          -6.555281508527827 142.144298745608 0 12.60424656918481 0 0
          <InformationKey name="L2_NORM_RANGE" location="vtkDataArray" length="2">
            <Value index="0">
              5.4552574166
            </Value>
            <Value index="1">
              168.49032771
            </Value>
          </InformationKey>
        </DataArray>
        <DataArray type="Float64" Name="Strain" NumberOfComponents="6" format="ascii" RangeMin="0.00004069908007757822" RangeMax="0.0012401828320981081">
          -0.000024522791989756458 0.00001556979943182225 0 -0.00002850665076505987 0 0
          -0.00009395753179623518 -0.000004334263409713973 0 -0.00005791391892202586 0 0
          -0.000056281955870960115 -0.00010168997863340831 0 -0.00036729264990681344 0 0
          -0.00007597280305197637 0.0001239641156503811 0 -0.00033384182738968766 0 0
          0.00009093378446407018 -0.0005594781963059306 0 0.0010988605858776321 0 0
          -0.00014447964370442785 0.0004612034527399667 0 0.0011421341710879066 0 0
          -0.00016768382657871044 0.00033509421980219584 0 -0.00044995626334976 0 0
          0.000029960497343104272 -0.00031024382731441996 0 -0.0004732123971127127 0 0
          -0.00015901619461871844 0.00006317238995747684 0 0.0009053463660566206 0 0
          0.00005283739396151339 -0.0001363350407809455 0 0.0009176938608874783 0 0
          0.00011872853393588722 -0.0005281244430022947 0 -0.0003808272487003499 0 0
          -0.00025515939126005325 0.0005427586877109257 0 -0.00036053938698129586 0 0
          0.00002917490876480833 -0.0003097857282979865 0 0.0006873875631722593 0 0
          -0.0001395048959819568 0.00024831333815574446 0 0.000689115951706747 0 0
          -0.0003084655628893318 0.0006660223317430318 0 -0.00012566050397449992 0 0
          0.00017527276155430497 -0.0006677485329037034 0 -0.000137180495655446 0 0
          -0.00025110267644794926 0.0005168744465945866 0 0.0004391015204052654 0 0
          0.0001324944105906887 -0.0005590329177913641 0 0.00043465443328413684 0 0
          0.00018032195524781666 -0.0006779387362050917 0 0.0001565338264877612 0 0
          -0.0003070079134177372 0.0006595393582341456 0 0.00016385520539940253 0 0
          <InformationKey name="L2_NORM_RANGE" location="vtkDataArray" length="2">
            <Value index="0">
              4.0699080078e-05
            </Value>
            <Value index="1">
              0.0012401828321
            </Value>
          </InformationKey>
        </DataArray>
        <DataArray type="Float64" Name="Btraction" NumberOfComponents="3" format="ascii" RangeMin="0.15124823787630345" RangeMax="19.093282295035714">
          6.764317028993188 -1.339182677317067 0 15.716776015253583 1.35435407055385 0
          18.951046044281803 2.326216375455049 0 3.899953825788506 -0.050532225157222416 0
          0.13444918228433586 0.06927804012643765 0 12.904945781413984 -4.206565174625341 0
          2.4705557718708326 0.3633518004173716 0 18.512000299247624 1.366866869758634 0
          17.168464105002506 0.009001981658973184 0 0.1546037503352499 0.075671978289563 0
          18.12346687707255 0.8319406268359797 0 1.5897794347602212 0.44498618180972416 0
          17.26627040999472 0.04542051420195831 0 0.1897399536402798 0.17374071676335126 0
          1.0107616058471496 0.43751230098114574 0 17.88598571252671 0.49255721548668724 0
          0.33811123135245935 0.28231160110315723 0 17.423669109108147 0.12264818462968399 0
          17.649392633307798 0.2627522683441401 0 0.6142593667412931 0.37744297497523066 0
          <InformationKey name="L2_NORM_RANGE" location="vtkDataArray" length="2">
            <Value index="0">
              0.15124823788
            </Value>
            <Value index="1">
              19.093282295
            </Value>
          </InformationKey>
        </DataArray>
      </CellData>
      <Points>
        <DataArray type="Float32" Name="Points" NumberOfComponents="3" format="ascii" RangeMin="1.4500000476837158" RangeMax="1.6286497021092299">
          1.4500000476837158 0.5 0 1.4500000476837158 0.44999998807907104 0
          1.4500000476837158 0.4000000059604645 0 1.5 0.5 0
          1.4500000476837158 0.3499999940395355 0 1.5002609491348267 0.45016080141067505 0
          1.4500000476837158 0.30000001192092896 0 1.5001590251922607 0.4000298082828522 0
          1.5499999523162842 0.5 0 1.4500000476837158 0.25 0
          1.5005459785461426 0.35020819306373596 0 1.5499999523162842 0.44999998807907104 0
          1.5002089738845825 0.30000561475753784 0 1.4500000476837158 0.20000000298023224 0
          1.5499999523162842 0.4000000059604645 0 1.5002909898757935 0.24981409311294556 0
          1.5499999523162842 0.3499999940395355 0 1.4500000476837158 0.15000000596046448 0
          1.5001939535140991 0.19956040382385254 0 1.5499999523162842 0.30000001192092896 0
          1.4500000476837158 0.10000000149011612 0 1.5499999523162842 0.25 0
          1.499879002571106 0.15004639327526093 0 1.4500000476837158 0.05000000074505806 0
          1.5499999523162842 0.20000000298023224 0 1.5001660585403442 0.10008130222558975 0
          1.4500000476837158 0 0 1.5499999523162842 0.15000000596046448 0
          1.5000410079956055 0.050020311027765274 0 1.5499999523162842 0.10000000149011612 0
          1.5 0 0 1.5499999523162842 0.05000000074505806 0
          1.5499999523162842 0 0
          <InformationKey name="L2_NORM_RANGE" location="vtkDataArray" length="2">
            <Value index="0">
              1.4500000477
            </Value>
            <Value index="1">
              1.6286497021
            </Value>
          </InformationKey>
        </DataArray>
      </Points>
      <Cells>
        <DataArray type="Int64" Name="connectivity" format="ascii" RangeMin="0" RangeMax="32">
          11 8 3 5 3 0
          1 5 1 2 7 5
          11 5 7 14 32 31
          28 30 26 30 28 23
          16 14 7 10 7 2
          4 10 20 23 28 25
          28 31 29 25 4 6
          12 10 16 10 12 19
          17 20 25 22 25 29
          27 22 21 19 12 15
          12 6 9 15 27 24
          18 22 17 22 18 13
          9 13 18 15 15 18
          24 21
        </DataArray>
        <DataArray type="Int64" Name="offsets" format="ascii" RangeMin="4" RangeMax="80">
          4 8 12 16 20 24
          28 32 36 40 44 48
          52 56 60 64 68 72
          76 80
        </DataArray>
        <DataArray type="UInt8" Name="types" format="ascii" RangeMin="9" RangeMax="9">
          9 9 9 9 9 9
          9 9 9 9 9 9
          9 9 9 9 9 9
          9 9
        </DataArray>
      </Cells>
    </Piece>
  </UnstructuredGrid>
</VTKFile>
