<?xml version="1.0"?>
<VTKFile type="UnstructuredGrid" version="0.1" byte_order="LittleEndian" header_type="UInt32" compressor="vtkZLibDataCompressor">
  <UnstructuredGrid>
    <Piece NumberOfPoints="33" NumberOfCells="20">
      <PointData>
        <DataArray type="Float64" Name="sld_BC" NumberOfComponents="3" format="ascii" RangeMin="0" RangeMax="0">
          0 0 0 0 0 0
          0 0 0 0 0 0
          0 0 0 0 0 0
          0 0 0 0 0 0
          0 0 0 0 0 0
          0 0 0 0 0 0
          0 0 0 0 0 0
          0 0 0 0 0 0
          0 0 0 0 0 0
          0 0 0 0 0 0
          0 0 0 0 0 0
          0 0 0 0 0 0
          0 0 0 0 0 0
          0 0 0 0 0 0
          0 0 0 0 0 0
          0 0 0 0 0 0
          0 0 0
          <InformationKey name="L2_NORM_RANGE" location="vtkDataArray" length="2">
            <Value index="0">
              0
            </Value>
            <Value index="1">
              0
            </Value>
          </InformationKey>
        </DataArray>
        <DataArray type="Float64" Name="sld_FIXNO" NumberOfComponents="3" format="ascii" RangeMin="1.4142135623730951" RangeMax="1.4142135623730951">
          -1 -1 0 -1 -1 0
          -1 -1 0 -1 -1 0
          -1 -1 0 -1 -1 0
          -1 -1 0 -1 -1 0
          -1 -1 0 -1 -1 0
          -1 -1 0 -1 -1 0
          -1 -1 0 -1 -1 0
          -1 -1 0 -1 -1 0
          -1 -1 0 -1 -1 0
          -1 -1 0 -1 -1 0
          -1 -1 0 -1 -1 0
          -1 -1 0 -1 -1 0
          -1 -1 0 -1 -1 0
          1 1 0 -1 -1 0
          -1 -1 0 -1 -1 0
          1 1 0 -1 -1 0
          1 1 0
          <InformationKey name="L2_NORM_RANGE" location="vtkDataArray" length="2">
            <Value index="0">
              1.4142135624
            </Value>
            <Value index="1">
              1.4142135624
            </Value>
          </InformationKey>
        </DataArray>
        <DataArray type="Float64" Name="Disp" NumberOfComponents="3" format="ascii" RangeMin="0" RangeMax="0.03891165442153186">
          0.03857529060830695 0.005105272206786355 0 0.033491799731163695 0.0050896856508958425 0
          0.02841455398896483 0.005031723883052704 0 0.03856849232877733 0.000036927079771451564 0
          0.023401211280027763 0.0049045855983877095 0 0.03349556003642722 0.000009633874469073319 0
          0.018532011405655448 0.004683724077872472 0 0.02839265398242842 0.000018252287220765252 0
          0.03856921605539382 -0.005030966019899237 0 0.013913698114963088 0.004343250753673761 0
          0.023378833857726777 -0.00002208726934900399 0 0.0334844522783218 -0.005017067072851469 0
          0.018467123693938943 0.000007567517834233383 0 0.009676370406895205 0.003856561789280997 0
          0.028405788140589826 -0.004963306025054891 0 0.013802805560524736 -0.00000241957475105879 0
          0.023390663455190818 -0.0048428587625249965 0 0.005982310662335419 0.003194629883271415 0
          0.009512606364477056 0.000002757105070462355 0 0.01852160169676732 -0.004629731302866332 0
          0.0030176063947927956 0.0023349993673857333 0 0.013902212776219546 -0.00429843477585449 0
          0.0058156330754381355 0.0000207697356207231 0 0.0010429862503325707 0.001240448196342801 0
          0.009664324436140237 -0.003820776441456752 0 0.002816348598285186 8.992695920069142e-7 0
          0 0 0 0.005972869439646236 -0.0031681153786135515 0
          0.0007263919443918307 0.0000017284743643600087 0 0.0030044769949462194 -0.0023186403732348127 0
          0 0 0 0.0010317330306049667 -0.0012320927098116302 0
          0 0 0
          <InformationKey name="L2_NORM_RANGE" location="vtkDataArray" length="2">
            <Value index="0">
              0
            </Value>
            <Value index="1">
              0.038911654422
            </Value>
          </InformationKey>
        </DataArray>
        <DataArray type="Float64" Name="Sld_traction" NumberOfComponents="3" format="ascii" RangeMin="0" RangeMax="3293.222874522602">
          18.59853095448609 5.492760805911925 0 -11.524523536504086 -51.55947274326905 0
          -74.83906117434077 -90.71668561897532 0 29.91209541763835 -2.488371987023499 0
          -168.19471235769694 -127.26493219795809 0 0 0 0
          -291.97667482482706 -164.52924137025892 0 0 0 0
          4.103161981484298 -6.629612980256286 0 -445.13814676010026 -204.99880727053318 0
          0 0 0 -43.96072711106925 54.40622705607008 0
          0 0 0 -627.3840331131612 -244.90308130831457 0
          -108.58862575100247 93.11924003675759 0 0 0 0
          -203.07390442631765 128.1373968082161 0 -844.4174166101635 -278.6008562897914 0
          0 0 0 -326.0599067273123 165.10641433742077 0
          -1083.2479183177438 -278.6595222535749 0 -480.5260317669537 205.7767601198075 0
          0 0 0 -1373.2385251908845 -453.86973517967033 0
          -664.3582451058802 245.0052920523307 0 0 0 0
          -1867.6997929113284 -2712.3816812605655 0 -879.2193183454594 279.5113801884527 0
          0 0 0 -1123.4362056885213 279.42445934797223 0
          -1276.6615018256489 -13.6017289175568 0 -1403.5139133615412 447.4503459566566 0
          -1862.4227936291802 2686.723707827928 0
          <InformationKey name="L2_NORM_RANGE" location="vtkDataArray" length="2">
            <Value index="0">
              0
            </Value>
            <Value index="1">
              3293.2228745
            </Value>
          </InformationKey>
        </DataArray>
        <DataArray type="Float64" Name="Fld_traction" NumberOfComponents="3" format="ascii" RangeMin="0" RangeMax="38.65152324068286">
          24.57045954273399 -0.4168314184913467 0 38.192162713615545 5.9412924588646545 0
          37.51163891879295 3.4433066509578967 0 14.879069641863484 -3.718544634282797 0
          36.4670134491884 2.097415986787275 0 0 0 0
          35.97929532569962 1.2935653438124535 0 0 0 0
          12.223516760093819 -1.550914283768036 0 35.532682711888874 0.7270985141404155 0
          0 0 0 9.693907653298039 -0.8288671448838927 0
          0 0 0 35.04034316938343 0.36030024094850444 0
          6.068591776791059 0.5596652226965626 0 0 0 0
          3.94461766437861 0.8405856164130308 0 34.628755715114536 0.15352331075879305 0
          0 0 0 2.5159396489566332 0.8979877364015916 0
          34.40595408190688 0.04069295935094693 0 1.6024248343071812 0.8230041585616985 0
          0 0 0 34.23125497025127 0.00014325533956125662 0
          0.9045040266102439 0.670330643227696 0 0 0 0
          17.356648521974442 -16.81415488215559 0 0.4740649689459762 0.45429216479824086 0
          0 0 0 0.28800765774015674 0.2443721851316293 0
          0 0 0 0.3125733129002416 0.06316661431256448 0
          0.2056622859579374 0.20884561731023607 0
          <InformationKey name="L2_NORM_RANGE" location="vtkDataArray" length="2">
            <Value index="0">
              0
            </Value>
            <Value index="1">
              38.651523241
            </Value>
          </InformationKey>
        </DataArray>
        <DataArray type="Float64" Name="Velocity" NumberOfComponents="3" format="ascii" RangeMin="0" RangeMax="0.11381128768383673">
          -0.11215191698393347 -0.017549031954609672 0 -0.09304844973270139 -0.017537177444230164 0
          -0.07390456498691306 -0.016941129440063582 0 -0.11202221522208144 0.001417987820245689 0
          -0.05548851161852689 -0.01565421541263659 0 -0.09287816790797965 0.0014221378367948391 0
          -0.038818896164928965 -0.013650582229209843 0 -0.07354418897690063 0.0014017184609161513 0
          -0.11197109731575912 0.020383389564982764 0 -0.024866098524545556 -0.01109962733668466 0
          -0.05504757835888419 0.0015075507739214474 0 -0.09283592342243707 0.02018009635904984 0
          -0.03818344299478703 0.001277774610717669 0 -0.01414839466423526 -0.008342667465124487 0
          -0.07369604675032328 0.019604977510327967 0 -0.024104238001493375 0.0011060457917900965 0
          -0.05535087274714606 0.018266942065039333 0 -0.006625851046756305 -0.005687540124055448 0
          -0.013346472453272433 0.0008509590027452482 0 -0.03876365686871898 0.016052734479445586 0
          -0.001989624110301572 -0.0032908166639334414 0 -0.024852827568217023 0.01315703908111253 0
          -0.005953855101774007 0.0005629725988194274 0 -0.00011042087103636106 -0.0012688247137322 0
          -0.014156762148644697 0.009966306155833663 0 -0.001392670106605002 0.0003481912241678469 0
          0 0 0 -0.006650411396611898 0.006845121515248395 0
          0.000499948993803633 0.0001413243999850497 0 -0.002001124284355414 0.003998419187583556 0
          0 0 0 -0.000011319655663447124 0.0015865354537952263 0
          0 0 0
          <InformationKey name="L2_NORM_RANGE" location="vtkDataArray" length="2">
            <Value index="0">
              0
            </Value>
            <Value index="1">
              0.11381128768
            </Value>
          </InformationKey>
        </DataArray>
      </PointData>
      <CellData>
        <DataArray type="UInt8" Name="vtkGhostType" format="ascii" RangeMin="0" RangeMax="0">
          0 0 0 0 0 0
          0 0 0 0 0 0
          0 0 0 0 0 0
          0 0
        </DataArray>
        <DataArray type="Float64" Name="Stress" NumberOfComponents="6" format="ascii" RangeMin="49.60557609096047" RangeMax="3063.1385423138986">
          1.1017838622263678 -28.175314427257618 0 40.812386705045505 0 0
          -33.05461295749882 22.05336639795674 0 39.01217287110619 0 0
          -31.89537147761841 117.19285519940975 0 88.81848010790951 0 0
          -2.2293950660691326 -115.42545925734998 0 90.48708810756392 0 0
          -595.3917591226304 -2957.787319580649 0 402.2441203542073 0 0
          580.8015871164068 2979.71894274648 0 408.3653609817758 0 0
          -4.091493932801136 -262.08443495222593 0 134.6300135754158 0 0
          -32.87844346828938 270.3794565410695 0 133.69977283667632 0 0
          -135.94195433419497 2354.3356671421684 0 382.0210225075857 0 0
          93.3055226137817 -2339.1017893424714 0 382.5295120031006 0 0
          -31.687537093337717 476.57717968987436 0 177.2127892161746 0 0
          -6.329511376080859 -465.0941647849599 0 176.89577142004842 0 0
          -13.751893258614444 1892.7827028459362 0 351.99549492378617 0 0
          -24.839494283443713 -1869.1430196892677 0 353.54663898408916 0 0
          -7.553640375685646 -724.678376381698 0 221.953973757685 0 0
          -30.754317390546916 739.9164150843302 0 221.78682944950108 0 0
          2.8735433051796235 -1428.8121501688584 0 313.86177511233035 0 0
          -39.52009518500833 1451.6660290911323 0 314.5567978674418 0 0
          -29.599491861088097 1061.1495945050572 0 268.7929764422685 0 0
          -11.640695929874028 -1047.0236264633759 0 269.2240501044504 0 0
          <InformationKey name="L2_NORM_RANGE" location="vtkDataArray" length="2">
            <Value index="0">
              49.605576091
            </Value>
            <Value index="1">
              3063.1385423
            </Value>
          </InformationKey>
        </DataArray>
        <DataArray type="Float64" Name="Strain" NumberOfComponents="6" format="ascii" RangeMin="0.000549617798429379" RangeMax="0.013878125366979346">
          0.00005995497970628233 -0.00013034615917536358 0 0.0005305610271655915 0 0
          -0.0001934025534326353 0.0001647993123778259 0 0.0005071582473243803 0 0
          -0.0003736500078620128 0.0005954234655386702 0 0.0011546402414028233 0 0
          0.00021493589800121796 -0.0005208385192421077 0 0.001176332145398331 0 0
          0.003058652769174298 -0.012296918373802824 0 0.0052291735646046965 0 0
          -0.003167804716975984 0.012425158094619488 0 0.0053087496927630845 0 0
          0.0004924483507625955 -0.0011845057658636659 0 0.0017501901764804054 0 0
          -0.0006768368580358022 0.0012943394920250303 0 0.0017380970468767916 0 0
          -0.005209490443147816 0.010977314096448549 0 0.004966273292598614 0 0
          0.0049857886171105256 -0.010824858910605117 0 0.004972883656040308 0 0
          -0.0010735037941699416 0.002230216864920937 0 0.0023037662598102693 0 0
          0.000878134344569504 -0.00210383590258821 0 0.002299645028460629 0 0
          -0.003753497384876271 0.008638977489803306 0 0.004575941434009218 0 0
          0.003531809189404403 -0.008456163725733453 0 0.0045961063067931586 0 0
          0.0013787537702349417 -0.003282557013804139 0 0.0028854016588499044 0 0
          -0.0015827691535414325 0.003426590607545269 0 0.002883228782843514 0 0
          0.0027992583148678417 -0.006506698692713407 0 0.004080203076460294 0 0
          -0.0030105651898194967 0.006682144617975418 0 0.004089238372276742 0 0
          -0.0022039193972528126 0.0048859496641271314 0 0.0034943086937494904 0 0
          0.0019887309051226567 -0.0047412581433451065 0 0.0034999126513578535 0 0
          <InformationKey name="L2_NORM_RANGE" location="vtkDataArray" length="2">
            <Value index="0">
              0.00054961779843
            </Value>
            <Value index="1">
              0.013878125367
            </Value>
          </InformationKey>
        </DataArray>
        <DataArray type="Float64" Name="Btraction" NumberOfComponents="3" format="ascii" RangeMin="0.146321305283166" RangeMax="19.07081586162994">
          6.775646600489326 -1.317364729512708 0 15.690655564087384 1.381115260093327 0
          18.925950408102125 2.3461497774556377 0 3.940624857522274 -0.06730048054683252 0
          0.12955889971454473 0.06800305790570013 0 12.896975873056428 -4.203502906704007 0
          2.503302360292417 0.35006270977739834 0 18.494663091995335 1.3851806594362928 0
          17.159302263039535 0.010209053672627045 0 0.15014524266009957 0.07688469986104844 0
          18.111577193722002 0.847745332649932 0 1.6151393283338107 0.4346433382036555 0
          17.25867744925535 0.04855406752743499 0 0.19051815667153324 0.17466608748246754 0
          1.0295911208159536 0.43024797374082246 0 17.877994509397126 0.5051659644882172 0
          0.34464224888905504 0.28115570200648415 0 17.417274721124492 0.12845588792682439 0
          17.64325647031808 0.27184968877223004 0 0.6267322152293563 0.3733337004473486 0
          <InformationKey name="L2_NORM_RANGE" location="vtkDataArray" length="2">
            <Value index="0">
              0.14632130528
            </Value>
            <Value index="1">
              19.070815862
            </Value>
          </InformationKey>
        </DataArray>
      </CellData>
      <Points>
        <DataArray type="Float32" Name="Points" NumberOfComponents="3" format="ascii" RangeMin="1.4500000476837158" RangeMax="1.6286497021092299">
          1.4500000476837158 0.5 0 1.4500000476837158 0.44999998807907104 0
          1.4500000476837158 0.4000000059604645 0 1.5 0.5 0
          1.4500000476837158 0.3499999940395355 0 1.5002609491348267 0.45016080141067505 0
          1.4500000476837158 0.30000001192092896 0 1.5001590251922607 0.4000298082828522 0
          1.5499999523162842 0.5 0 1.4500000476837158 0.25 0
          1.5005459785461426 0.35020819306373596 0 1.5499999523162842 0.44999998807907104 0
          1.5002089738845825 0.30000561475753784 0 1.4500000476837158 0.20000000298023224 0
          1.5499999523162842 0.4000000059604645 0 1.5002909898757935 0.24981409311294556 0
          1.5499999523162842 0.3499999940395355 0 1.4500000476837158 0.15000000596046448 0
          1.5001939535140991 0.19956040382385254 0 1.5499999523162842 0.30000001192092896 0
          1.4500000476837158 0.10000000149011612 0 1.5499999523162842 0.25 0
          1.499879002571106 0.15004639327526093 0 1.4500000476837158 0.05000000074505806 0
          1.5499999523162842 0.20000000298023224 0 1.5001660585403442 0.10008130222558975 0
          1.4500000476837158 0 0 1.5499999523162842 0.15000000596046448 0
          1.5000410079956055 0.050020311027765274 0 1.5499999523162842 0.10000000149011612 0
          1.5 0 0 1.5499999523162842 0.05000000074505806 0
          1.5499999523162842 0 0
          <InformationKey name="L2_NORM_RANGE" location="vtkDataArray" length="2">
            <Value index="0">
              1.4500000477
            </Value>
            <Value index="1">
              1.6286497021
            </Value>
          </InformationKey>
        </DataArray>
      </Points>
      <Cells>
        <DataArray type="Int64" Name="connectivity" format="ascii" RangeMin="0" RangeMax="32">
          11 8 3 5 3 0
          1 5 1 2 7 5
          11 5 7 14 32 31
          28 30 26 30 28 23
          16 14 7 10 7 2
          4 10 20 23 28 25
          28 31 29 25 4 6
          12 10 16 10 12 19
          17 20 25 22 25 29
          27 22 21 19 12 15
          12 6 9 15 27 24
          18 22 17 22 18 13
          9 13 18 15 15 18
          24 21
        </DataArray>
        <DataArray type="Int64" Name="offsets" format="ascii" RangeMin="4" RangeMax="80">
          4 8 12 16 20 24
          28 32 36 40 44 48
          52 56 60 64 68 72
          76 80
        </DataArray>
        <DataArray type="UInt8" Name="types" format="ascii" RangeMin="9" RangeMax="9">
          9 9 9 9 9 9
          9 9 9 9 9 9
          9 9 9 9 9 9
          9 9
        </DataArray>
      </Cells>
    </Piece>
  </UnstructuredGrid>
</VTKFile>
