<?xml version="1.0"?>
<VTKFile type="UnstructuredGrid" version="0.1" byte_order="LittleEndian" header_type="UInt32" compressor="vtkZLibDataCompressor">
  <UnstructuredGrid>
    <Piece NumberOfPoints="33" NumberOfCells="20">
      <PointData>
        <DataArray type="Float64" Name="sld_BC" NumberOfComponents="3" format="ascii" RangeMin="0" RangeMax="0">
          0 0 0 0 0 0
          0 0 0 0 0 0
          0 0 0 0 0 0
          0 0 0 0 0 0
          0 0 0 0 0 0
          0 0 0 0 0 0
          0 0 0 0 0 0
          0 0 0 0 0 0
          0 0 0 0 0 0
          0 0 0 0 0 0
          0 0 0 0 0 0
          0 0 0 0 0 0
          0 0 0 0 0 0
          0 0 0 0 0 0
          0 0 0 0 0 0
          0 0 0 0 0 0
          0 0 0
          <InformationKey name="L2_NORM_RANGE" location="vtkDataArray" length="2">
            <Value index="0">
              0
            </Value>
            <Value index="1">
              0
            </Value>
          </InformationKey>
        </DataArray>
        <DataArray type="Float64" Name="sld_FIXNO" NumberOfComponents="3" format="ascii" RangeMin="1.4142135623730951" RangeMax="1.4142135623730951">
          -1 -1 0 -1 -1 0
          -1 -1 0 -1 -1 0
          -1 -1 0 -1 -1 0
          -1 -1 0 -1 -1 0
          -1 -1 0 -1 -1 0
          -1 -1 0 -1 -1 0
          -1 -1 0 -1 -1 0
          -1 -1 0 -1 -1 0
          -1 -1 0 -1 -1 0
          -1 -1 0 -1 -1 0
          -1 -1 0 -1 -1 0
          -1 -1 0 -1 -1 0
          -1 -1 0 -1 -1 0
          1 1 0 -1 -1 0
          -1 -1 0 -1 -1 0
          1 1 0 -1 -1 0
          1 1 0
          <InformationKey name="L2_NORM_RANGE" location="vtkDataArray" length="2">
            <Value index="0">
              1.4142135624
            </Value>
            <Value index="1">
              1.4142135624
            </Value>
          </InformationKey>
        </DataArray>
        <DataArray type="Float64" Name="Disp" NumberOfComponents="3" format="ascii" RangeMin="0" RangeMax="0.00549262895318142">
          -0.005440145820530382 -0.0006015325106167842 0 -0.004785896632805927 -0.0006075764069907561 0
          -0.00411792206139073 -0.0006203008644161608 0 -0.005446011127004619 0.00005497069887558598 0
          -0.003433700805498086 -0.0006307648171023916 0 -0.004795928928341628 0.00005731674402309066 0
          -0.002740512248034864 -0.0006286585548914312 0 -0.00412725848735595 0.00005342419447638424 0
          -0.005446295475846539 0.0007119258438210752 0 -0.0020574688566884127 -0.000603923511994101 0
          -0.0034441254757051863 0.00005472863951934844 0 -0.004793522077927875 0.0007160307656459931 0
          -0.002744501162096573 0.0000452139393802039 0 -0.001414273295795912 -0.0005481913091848884 0
          -0.0041274195726438215 0.0007234703218486119 0 -0.002053205229413126 0.00004037899805455355 0
          -0.0034443057854926283 0.0007259872281179363 0 -0.0008495661485354798 -0.00045639424174982534 0
          -0.0013999341988492375 0.00003242979562378762 0 -0.0027520086400546857 0.0007139071859045302 0
          -0.00040428093502631324 -0.00032933652896529226 0 -0.002069686859635305 0.0006776186435798217 0
          -0.0008331789938228587 0.000021948550659355652 0 -0.00012142682358684145 -0.00016975490117253022 0
          -0.001427072387626692 0.0006087550883042171 0 -0.000382379314434108 0.000016404011655616804 0
          0 0 0 -0.0008633087457478208 0.0005024729611012861 0
          -0.00008546378407040722 0.000006482510257547603 0 -0.0004181928767847522 0.00036005220041873627 0
          0 0 0 -0.0001361965764573024 0.00018519543388868407 0
          0 0 0
          <InformationKey name="L2_NORM_RANGE" location="vtkDataArray" length="2">
            <Value index="0">
              0
            </Value>
            <Value index="1">
              0.0054926289532
            </Value>
          </InformationKey>
        </DataArray>
        <DataArray type="Float64" Name="Sld_traction" NumberOfComponents="3" format="ascii" RangeMin="0" RangeMax="474.55402204549915">
          12.89264749191606 2.061373374906562 0 19.843610296673415 -1.8092361787006819 0
          18.970074079313246 7.895799925425038 0 6.298621970349108 -1.4616990252691047 0
          28.669717553582533 19.807433976558578 0 0 0 0
          50.08707357912533 32.27157805745969 0 0 0 0
          -1.60912948507209 -2.181853333656461 0 82.0807791184392 43.088933947931494 0
          0 0 0 -13.046130386742732 5.412526734905585 0
          0 0 0 121.2053595389798 49.34370470634726 0
          -16.013486906931586 -4.649259359684388 0 0 0 0
          -7.375476294662113 -17.39603320790391 0 163.46159166678822 48.51840576448435 0
          0 0 0 13.065372190977746 -30.33613727479945 0
          202.7728059035819 38.33495425070991 0 44.43297318136211 -41.61896915102583 0
          0 0 0 230.66408156412308 41.811994355014384 0
          83.33581644835434 -48.235974974714594 0 0 0 0
          247.70640867244654 347.0503767959254 0 124.70413531356539 -47.678165195871586 0
          0 0 0 161.93583434161638 -36.54647277192144 0
          153.67263323346256 -37.131220103293096 0 200.1617698489089 -49.756253736902885 0
          259.84075189971895 -397.09482934401046 0
          <InformationKey name="L2_NORM_RANGE" location="vtkDataArray" length="2">
            <Value index="0">
              0
            </Value>
            <Value index="1">
              474.55402205
            </Value>
          </InformationKey>
        </DataArray>
        <DataArray type="Float64" Name="Fld_traction" NumberOfComponents="3" format="ascii" RangeMin="0" RangeMax="38.70377090095">
          24.614493177138943 -0.4801047235945995 0 38.251132880420364 5.90192471297696 0
          37.55225448466551 3.4058834242338594 0 14.88400119718957 -3.7931795037251526 0
          36.49569068294267 2.063882859420721 0 0 0 0
          35.998465020499424 1.2656164414959632 0 0 0 0
          12.174776656934593 -1.5595385831403137 0 35.54593692371535 0.7058444139692569 0
          0 0 0 9.606872174568462 -0.7922598622177331 0
          0 0 0 35.052048966990824 0.34596006394636725 0
          5.997704982388804 0.5884923738923086 0 0 0 0
          3.888376898702492 0.8636222630113618 0 34.642845394897684 0.14508926126117916 0
          0 0 0 2.473733585460861 0.9153440266507866 0
          34.422239529893666 0.0368116789629364 0 1.5715249271954301 0.8340555737086882 0
          0 0 0 34.25142858373661 -0.0007314128218167337 0
          0.8869655932334825 0.6753976881393464 0 0 0 0
          17.368113024096044 -16.82542162351327 0 0.4662301410140225 0.45382778972307203 0
          0 0 0 0.29282262808668474 0.24130571842284093 0
          0 0 0 0.3251155955098458 0.06154577744200125 0
          0.21216813018514435 0.21544506535767566 0
          <InformationKey name="L2_NORM_RANGE" location="vtkDataArray" length="2">
            <Value index="0">
              0
            </Value>
            <Value index="1">
              38.703770901
            </Value>
          </InformationKey>
        </DataArray>
        <DataArray type="Float64" Name="Velocity" NumberOfComponents="3" format="ascii" RangeMin="0" RangeMax="0.012812182108129932">
          -0.007523062675372068 -0.0055102055094548505 0 -0.0021824267160998334 -0.005359419072555407 0
          0.0029360909361800733 -0.004685628168708364 0 -0.0076068125200511455 -0.00029234484117321435 0
          0.00721236066777968 -0.0037421386268654934 0 -0.002239543506091693 -0.00029586119655765743 0
          0.010358807493339367 -0.002562956974949622 0 0.0029446012222744886 -0.00021844756419107264 0
          -0.007772257976121456 0.004872212583620171 0 0.012260475135282278 -0.0010989804273950307 0
          0.0072529178541460085 -0.00017611989308788617 0 -0.002475272241896545 0.004666463270633109 0
          0.010492501100893826 -0.00017785035569438477 0 0.012565206240290953 0.0006142358161290648 0
          0.002572063866905363 0.004191525555616316 0 0.012484776413247137 -0.00009519845604506402 0
          0.006819498395995761 0.003325274965688057 0 0.010836847085423266 0.002184766472547909 0
          0.012812162875303922 0.000022199742537004955 0 0.010014901221844959 0.002218331968366877 0
          0.007386074654114885 0.002907982127229011 0 0.011974390002114765 0.0009157252983077145 0
          0.010972787655989896 0.00013113553671537808 0 0.003474350641103314 0.002208822851580056 0
          0.012291297234250882 -0.0005791326314706817 0 0.007238887396823721 0.00011550346216127202 0
          0 0 0 0.010509287009026787 -0.001978091404806475 0
          0.002894756536914776 7.06647915518061e-7 0 0.006915571798251719 -0.002671892229908262 0
          0 0 0 0.003051294502009888 -0.00205285447901254 0
          0 0 0
          <InformationKey name="L2_NORM_RANGE" location="vtkDataArray" length="2">
            <Value index="0">
              0
            </Value>
            <Value index="1">
              0.012812182108
            </Value>
          </InformationKey>
        </DataArray>
      </PointData>
      <CellData>
        <DataArray type="UInt8" Name="vtkGhostType" format="ascii" RangeMin="0" RangeMax="0">
          0 0 0 0 0 0
          0 0 0 0 0 0
          0 0 0 0 0 0
          0 0
        </DataArray>
        <DataArray type="Float64" Name="Stress" NumberOfComponents="6" format="ascii" RangeMin="13.979756016138332" RangeMax="466.02761569110464">
          -3.406674429207568 -8.075669777653605 0 10.89090011185629 0 0
          -28.79781496843907 3.364724864790827 0 8.82595516146738 0 0
          -27.521361160725075 21.703664742804758 0 -1.4505072827760441 0 0
          -6.457517697230594 -13.549872753290291 0 1.0197318821796006 0 0
          84.26709001138498 457.1646107161841 0 -32.88335196522641 0 0
          -91.56631851035374 -398.1951754399845 0 -23.608843855571465 0 0
          -8.136776508043033 -0.3821842315786603 0 -13.741695007670046 0 0
          -27.498547389049374 19.87321265625629 0 -15.539694549995755 0 0
          -16.304926113737807 -337.2163266081041 0 -45.0033497079573 0 0
          -22.70241976558767 394.76518077636786 0 -42.11202341953067 0 0
          -27.27364344713277 -5.422274785805381 0 -31.37720727458385 0 0
          -9.265493580922836 33.42460183275695 0 -29.905985568980377 0 0
          -31.40468542937082 -275.38083538089063 0 -55.608815854278944 0 0
          -7.216719611077046 327.3875343480851 0 -55.24216517568634 0 0
          -9.605500328873669 88.49519361223062 0 -45.07330241950178 0 0
          -27.59529977514064 -53.1630661729889 0 -46.245573712745866 0 0
          -10.901532193237934 245.49329544367004 0 -60.46800788521081 0 0
          -27.304627131042412 -198.29619967753683 0 -61.02281753777757 0 0
          -28.240525471150143 -119.56249450893577 0 -57.31008815563907 0 0
          -9.025272455518675 162.04674705854603 0 -56.569423574165235 0 0
          <InformationKey name="L2_NORM_RANGE" location="vtkDataArray" length="2">
            <Value index="0">
              13.979756016
            </Value>
            <Value index="1">
              466.02761569
            </Value>
          </InformationKey>
        </DataArray>
        <DataArray type="Float64" Name="Strain" NumberOfComponents="6" format="ascii" RangeMin="0.00005090534099646792" RangeMax="0.0021093250608202082">
          2.471874135301017e-7 -0.000030101282351369155 0 0.00014158170145413173 0 0
          -0.0001375912715927399 0.00007146523732325445 0 0.00011473741709907594 0 0
          -0.0001675443395297684 0.00015241832884317554 0 -0.000018856594676088575 0 0
          -0.0000029594536534831295 -0.000049059761517871174 0 0.000013256514468334802 0 0
          -0.0005080557313447576 0.0019157781532364371 0 -0.0004274835755479432 0 0
          0.0003598538428858605 -0.0016332337271567402 0 -0.00030691497012242904 0 0
          -0.00003627707386001742 0.000014127775937001011 0 -0.0001786420350997106 0 0
          -0.00016387115529987442 0.00014404528499461242 0 -0.00020201602914994479 0 0
          0.000583384423068296 -0.001502539680145085 0 -0.0005850435462034448 0 0
          -0.0008730881124473412 0.0018404512910753696 0 -0.0005474563044538987 0 0
          -0.00011352164185213363 0.00002851225444649443 0 -0.00040790369456959 0 0
          -0.00010733596936707495 0.00017014965082184366 0 -0.0003887778123967448 0 0
          0.00039410131028909964 -0.0011917436643957794 0 -0.000722914606105626 0 0
          -0.0006712417662091667 0.0015036858845253877 0 -0.0007181481472839221 0 0
          -0.0002162706540402249 0.0004213838565769531 0 -0.000585952931453523 0 0
          -0.000021890634939561542 -0.00018808111652557526 0 -0.0006011924582656962 0 0
          -0.0005283138975943891 0.0011382524820455126 0 -0.0007860841025077404 0 0
          0.0002624415359249539 -0.0008490036856272599 0 -0.0007932966279911081 0 0
          0.00010465247339869154 -0.0004889403253469149 0 -0.0007450311460233078 0 0
          -0.0003570561464367747 0.0007549119804046459 0 -0.000735402506464148 0 0
          <InformationKey name="L2_NORM_RANGE" location="vtkDataArray" length="2">
            <Value index="0">
              5.0905340996e-05
            </Value>
            <Value index="1">
              0.0021093250608
            </Value>
          </InformationKey>
        </DataArray>
        <DataArray type="Float64" Name="Btraction" NumberOfComponents="3" format="ascii" RangeMin="0.15112034295793136" RangeMax="19.09317421937154">
          6.76469446353104 -1.3381795217163663 0 15.716406514389828 1.35545499734559 0
          18.950846841271463 2.326952034302705 0 3.9011442892393164 -0.050941872081356115 0
          0.1343209314237475 0.06924771069991924 0 12.904885401958165 -4.206538259083771 0
          2.471520470272824 0.36302865922591765 0 18.511986291902044 1.3674415709136452 0
          17.168417028407568 0.009020066535279916 0 0.15448455589913263 0.07571287396621054 0
          18.123538925860522 0.832374825229171 0 1.5905276210408383 0.44474157241553697 0
          17.266271231197837 0.045475235056028886 0 0.18976319227517682 0.17378337703647823 0
          1.0113146281640728 0.4373499000898686 0 17.886100486053692 0.49286521386630505 0
          0.33829893356187624 0.2823063694656046 0 17.42372359047212 0.12276233130188657 0
          17.649496472676542 0.26295111947890604 0 0.6146226301072282 0.37736331546200863 0
          <InformationKey name="L2_NORM_RANGE" location="vtkDataArray" length="2">
            <Value index="0">
              0.15112034296
            </Value>
            <Value index="1">
              19.093174219
            </Value>
          </InformationKey>
        </DataArray>
      </CellData>
      <Points>
        <DataArray type="Float32" Name="Points" NumberOfComponents="3" format="ascii" RangeMin="1.4500000476837158" RangeMax="1.6286497021092299">
          1.4500000476837158 0.5 0 1.4500000476837158 0.44999998807907104 0
          1.4500000476837158 0.4000000059604645 0 1.5 0.5 0
          1.4500000476837158 0.3499999940395355 0 1.5002609491348267 0.45016080141067505 0
          1.4500000476837158 0.30000001192092896 0 1.5001590251922607 0.4000298082828522 0
          1.5499999523162842 0.5 0 1.4500000476837158 0.25 0
          1.5005459785461426 0.35020819306373596 0 1.5499999523162842 0.44999998807907104 0
          1.5002089738845825 0.30000561475753784 0 1.4500000476837158 0.20000000298023224 0
          1.5499999523162842 0.4000000059604645 0 1.5002909898757935 0.24981409311294556 0
          1.5499999523162842 0.3499999940395355 0 1.4500000476837158 0.15000000596046448 0
          1.5001939535140991 0.19956040382385254 0 1.5499999523162842 0.30000001192092896 0
          1.4500000476837158 0.10000000149011612 0 1.5499999523162842 0.25 0
          1.499879002571106 0.15004639327526093 0 1.4500000476837158 0.05000000074505806 0
          1.5499999523162842 0.20000000298023224 0 1.5001660585403442 0.10008130222558975 0
          1.4500000476837158 0 0 1.5499999523162842 0.15000000596046448 0
          1.5000410079956055 0.050020311027765274 0 1.5499999523162842 0.10000000149011612 0
          1.5 0 0 1.5499999523162842 0.05000000074505806 0
          1.5499999523162842 0 0
          <InformationKey name="L2_NORM_RANGE" location="vtkDataArray" length="2">
            <Value index="0">
              1.4500000477
            </Value>
            <Value index="1">
              1.6286497021
            </Value>
          </InformationKey>
        </DataArray>
      </Points>
      <Cells>
        <DataArray type="Int64" Name="connectivity" format="ascii" RangeMin="0" RangeMax="32">
          11 8 3 5 3 0
          1 5 1 2 7 5
          11 5 7 14 32 31
          28 30 26 30 28 23
          16 14 7 10 7 2
          4 10 20 23 28 25
          28 31 29 25 4 6
          12 10 16 10 12 19
          17 20 25 22 25 29
          27 22 21 19 12 15
          12 6 9 15 27 24
          18 22 17 22 18 13
          9 13 18 15 15 18
          24 21
        </DataArray>
        <DataArray type="Int64" Name="offsets" format="ascii" RangeMin="4" RangeMax="80">
          4 8 12 16 20 24
          28 32 36 40 44 48
          52 56 60 64 68 72
          76 80
        </DataArray>
        <DataArray type="UInt8" Name="types" format="ascii" RangeMin="9" RangeMax="9">
          9 9 9 9 9 9
          9 9 9 9 9 9
          9 9 9 9 9 9
          9 9
        </DataArray>
      </Cells>
    </Piece>
  </UnstructuredGrid>
</VTKFile>
