<?xml version="1.0"?>
<VTKFile type="UnstructuredGrid" version="0.1" byte_order="LittleEndian" header_type="UInt32" compressor="vtkZLibDataCompressor">
  <UnstructuredGrid>
    <Piece NumberOfPoints="33" NumberOfCells="20">
      <PointData>
        <DataArray type="Float64" Name="sld_BC" NumberOfComponents="3" format="ascii" RangeMin="0" RangeMax="0">
          0 0 0 0 0 0
          0 0 0 0 0 0
          0 0 0 0 0 0
          0 0 0 0 0 0
          0 0 0 0 0 0
          0 0 0 0 0 0
          0 0 0 0 0 0
          0 0 0 0 0 0
          0 0 0 0 0 0
          0 0 0 0 0 0
          0 0 0 0 0 0
          0 0 0 0 0 0
          0 0 0 0 0 0
          0 0 0 0 0 0
          0 0 0 0 0 0
          0 0 0 0 0 0
          0 0 0
          <InformationKey name="L2_NORM_RANGE" location="vtkDataArray" length="2">
            <Value index="0">
              0
            </Value>
            <Value index="1">
              0
            </Value>
          </InformationKey>
        </DataArray>
        <DataArray type="Float64" Name="sld_FIXNO" NumberOfComponents="3" format="ascii" RangeMin="1.4142135623730951" RangeMax="1.4142135623730951">
          -1 -1 0 -1 -1 0
          -1 -1 0 -1 -1 0
          -1 -1 0 -1 -1 0
          -1 -1 0 -1 -1 0
          -1 -1 0 -1 -1 0
          -1 -1 0 -1 -1 0
          -1 -1 0 -1 -1 0
          -1 -1 0 -1 -1 0
          -1 -1 0 -1 -1 0
          -1 -1 0 -1 -1 0
          -1 -1 0 -1 -1 0
          -1 -1 0 -1 -1 0
          -1 -1 0 -1 -1 0
          1 1 0 -1 -1 0
          -1 -1 0 -1 -1 0
          1 1 0 -1 -1 0
          1 1 0
          <InformationKey name="L2_NORM_RANGE" location="vtkDataArray" length="2">
            <Value index="0">
              1.4142135624
            </Value>
            <Value index="1">
              1.4142135624
            </Value>
          </InformationKey>
        </DataArray>
        <DataArray type="Float64" Name="Disp" NumberOfComponents="3" format="ascii" RangeMin="0" RangeMax="0.0016345461831649237">
          -0.0016089527526034336 -0.0002741128643313749 0 -0.0013460282016197738 -0.0002761985668500527 0
          -0.0010735896929775835 -0.0002765808937977721 0 -0.0016142228773815444 -0.000010636763120278189 0
          -0.0008008978900088405 -0.0002672979310310803 0 -0.0013528427849674664 -0.000009484670591262715 0
          -0.000541707110556656 -0.00024404743269346158 0 -0.0010784656059641142 -0.000010021554965634734 0
          -0.0016147237620582993 0.0002537880949597793 0 -0.00031287669168044205 -0.0002055929335277469 0
          -0.0008038875567033368 -0.000007814589892573604 0 -0.0013523017126024133 0.00025580398756965586 0
          -0.0005402821489930026 -0.000008821375978088341 0 -0.00013137294406839067 -0.00015404116255285743 0
          -0.0010803252635240453 0.00025613943764789547 0 -0.0003073484569521011 -0.0000073349490882671475 0
          -0.0008073287295301905 0.0002472991181851432 0 -0.000011350421022802703 -0.00009576984197506416 0
          -0.00012290676124172072 -0.000006209588691490201 0 -0.0005478846157313384 0.00022539100444304708 0
          0.00004193686120184771 -0.000042007073776568804 0 -0.0003186731197268868 0.00018931839349938082 0
          -0.00000402423463575564 -0.000005255572750308477 0 0.00003994741462301754 -0.00000632469531714955 0
          -0.00013699177282986663 0.00014079330859951918 0 0.00004707897849122395 -0.0000032552017350335525 0
          0 0 0 -0.000017167756632699335 0.00008584438372588226 0
          0.00003865976087282606 -0.000002237216233991187 0 0.00003606297422114826 0.0000352962122484412 0
          0 0 0 0.00003374132626312926 0.000003036631086539069 0
          0 0 0
          <InformationKey name="L2_NORM_RANGE" location="vtkDataArray" length="2">
            <Value index="0">
              0
            </Value>
            <Value index="1">
              0.0016345461832
            </Value>
          </InformationKey>
        </DataArray>
        <DataArray type="Float64" Name="Sld_traction" NumberOfComponents="3" format="ascii" RangeMin="0" RangeMax="91.72981074436075">
          12.97995910182548 -3.0329035508158615 0 27.361612324120564 3.9993502422229006 0
          34.081803762678746 12.950779183961743 0 2.4101938158809526 -5.784712356143522 0
          47.128491152065 17.602506736311703 0 0 0 0
          63.4915480331644 18.791102903508214 0 0 0 0
          -1.9108522977237252 -1.8784120825076793 0 79.33042992860759 15.937761555557255 0
          0 0 0 -6.134436008352686 -1.2977217422633822 0
          0 0 0 90.22165718351597 7.57292355508977 0
          -1.9093396889328806 -10.816218835321184 0 0 0 0
          10.256272415500232 -16.19805590593005 0 91.43413203857811 -7.359190006250948 0
          0 0 0 25.788502580783238 -17.830187502472764 0
          79.17632615200247 -24.530890115020004 0 41.2795955730325 -15.326595267553135 0
          0 0 0 48.5071289453957 -46.38746904428732 0
          51.987405542138426 -7.107085820841601 0 0 0 0
          -21.92787389478655 -18.418592283011808 0 52.74180444814982 7.788753505283708 0
          0 0 0 39.49493677058143 25.279850056718814 0
          -58.52954789389855 10.978245915521555 0 13.167068538023777 43.082937267569626 0
          -28.111771131785783 23.86502748236213 0
          <InformationKey name="L2_NORM_RANGE" location="vtkDataArray" length="2">
            <Value index="0">
              0
            </Value>
            <Value index="1">
              91.729810744
            </Value>
          </InformationKey>
        </DataArray>
        <DataArray type="Float64" Name="Fld_traction" NumberOfComponents="3" format="ascii" RangeMin="0" RangeMax="38.70228985684483">
          24.61249180783935 -0.47470124762261606 0 38.24913703296092 5.905146602499526 0
          37.55139667543984 3.4085089562077915 0 14.883904828696751 -3.7867300550321548 0
          36.495328355983276 2.0659658713226463 0 0 0 0
          35.99846226513095 1.2671873183190285 0 0 0 0
          12.177929300774165 -1.5582444784428775 0 35.54605760613936 0.7069312357808388 0
          0 0 0 9.612410526647663 -0.794237079206027 0
          0 0 0 35.0520664412732 0.34663378125625766 0
          6.002259371859615 0.5869511266618413 0 0 0 0
          3.8920058005223233 0.8624325806423772 0 34.64262818068182 0.14545349370315067 0
          0 0 0 2.4764501446128224 0.9144965080488753 0
          34.42184378537292 0.03696071186902185 0 1.5734941709455086 0.8335746908558069 0
          0 0 0 34.25081563276783 -0.000703428943733016 0
          0.8880703235885729 0.6752496774269537 0 0 0 0
          17.36774837479482 -16.825061016806835 0 0.46670989094367743 0.45396507245656703 0
          0 0 0 0.2925428761661372 0.24154662587148712 0
          0 0 0 0.3244075044441049 0.061655784304883283 0
          0.21181586455820725 0.21508863563960526 0
          <InformationKey name="L2_NORM_RANGE" location="vtkDataArray" length="2">
            <Value index="0">
              0
            </Value>
            <Value index="1">
              38.702289857
            </Value>
          </InformationKey>
        </DataArray>
        <DataArray type="Float64" Name="Velocity" NumberOfComponents="3" format="ascii" RangeMin="0" RangeMax="0.07328619407787741">
          -0.07295084409669411 -0.005841020363631006 0 -0.06744658769143792 -0.005893766510676267 0
          -0.06205100330655659 -0.005916664729234375 0 -0.07300398464062749 -0.00029835029708646043 0
          -0.05651884935819411 -0.006374815349495853 0 -0.06751667693868948 -0.00031512474208413173 0
          -0.05023838910460082 -0.007290201095721186 0 -0.06218282008519517 -0.00024365425832421103 0
          -0.07310146767584044 0.005200160195452561 0 -0.04257985572638771 -0.00835697149192443 0
          -0.056796768496018904 -0.00018138378253831455 0 -0.06762028397892439 0.005161395351720496 0
          -0.05054829119389677 -0.00022747600195166962 0 -0.033487274995271314 -0.009110865837404218 0
          -0.062278936914401214 0.005354607995913946 0 -0.04282312473243792 -0.00017707618376096637 0
          -0.056806832645840716 0.0058685464989197324 0 -0.023510002560185775 -0.009120737928776114 0
          -0.033550271928633635 -0.00011416585032096582 0 -0.05049824540192517 0.006797563828564892 0
          -0.013481889214770025 -0.007930478102687278 0 -0.04279338506029366 0.007930533405922667 0
          -0.023455850164180836 -0.00008936143363066148 0 -0.005293825282401467 -0.004860839464139909 0
          -0.03367079223293772 0.008816677981030165 0 -0.01320536174592679 -0.00002286398472606054 0
          0 0 0 -0.02371494269908344 0.008958998059670754 0
          -0.0042136391600352385 -0.00007328106103269579 0 -0.013777125115290074 0.007853278367088467 0
          0 0 0 -0.005491816566231187 0.004825772124751291 0
          0 0 0
          <InformationKey name="L2_NORM_RANGE" location="vtkDataArray" length="2">
            <Value index="0">
              0
            </Value>
            <Value index="1">
              0.073286194078
            </Value>
          </InformationKey>
        </DataArray>
      </PointData>
      <CellData>
        <DataArray type="UInt8" Name="vtkGhostType" format="ascii" RangeMin="0" RangeMax="0">
          0 0 0 0 0 0
          0 0 0 0 0 0
          0 0 0 0 0 0
          0 0
        </DataArray>
        <DataArray type="Float64" Name="Stress" NumberOfComponents="6" format="ascii" RangeMin="8.679220785692355" RangeMax="147.8713937238204">
          -4.226177876844529 -5.730945683802691 0 4.962313529934135 0 0
          -27.50888188538538 -6.698263755925166 0 2.7895783970786496 0 0
          -28.115861071539133 -11.220593588227658 0 -11.574382073661964 0 0
          -6.770553933979529 -3.6546868380179256 0 -9.188699528446772 0 0
          -12.289447613078472 -3.514276151889608 0 59.742275843964535 0 0
          -13.38719211257223 -24.55522476069997 0 63.59909226748737 0 0
          -7.912245250837762 15.675262570149187 0 -18.150603528347176 0 0
          -28.48786472337768 -33.04379478164007 0 -19.908382075621915 0 0
          -32.07009817200068 -94.48816608160998 0 40.899983015842665 0 0
          -6.996317282593855 65.51678805583549 0 42.0883595874688 0 0
          -28.7273648542951 -64.76301920977023 0 -23.621114863554634 0 0
          -8.486139968379092 43.01225437698162 0 -22.17587990726597 0 0
          -30.011420588105583 -134.6319311190319 0 19.18309762150461 0 0
          -8.969283232603145 103.6967831816974 0 19.447991674832707 0 0
          -8.698366826304508 72.97134454894781 0 -21.78274686437716 0 0
          -29.219142808461335 -99.4134465528725 0 -22.77532064798655 0 0
          -9.190800643722032 113.45087872309388 0 -1.2792869288613264 0 0
          -29.48649687657865 -144.89140621157895 0 -1.7251057370047462 0 0
          -29.68088761172692 -129.02608465608438 0 -16.119452687210206 0 0
          -8.345966849441412 99.6934396217053 0 -15.477280118974837 0 0
          <InformationKey name="L2_NORM_RANGE" location="vtkDataArray" length="2">
            <Value index="0">
              8.6792207857
            </Value>
            <Value index="1">
              147.87139372
            </Value>
          </InformationKey>
        </DataArray>
        <DataArray type="Float64" Name="Strain" NumberOfComponents="6" format="ascii" RangeMin="0.00006741284408521086" RangeMax="0.0008313119033707005">
          -0.000008053765256227363 -0.000017834756001455413 0 0.00006451007588914374 0 0
          -0.00011210379825444942 0.000023165219587041993 0 0.000036264519162022444 0 0
          -0.0001060470103784591 0.0000037722282630654733 0 -0.00015046696695760546 0 0
          -0.000023679381065471903 -0.0000034262449417214774 0 -0.00011945309386980801 0 0
          -0.000049064148143322306 0.0000079744663544053 0 0.0007766495859715388 0 0
          -0.000013029035828838696 -0.00008562124804166902 0 0.0008267881994773358 0 0
          -0.00006656747790310274 0.00008675132293331243 0 -0.00023595784586851322 0 0
          -0.00006518438466717033 -0.00009479793004587581 0 -0.0002588089669830849 0 0
          0.000038332977176536436 -0.00036738446423592423 0 0.0005316997792059546 0 0
          -0.00015959098034468128 0.00031174420435510947 0 0.0005471486746370944 0 0
          -0.0000044216226279907255 -0.00023865337593857914 0 -0.0003070744932262102 0 0
          -0.00012248583289123903 0.0002122537303536056 0 -0.0002882864387944576 0 0
          0.00012598030200623185 -0.0005540530164447892 0 0.0002493802690795599 0 0
          -0.00024301896591265426 0.0004893104657802993 0 0.0002528238917728252 0 0
          -0.00018187169093013375 0.0003489814330090063 0 -0.000283175709236903 0 0
          0.000060909120999602315 -0.0003953538533390703 0 -0.0002960791684238251 0 0
          -0.00026304735643896827 0.0005341235594453351 0 -0.00001663073007519722 0 0
          0.00014837468132414613 -0.0006017572293533558 0 -0.00002242637458106165 0 0
          0.00011655282644600708 -0.0005291909543423165 0 -0.00020955288493373263 0 0
          -0.00023237635642728375 0.00046987978563516985 0 -0.00020120464154667285 0 0
          <InformationKey name="L2_NORM_RANGE" location="vtkDataArray" length="2">
            <Value index="0">
              6.7412844085e-05
            </Value>
            <Value index="1">
              0.00083131190337
            </Value>
          </InformationKey>
        </DataArray>
        <DataArray type="Float64" Name="Btraction" NumberOfComponents="3" format="ascii" RangeMin="0.15085650786314317" RangeMax="19.092644346620506">
          6.765458532367728 -1.3362436333687582 0 15.715407210200068 1.3576113387192272 0
          18.95013342710019 2.3284138896768294 0 3.903667474626819 -0.05182148813604648 0
          0.13405584225057804 0.06918610498612213 0 12.904641001890663 -4.206441111437643 0
          2.4735662930954843 0.3623459268260546 0 18.511681257855777 1.3686187068826094 0
          17.16816485453519 0.009064320731322208 0 0.1542375951525605 0.0758006025440926 0
          18.123447655278554 0.8332882974104187 0 1.5921139862837865 0.444232272172813 0
          17.26611799151368 0.04560355139304312 0 0.18981319177745368 0.1738779245820135 0
          1.0124860788895826 0.43701779972617044 0 17.886129967817574 0.49352963852496684 0
          0.33869505363306257 0.2823036874708802 0 17.423673655488752 0.12302181873985207 0
          17.64953101185314 0.2633912542592741 0 0.6153911236335203 0.3772060920706901 0
          <InformationKey name="L2_NORM_RANGE" location="vtkDataArray" length="2">
            <Value index="0">
              0.15085650786
            </Value>
            <Value index="1">
              19.092644347
            </Value>
          </InformationKey>
        </DataArray>
      </CellData>
      <Points>
        <DataArray type="Float32" Name="Points" NumberOfComponents="3" format="ascii" RangeMin="1.4500000476837158" RangeMax="1.6286497021092299">
          1.4500000476837158 0.5 0 1.4500000476837158 0.44999998807907104 0
          1.4500000476837158 0.4000000059604645 0 1.5 0.5 0
          1.4500000476837158 0.3499999940395355 0 1.5002609491348267 0.45016080141067505 0
          1.4500000476837158 0.30000001192092896 0 1.5001590251922607 0.4000298082828522 0
          1.5499999523162842 0.5 0 1.4500000476837158 0.25 0
          1.5005459785461426 0.35020819306373596 0 1.5499999523162842 0.44999998807907104 0
          1.5002089738845825 0.30000561475753784 0 1.4500000476837158 0.20000000298023224 0
          1.5499999523162842 0.4000000059604645 0 1.5002909898757935 0.24981409311294556 0
          1.5499999523162842 0.3499999940395355 0 1.4500000476837158 0.15000000596046448 0
          1.5001939535140991 0.19956040382385254 0 1.5499999523162842 0.30000001192092896 0
          1.4500000476837158 0.10000000149011612 0 1.5499999523162842 0.25 0
          1.499879002571106 0.15004639327526093 0 1.4500000476837158 0.05000000074505806 0
          1.5499999523162842 0.20000000298023224 0 1.5001660585403442 0.10008130222558975 0
          1.4500000476837158 0 0 1.5499999523162842 0.15000000596046448 0
          1.5000410079956055 0.050020311027765274 0 1.5499999523162842 0.10000000149011612 0
          1.5 0 0 1.5499999523162842 0.05000000074505806 0
          1.5499999523162842 0 0
          <InformationKey name="L2_NORM_RANGE" location="vtkDataArray" length="2">
            <Value index="0">
              1.4500000477
            </Value>
            <Value index="1">
              1.6286497021
            </Value>
          </InformationKey>
        </DataArray>
      </Points>
      <Cells>
        <DataArray type="Int64" Name="connectivity" format="ascii" RangeMin="0" RangeMax="32">
          11 8 3 5 3 0
          1 5 1 2 7 5
          11 5 7 14 32 31
          28 30 26 30 28 23
          16 14 7 10 7 2
          4 10 20 23 28 25
          28 31 29 25 4 6
          12 10 16 10 12 19
          17 20 25 22 25 29
          27 22 21 19 12 15
          12 6 9 15 27 24
          18 22 17 22 18 13
          9 13 18 15 15 18
          24 21
        </DataArray>
        <DataArray type="Int64" Name="offsets" format="ascii" RangeMin="4" RangeMax="80">
          4 8 12 16 20 24
          28 32 36 40 44 48
          52 56 60 64 68 72
          76 80
        </DataArray>
        <DataArray type="UInt8" Name="types" format="ascii" RangeMin="9" RangeMax="9">
          9 9 9 9 9 9
          9 9 9 9 9 9
          9 9 9 9 9 9
          9 9
        </DataArray>
      </Cells>
    </Piece>
  </UnstructuredGrid>
</VTKFile>
