<?xml version="1.0"?>
<VTKFile type="UnstructuredGrid" version="0.1" byte_order="LittleEndian" header_type="UInt32" compressor="vtkZLibDataCompressor">
  <UnstructuredGrid>
    <Piece NumberOfPoints="33" NumberOfCells="20">
      <PointData>
        <DataArray type="Float64" Name="sld_BC" NumberOfComponents="3" format="ascii" RangeMin="0" RangeMax="0">
          0 0 0 0 0 0
          0 0 0 0 0 0
          0 0 0 0 0 0
          0 0 0 0 0 0
          0 0 0 0 0 0
          0 0 0 0 0 0
          0 0 0 0 0 0
          0 0 0 0 0 0
          0 0 0 0 0 0
          0 0 0 0 0 0
          0 0 0 0 0 0
          0 0 0 0 0 0
          0 0 0 0 0 0
          0 0 0 0 0 0
          0 0 0 0 0 0
          0 0 0 0 0 0
          0 0 0
          <InformationKey name="L2_NORM_RANGE" location="vtkDataArray" length="2">
            <Value index="0">
              0
            </Value>
            <Value index="1">
              0
            </Value>
          </InformationKey>
        </DataArray>
        <DataArray type="Float64" Name="sld_FIXNO" NumberOfComponents="3" format="ascii" RangeMin="1.4142135623730951" RangeMax="1.4142135623730951">
          -1 -1 0 -1 -1 0
          -1 -1 0 -1 -1 0
          -1 -1 0 -1 -1 0
          -1 -1 0 -1 -1 0
          -1 -1 0 -1 -1 0
          -1 -1 0 -1 -1 0
          -1 -1 0 -1 -1 0
          -1 -1 0 -1 -1 0
          -1 -1 0 -1 -1 0
          -1 -1 0 -1 -1 0
          -1 -1 0 -1 -1 0
          -1 -1 0 -1 -1 0
          -1 -1 0 -1 -1 0
          1 1 0 -1 -1 0
          -1 -1 0 -1 -1 0
          1 1 0 -1 -1 0
          1 1 0
          <InformationKey name="L2_NORM_RANGE" location="vtkDataArray" length="2">
            <Value index="0">
              1.4142135624
            </Value>
            <Value index="1">
              1.4142135624
            </Value>
          </InformationKey>
        </DataArray>
        <DataArray type="Float64" Name="Disp" NumberOfComponents="3" format="ascii" RangeMin="0" RangeMax="0.03291334952105901">
          0.03263595051469051 0.004264189336564198 0 0.028411073976443907 0.004254179437304835 0
          0.02418860683342715 0.0042173924430881134 0 0.032630536906613584 0.00004954009804920313 0
          0.01999965469404945 0.004132505284760861 0 0.02841551276825108 0.000026491796076932037 0
          0.01590062469381482 0.003972684692688245 0 0.02417399158672883 0.00003305886508561391 0
          0.03263118120591891 -0.004164435648871671 0 0.011981121919096917 0.003708062933589421 0
          0.01998635621705219 -0.0000013423075111519472 0 0.028405271805888314 -0.004156426427670883 0
          0.015851387080639035 0.000022708190531791923 0 0.00836033819242336 0.0033108398189809637 0
          0.02418159810088096 -0.0041243569567645045 0 0.011891247199522564 0.00001280982414791638 0
          0.01999122661276277 -0.004046272371883895 0 0.005187187574173057 0.0027550911587227965 0
          0.008223129714446118 0.000015113249636577173 0 0.015891749908684624 -0.0038946479433219178 0
          0.002628121923226928 0.0020219016265929303 0 0.011970763989446234 -0.003640499967056088 0
          0.005045585029870475 0.0000278953788388288 0 0.000914182999833518 0.001078239427758331 0
          0.008348837537334158 -0.0032549805789726274 0 0.0024552480096357862 0.00000770108719213864 0
          0 0 0 0.0051773794403141525 -0.0027123823982209585 0
          0.000639253666335944 0.000004880512645615178 0 0.0026149061909499253 -0.0019941225191536134 0
          0 0 0 0.0009020269958938795 -0.0010640206705376544 0
          0 0 0
          <InformationKey name="L2_NORM_RANGE" location="vtkDataArray" length="2">
            <Value index="0">
              0
            </Value>
            <Value index="1">
              0.032913349521
            </Value>
          </InformationKey>
        </DataArray>
        <DataArray type="Float64" Name="Sld_traction" NumberOfComponents="3" format="ascii" RangeMin="0" RangeMax="2874.0754357547607">
          15.162456320869673 2.523302953638852 0 -1.1426396078667003 -34.11499874706221 0
          -43.67425903188931 -65.3090129395483 0 20.344523927820777 0.06573332162318585 0
          -114.08349248007511 -102.63864633359707 0 0 0 0
          -217.70130137739068 -143.17919264588764 0 0 0 0
          4.794075864333079 -1.2001204809227235 0 -353.7681561167108 -183.8829385086812 0
          0 0 0 -24.4663657413911 37.01590005228521 0
          0 0 0 -518.2897094458363 -219.90401915581202 0
          -67.4877230334819 67.72004655295038 0 0 0 0
          -138.7664147576789 103.83273429968712 0 -713.1860737403617 -249.31993255041746 0
          0 0 0 -242.20259142879195 144.23749149700546 0
          -927.1093183226201 -250.5239559622248 0 -379.6812929324435 185.06612394624057 0
          0 0 0 -1187.5169300597158 -405.67682858036005 0
          -545.783591183726 220.45951406553144 0 0 0 0
          -1629.6045095380248 -2367.424497825063 0 -738.7979519124633 250.3989835835803 0
          0 0 0 -957.4782029293008 251.63436309650965 0
          -1121.045167090406 -30.18742559503093 0 -1208.3516437766116 398.87142429441127 0
          -1617.906084184004 2324.8020414313232 0
          <InformationKey name="L2_NORM_RANGE" location="vtkDataArray" length="2">
            <Value index="0">
              0
            </Value>
            <Value index="1">
              2874.0754358
            </Value>
          </InformationKey>
        </DataArray>
        <DataArray type="Float64" Name="Fld_traction" NumberOfComponents="3" format="ascii" RangeMin="0" RangeMax="38.671292644963316">
          24.585598721157215 -0.43327996758882303 0 38.21383493619135 5.930572847703294 0
          37.527541488044676 3.4321245845013233 0 14.881034147502179 -3.737618322235458 0
          36.47860132903769 2.0867742395247997 0 0 0 0
          35.98736153269009 1.284307601066915 0 0 0 0
          12.208610345013115 -1.5514481592681397 0 35.538315888202085 0.7198019814849388 0
          0 0 0 9.667147997730488 -0.8160328107938933 0
          0 0 0 35.04502205271764 0.35523724081796293 0
          6.046997742927305 0.5700856436003945 0 0 0 0
          3.9274967340729203 0.8492781861321212 0 34.63399816121322 0.1504697520512372 0
          0 0 0 2.502924254152125 0.9048960610112818 0
          34.41179308702852 0.03924201310668426 0 1.5926565570025586 0.8277891047910511 0
          0 0 0 34.23838106920518 -0.00019766314477729342 0
          0.8987076434254286 0.6729756727106561 0 0 0 0
          17.360707632371017 -16.818144197091954 0 0.471187605176835 0.45481107013048894 0
          0 0 0 0.2893038939755145 0.24370422615198722 0
          0 0 0 0.31663723729673604 0.06270830060937344 0
          0.20786646796179145 0.21108955474642346 0
          <InformationKey name="L2_NORM_RANGE" location="vtkDataArray" length="2">
            <Value index="0">
              0
            </Value>
            <Value index="1">
              38.671292645
            </Value>
          </InformationKey>
        </DataArray>
        <DataArray type="Float64" Name="Velocity" NumberOfComponents="3" format="ascii" RangeMin="0" RangeMax="0.12645009074927024">
          -0.12542168676072418 -0.016094282854276585 0 -0.11018058045609014 -0.01588307109941013 0
          -0.09513332123459403 -0.01563212815852004 0 -0.12549600166446828 -0.0009134670891356262 0
          -0.08057375182060572 -0.015228997132437366 0 -0.11032372281906604 -0.0007478209724804904 0
          -0.06643657230869615 -0.014790993178159226 0 -0.09520230685108295 -0.000809455346322205 0
          -0.12555029666323725 0.014277825276119888 0 -0.05243694931010127 -0.014307885466688956 0
          -0.08065152726809931 -0.0006777523004073656 0 -0.11033129547490243 0.014245529448173607 0
          -0.06644602153720927 -0.0006721477028153271 0 -0.03849289391463853 -0.013486211346876848 0
          -0.09527155483803142 0.013952985221287496 0 -0.05235809643859349 -0.0004968698358310897 0
          -0.08062660094997592 0.013596513560604716 0 -0.025179072479738173 -0.011894008857889285 0
          -0.03823259354796509 -0.00035671322010065573 0 -0.06643041465458885 0.013350599902330968 0
          -0.013589754752333143 -0.00923309296777868 0 -0.05240512390271546 0.013160353270823554 0
          -0.024848066720932413 -0.0002779468700951994 0 -0.005041709148925749 -0.0052195260296466 0
          -0.038462713803598475 0.012665528343531319 0 -0.013051353439370986 -0.0000761185201625779 0
          0 0 0 -0.025169188576671428 0.011384197700455326 0
          -0.003985480116039104 -0.000015242868734842988 0 -0.013581707875496351 0.008982294975664416 0
          0 0 0 -0.00517692173278004 0.005136346117163805 0
          0 0 0
          <InformationKey name="L2_NORM_RANGE" location="vtkDataArray" length="2">
            <Value index="0">
              0
            </Value>
            <Value index="1">
              0.12645009075
            </Value>
          </InformationKey>
        </DataArray>
      </PointData>
      <CellData>
        <DataArray type="UInt8" Name="vtkGhostType" format="ascii" RangeMin="0" RangeMax="0">
          0 0 0 0 0 0
          0 0 0 0 0 0
          0 0 0 0 0 0
          0 0
        </DataArray>
        <DataArray type="Float64" Name="Stress" NumberOfComponents="6" format="ascii" RangeMin="30.95596888415432" RangeMax="2674.5520560391265">
          2.7908617440872696 -14.057647270043988 0 27.438397429754264 0 0
          -26.309895640802665 13.106875623358992 0 25.44049052457606 0 0
          -25.79888677799176 74.06159524074238 0 58.49071162620534 0 0
          1.7417045094789092 -65.33914634715404 0 60.40218296390045 0 0
          -512.7175956072231 -2546.2394333132725 0 362.44357761737103 0 0
          509.45241362240307 2599.462975620798 0 369.43088270215543 0 0
          0.6448284746341706 -166.18330681247812 0 101.88842081918537 0 0
          -27.094147942361392 180.5383787736671 0 100.86287752609898 0 0
          -116.78696056435476 2037.7411760843197 0 343.5140336264291 0 0
          84.1575494618915 -1992.6382095485728 0 344.41748394641945 0 0
          -26.5119787759905 345.96777046783876 0 149.37317467920826 0 0
          -0.9646630618929493 -326.65575998224335 0 149.39721260968798 0 0
          -10.112095376138797 1621.9344561635794 0 314.9079027124494 0 0
          -18.515160251632807 -1572.4304263686813 0 316.1671413475873 0 0
          -2.645500292892777 -550.9665856131202 0 198.42221701914139 0 0
          -25.50849716226128 577.9379552287276 0 198.2157509598453 0 0
          5.139281722556007 -1180.5727831374588 0 281.6240447347538 0 0
          -32.180974282710935 1225.258879327661 0 282.18045045319354 0 0
          -23.932338592395 871.0209626311186 0 243.07012415171715 0 0
          -6.823481232534107 -839.0570268226575 0 243.48892448479623 0 0
          <InformationKey name="L2_NORM_RANGE" location="vtkDataArray" length="2">
            <Value index="0">
              30.955968884
            </Value>
            <Value index="1">
              2674.552056
            </Value>
          </InformationKey>
        </DataArray>
        <DataArray type="Float64" Name="Strain" NumberOfComponents="6" format="ascii" RangeMin="0.00036559561757942756" RangeMax="0.01216597409316579">
          0.00004011083311218286 -0.00006940447547967033 0 0.0003566991665868053 0 0
          -0.00014526843263120218 0.00011094058058584862 0 0.00033072637681948874 0 0
          -0.00026180504555931017 0.0003872880875624617 0 0.0007603792511406693 0 0
          0.00013533609089507945 -0.0003006894396730348 0 0.0007852283785307057 0 0
          0.002632301834948016 -0.010585590110141303 0 0.004711766509025824 0 0
          -0.0027509443204786236 0.010834124332510946 0 0.0048026014751280195 0 0
          0.0003269914178439179 -0.0007573914615223122 0 0.0013245494706494096 0 0
          -0.0004753282117463953 0.0008742832119077901 0 0.0013112174078392866 0 0
          -0.004504975963932238 0.009499456924284147 0 0.004465682437143578 0 0
          0.004268561358671323 -0.009230611074896693 0 0.004477427291303453 0 0
          -0.0007952666558430424 0.0016258517142418477 0 0.001941851270829707 0 0
          0.0006325895150337614 -0.0014844026149485156 0 0.0019421637639259436 0 0
          -0.0032087822234804107 0.007399520361527754 0 0.0040938027352618415 0 0
          0.0029819953522739993 -0.007118453877486815 0 0.0041101728375186365 0 0
          0.0010623478156129226 -0.002501739238968556 0 0.0025794888212488376 0 0
          -0.001243042674784308 0.0026793592657571204 0 0.002576804762477989 0 0
          0.002325500658955675 -0.005381627762634421 0 0.0036611125815517987 0 0
          -0.0025356782476752735 0.0056376808007921435 0 0.0036683458558915156 0 0
          -0.0018073830177260787 0.00400981344022676 0 0.0031599116139723223 0 0
          0.0016051143626961521 -0.0038044036836396506 0 0.0031653560183023503 0 0
          <InformationKey name="L2_NORM_RANGE" location="vtkDataArray" length="2">
            <Value index="0">
              0.00036559561758
            </Value>
            <Value index="1">
              0.012165974093
            </Value>
          </InformationKey>
        </DataArray>
        <DataArray type="Float64" Name="Btraction" NumberOfComponents="3" format="ascii" RangeMin="0.14791665778981716" RangeMax="19.079465738466098">
          6.7724111231288235 -1.3222666203758995 0 15.69985841433714 1.3743232200286175 0
          18.935344106059006 2.3406743580511544 0 3.9285364351644483 -0.061486791798374685 0
          0.13112592631463185 0.0684494638389492 0 12.899772175394048 -4.204585465059182 0
          2.4936236192500565 0.354840957433129 0 18.501535704270587 1.3797247060065305 0
          17.162543539058426 0.00976108749047674 0 0.15148528281806262 0.07660313169034016 0
          18.116490715431944 0.8427704601479286 0 1.607605247056261 0.4385435617858507 0
          17.261447812060435 0.04742794128948036 0 0.19012287478808737 0.17462882407061903 0
          1.0238952027886707 0.4331712914505831 0 17.88141935522304 0.5010273956379634 0
          0.3424738121505659 0.28194668571028625 0 17.419755053482714 0.12642674821730002 0
          17.645834485229926 0.26875980557572543 0 0.6228410501069968 0.3751911943754267 0
          <InformationKey name="L2_NORM_RANGE" location="vtkDataArray" length="2">
            <Value index="0">
              0.14791665779
            </Value>
            <Value index="1">
              19.079465738
            </Value>
          </InformationKey>
        </DataArray>
      </CellData>
      <Points>
        <DataArray type="Float32" Name="Points" NumberOfComponents="3" format="ascii" RangeMin="1.4500000476837158" RangeMax="1.6286497021092299">
          1.4500000476837158 0.5 0 1.4500000476837158 0.44999998807907104 0
          1.4500000476837158 0.4000000059604645 0 1.5 0.5 0
          1.4500000476837158 0.3499999940395355 0 1.5002609491348267 0.45016080141067505 0
          1.4500000476837158 0.30000001192092896 0 1.5001590251922607 0.4000298082828522 0
          1.5499999523162842 0.5 0 1.4500000476837158 0.25 0
          1.5005459785461426 0.35020819306373596 0 1.5499999523162842 0.44999998807907104 0
          1.5002089738845825 0.30000561475753784 0 1.4500000476837158 0.20000000298023224 0
          1.5499999523162842 0.4000000059604645 0 1.5002909898757935 0.24981409311294556 0
          1.5499999523162842 0.3499999940395355 0 1.4500000476837158 0.15000000596046448 0
          1.5001939535140991 0.19956040382385254 0 1.5499999523162842 0.30000001192092896 0
          1.4500000476837158 0.10000000149011612 0 1.5499999523162842 0.25 0
          1.499879002571106 0.15004639327526093 0 1.4500000476837158 0.05000000074505806 0
          1.5499999523162842 0.20000000298023224 0 1.5001660585403442 0.10008130222558975 0
          1.4500000476837158 0 0 1.5499999523162842 0.15000000596046448 0
          1.5000410079956055 0.050020311027765274 0 1.5499999523162842 0.10000000149011612 0
          1.5 0 0 1.5499999523162842 0.05000000074505806 0
          1.5499999523162842 0 0
          <InformationKey name="L2_NORM_RANGE" location="vtkDataArray" length="2">
            <Value index="0">
              1.4500000477
            </Value>
            <Value index="1">
              1.6286497021
            </Value>
          </InformationKey>
        </DataArray>
      </Points>
      <Cells>
        <DataArray type="Int64" Name="connectivity" format="ascii" RangeMin="0" RangeMax="32">
          11 8 3 5 3 0
          1 5 1 2 7 5
          11 5 7 14 32 31
          28 30 26 30 28 23
          16 14 7 10 7 2
          4 10 20 23 28 25
          28 31 29 25 4 6
          12 10 16 10 12 19
          17 20 25 22 25 29
          27 22 21 19 12 15
          12 6 9 15 27 24
          18 22 17 22 18 13
          9 13 18 15 15 18
          24 21
        </DataArray>
        <DataArray type="Int64" Name="offsets" format="ascii" RangeMin="4" RangeMax="80">
          4 8 12 16 20 24
          28 32 36 40 44 48
          52 56 60 64 68 72
          76 80
        </DataArray>
        <DataArray type="UInt8" Name="types" format="ascii" RangeMin="9" RangeMax="9">
          9 9 9 9 9 9
          9 9 9 9 9 9
          9 9 9 9 9 9
          9 9
        </DataArray>
      </Cells>
    </Piece>
  </UnstructuredGrid>
</VTKFile>
