<?xml version="1.0"?>
<VTKFile type="UnstructuredGrid" version="0.1" byte_order="LittleEndian" header_type="UInt32" compressor="vtkZLibDataCompressor">
  <UnstructuredGrid>
    <Piece NumberOfPoints="33" NumberOfCells="20">
      <PointData>
        <DataArray type="Float64" Name="sld_BC" NumberOfComponents="3" format="ascii" RangeMin="0" RangeMax="0">
          0 0 0 0 0 0
          0 0 0 0 0 0
          0 0 0 0 0 0
          0 0 0 0 0 0
          0 0 0 0 0 0
          0 0 0 0 0 0
          0 0 0 0 0 0
          0 0 0 0 0 0
          0 0 0 0 0 0
          0 0 0 0 0 0
          0 0 0 0 0 0
          0 0 0 0 0 0
          0 0 0 0 0 0
          0 0 0 0 0 0
          0 0 0 0 0 0
          0 0 0 0 0 0
          0 0 0
          <InformationKey name="L2_NORM_RANGE" location="vtkDataArray" length="2">
            <Value index="0">
              0
            </Value>
            <Value index="1">
              0
            </Value>
          </InformationKey>
        </DataArray>
        <DataArray type="Float64" Name="sld_FIXNO" NumberOfComponents="3" format="ascii" RangeMin="1.4142135623730951" RangeMax="1.4142135623730951">
          -1 -1 0 -1 -1 0
          -1 -1 0 -1 -1 0
          -1 -1 0 -1 -1 0
          -1 -1 0 -1 -1 0
          -1 -1 0 -1 -1 0
          -1 -1 0 -1 -1 0
          -1 -1 0 -1 -1 0
          -1 -1 0 -1 -1 0
          -1 -1 0 -1 -1 0
          -1 -1 0 -1 -1 0
          -1 -1 0 -1 -1 0
          -1 -1 0 -1 -1 0
          -1 -1 0 -1 -1 0
          1 1 0 -1 -1 0
          -1 -1 0 -1 -1 0
          1 1 0 -1 -1 0
          1 1 0
          <InformationKey name="L2_NORM_RANGE" location="vtkDataArray" length="2">
            <Value index="0">
              1.4142135624
            </Value>
            <Value index="1">
              1.4142135624
            </Value>
          </InformationKey>
        </DataArray>
        <DataArray type="Float64" Name="Disp" NumberOfComponents="3" format="ascii" RangeMin="0" RangeMax="0.035719589734776604">
          0.03540305578312744 0.0047447583750413365 0 0.030634841502138552 0.0047277573813341005 0
          0.025874240143595684 0.0046647975232659705 0 0.035396765268721084 -0.00000689198104710919 0
          0.021187114751334602 0.0045285532113587225 0 0.030637872801192213 -0.00003218786655852625 0
          0.016661446920921807 0.004296902971535653 0 0.02585183760819662 -0.000023013686744395296 0
          0.035398403287449025 -0.004757793380333215 0 0.012407702248759082 0.003950151494624148 0
          0.02116260411385454 -0.00005820796098443429 0 0.03062948842941775 -0.004741713351066123 0
          0.016596214291247587 -0.000026980000839546873 0 0.008550308348868168 0.0034715977241454774 0
          0.025868570318773085 -0.0046804666100389025 0 0.01230001130918319 -0.00003151398661755761 0
          0.021180768811610143 -0.0045459099588752395 0 0.005232238898437422 0.002844172313190176 0
          0.008396173007699069 -0.00002142262179082201 0 0.016656279039570798 -0.004314503448277191 0
          0.002607286149007781 0.002056282746465408 0 0.012402184184261993 -0.003967384908147492 0
          0.005078716972966508 5.27225581600278e-7 0 0.0008860385173041272 0.001081172801110934 0
          0.008544841922995747 -0.0034867635408540563 0 0.0024268608218416796 -0.000011047534540960111 0
          0 0 0 0.005229669316961895 -0.002856378876692682 0
          0.0006095223318681027 -0.000003722796435401823 0 0.0026017162398077895 -0.00206548188753677 0
          0 0 0 0.0008820950731010121 -0.0010856014603121474 0
          0 0 0
          <InformationKey name="L2_NORM_RANGE" location="vtkDataArray" length="2">
            <Value index="0">
              0
            </Value>
            <Value index="1">
              0.035719589735
            </Value>
          </InformationKey>
        </DataArray>
        <DataArray type="Float64" Name="Sld_traction" NumberOfComponents="3" format="ascii" RangeMin="0" RangeMax="2854.2421689575062">
          16.950166461300306 6.770432325893387 0 -20.121878190370662 -56.50603223837009 0
          -89.57461149828978 -97.01907484281531 0 32.40818136419169 -2.7733872955506773 0
          -187.9711131110622 -130.07789468565284 0 0 0 0
          -311.5821018369737 -158.63069174841442 0 0 0 0
          5.847856170376267 -8.451805135775043 0 -454.8240330766647 -185.5615177194802 0
          0 0 0 -45.07212764952497 58.67316053043548 0
          0 0 0 -614.4010001634581 -209.536680624951 0
          -115.20157607749226 98.44941427147035 0 0 0 0
          -214.4660950959953 130.035884009139 0 -795.0780314619092 -227.84884996726385 0
          0 0 0 -337.2203757181746 158.53946498332695 0
          -987.079678028306 -219.5748901506115 0 -481.94021640686185 185.89521626838032 0
          0 0 0 -1214.7279302130767 -364.2128680367473 0
          -643.209170339102 209.34340910006947 0 0 0 0
          -1609.520326649906 -2340.362493854948 0 -821.775273463082 228.30726227738893 0
          0 0 0 -1017.7653265809155 219.7279676517047 0
          -1078.23615220302 17.42009808481255 0 -1241.7982961188056 361.84638555716674 0
          -1616.1743326447265 2352.589825183222 0
          <InformationKey name="L2_NORM_RANGE" location="vtkDataArray" length="2">
            <Value index="0">
              0
            </Value>
            <Value index="1">
              2854.242169
            </Value>
          </InformationKey>
        </DataArray>
        <DataArray type="Float64" Name="Fld_traction" NumberOfComponents="3" format="ascii" RangeMin="0" RangeMax="38.28936708219877">
          24.295539072532602 -0.24850070220467846 0 37.800959597849555 6.096153298360584 0
          37.22751087461578 3.633524428413367 0 14.806588881397133 -3.5926971385618875 0
          36.2766865112936 2.293585860462553 0 0 0 0
          35.866480416388605 1.4721763939790318 0 0 0 0
          12.39625530143759 -1.7046366858307958 0 35.47779100574387 0.8715153665095142 0
          0 0 0 10.035766054700693 -1.1871782192264924 0
          0 0 0 35.01205856298119 0.4611861647758292 0
          6.345774613425127 0.22616297153629358 0 0 0 0
          4.193233664302625 0.526538749482022 0 34.5923539625236 0.2143942512224916 0
          0 0 0 2.756420591150918 0.6201826464700728 0
          34.360442375567615 0.06981691316492515 0 1.8459574794306122 0.604490126265982 0
          0 0 0 34.162173407837884 0.0070972697157046325 0
          1.1197918683204773 0.5213766156478167 0 0 0 0
          17.313003674746017 -16.770781750624216 0 0.6641274862144034 0.3831235812569405 0
          0 0 0 0.3951821708884419 0.22803884429994736 0
          0 0 0 0.3474452479631667 0.06547883526214192 0
          0.21234974039486357 0.21405423603659235 0
          <InformationKey name="L2_NORM_RANGE" location="vtkDataArray" length="2">
            <Value index="0">
              0
            </Value>
            <Value index="1">
              38.289367082
            </Value>
          </InformationKey>
        </DataArray>
        <DataArray type="Float64" Name="Velocity" NumberOfComponents="3" format="ascii" RangeMin="0" RangeMax="0.1042248505257789">
          0.10397431564514631 0.007222267874043337 0 0.09627382326743028 0.007611820132486007 0
          0.08832709683300946 0.008396077631076956 0 0.103789835149094 -0.0006583762062877688 0
          0.07922702094730458 0.009702825224304242 0 0.09611197384590295 -0.000564765091990293 0
          0.06828532594772575 0.011271909551935022 0 0.08823267451896269 -0.0005046361811486094 0
          0.10360363781032547 -0.008557984595161789 0 0.05532524077666546 0.012579744449714277 0
          0.07925462116436237 -0.0005813053491344787 0 0.09585527858952038 -0.008677142995275555 0
          0.0682739987200621 -0.0005137293258295345 0 0.04096203914205933 0.01300107377297901 0
          0.08785246961932684 -0.009360754455631014 0 0.05513938080968048 -0.0005176567176061196 0
          0.07874718683145694 -0.010641009965938825 0 0.026580042349347067 0.012019474111901083 0
          0.04044965057262662 -0.0004456348408098552 0 0.06780760686648996 -0.012195389406672079 0
          0.01398987385200838 0.009423570817146024 0 0.054871469871688394 -0.01345735636283435 0
          0.025868809731644 -0.0002910115342166473 0 0.005238149339302427 0.005224050234834028 0
          0.040528341157333496 -0.013781499972235723 0 0.012986887502318651 -0.00025831724312126334 0
          0 0 0 0.0261729825813724 -0.012651436716454823 0
          0.0035824947152744485 -0.00015629304231925287 0 0.013579504782622882 -0.009879260663157462 0
          0 0 0 0.004809870111292129 -0.005452222559826054 0
          0 0 0
          <InformationKey name="L2_NORM_RANGE" location="vtkDataArray" length="2">
            <Value index="0">
              0
            </Value>
            <Value index="1">
              0.10422485053
            </Value>
          </InformationKey>
        </DataArray>
      </PointData>
      <CellData>
        <DataArray type="UInt8" Name="vtkGhostType" format="ascii" RangeMin="0" RangeMax="0">
          0 0 0 0 0 0
          0 0 0 0 0 0
          0 0 0 0 0 0
          0 0
        </DataArray>
        <DataArray type="Float64" Name="Stress" NumberOfComponents="6" format="ascii" RangeMin="55.1070838772989" RangeMax="2686.0256665949955">
          5.274649980998109 -31.929725941557816 0 44.60337837355621 0 0
          -29.68534843426388 25.86134919675189 0 42.714116131990565 0 0
          -27.59831742104727 127.35126293721801 0 96.7987001256049 0 0
          1.568841727178036 -132.89581420969262 0 98.31340118764986 0 0
          -521.162905292625 -2616.174289012314 0 314.25339658459114 0 0
          498.679524757301 2582.399257591018 0 316.0520032243859 0 0
          -0.6538261059074912 -297.3504490576565 0 141.37974874890102 0 0
          -28.248403457401924 286.7001837484179 0 140.55469020674406 0 0
          -116.68866578624488 2084.7689863984383 0 300.53164121652486 0 0
          82.60871188359283 -2124.759694697742 0 299.9937838048493 0 0
          -26.42361008288315 493.98974383332927 0 176.86207396103057 0 0
          -3.524478460271382 -512.5417136571563 0 176.4666952834944 0 0
          -10.34096484554729 1722.061111129313 0 282.42473145115 0 0
          -19.894164155498345 -1752.7220201216358 0 283.6925921449095 0 0
          -5.218847947743939 -769.0788012375956 0 207.74549802308394 0 0
          -25.003799595448726 745.4883122332064 0 207.50501277388767 0 0
          4.480803324911392 -1392.527351738088 0 260.90793230483337 0 0
          -33.27650771987382 1364.7362824728398 0 261.5057684196111 0 0
          -23.856259406715594 1033.4641470714525 0 235.59700003239564 0 0
          -9.329192127739674 -1064.8330669431211 0 236.08948633438402 0 0
          <InformationKey name="L2_NORM_RANGE" location="vtkDataArray" length="2">
            <Value index="0">
              55.107083877
            </Value>
            <Value index="1">
              2686.0256666
            </Value>
          </InformationKey>
        </DataArray>
        <DataArray type="Float64" Name="Strain" NumberOfComponents="6" format="ascii" RangeMin="0.0006065154036528949" RangeMax="0.011944778745059826">
          0.00008626262299957915 -0.00015556582049703442 0 0.0005798439188562307 0 0
          -0.00018549796630956683 0.00017555556829203564 0 0.0005552835097158773 0 0
          -0.00037390730699334013 0.000633264965335384 0 0.0012583831016328637 0 0
          0.0002662850675675607 -0.0006077351960220986 0 0.001278074215439448 0 0
          0.002730248644492569 -0.01088732534968541 0 0.004085294155599684 0 0
          -0.002766686714656766 0.010777491548762397 0 0.004108676041917017 0 0
          0.0005768584668805511 -0.0013516695823058175 0 0.001837936733735713 0 0
          -0.0006875955940405937 0.0013595702227972347 0 0.0018272109726876727 0 0
          -0.004596232952804369 0.009713241786396072 0 0.003906911335814823 0 0
          0.004519151043730943 -0.009828743599047729 0 0.0038999191894630416 0 0
          -0.0010835074263521108 0.0022991793741032707 0 0.002299206961493397 0 0
          0.00098341996463722 -0.002325192064142531 0 0.0022940670386854267 0 0
          -0.0034050705567494005 0.00785554293708719 0 0.0036715215088649494 0 0
          0.0033272894923296725 -0.00793609157145022 0 0.003688003697883823 0 0
          0.0014759579042510768 -0.00348913179213296 0 0.0027006914743000904 0 0
          -0.0015674694970140447 0.0034407292298722146 0 0.0026975651660605393 0 0
          0.0027358159910176195 -0.006344737016891879 0 0.003391803119962833 0 0
          -0.0028126438609474644 0.006274439275305176 0 0.0033995749894549436 0 0
          -0.002123801067089889 0.0047487815750182055 0 0.0030627610004211425 0 0
          0.0020339766563578707 -0.004826798529942109 0 0.003069163322346993 0 0
          <InformationKey name="L2_NORM_RANGE" location="vtkDataArray" length="2">
            <Value index="0">
              0.00060651540365
            </Value>
            <Value index="1">
              0.011944778745
            </Value>
          </InformationKey>
        </DataArray>
        <DataArray type="Float64" Name="Btraction" NumberOfComponents="3" format="ascii" RangeMin="0.15642673343702923" RangeMax="18.914177899965154">
          6.80071104570868 -1.324333456098171 0 15.52412466759554 1.4619131490389763 0
          18.757117618116332 2.432419431693488 0 4.095385167031455 -0.2402538119225497 0
          0.13994874708950755 0.06988326782468357 0 12.868794270645974 -4.190921120227127 0
          2.6347520694319377 0.1881754302545789 0 18.37604934647734 1.4817775722189799 0
          17.130653945851375 0.01922854572015744 0 0.18565685471290214 0.07337941989052232 0
          18.035791731920547 0.941440563610396 0 1.7374135638633854 0.28668034898802364 0
          17.2381990845228 0.0710527910968542 0 0.2648274142757113 0.15279060638922198 0
          1.1505945176453825 0.30616819318401367 0 17.836067855533116 0.5859229401221364 0
          0.4459798386337201 0.22612504922618928 0 17.401103131376196 0.1688951039995802 0
          17.622462392181262 0.33317538282133585 0 0.7414373369377723 0.28146668547844966 0
          <InformationKey name="L2_NORM_RANGE" location="vtkDataArray" length="2">
            <Value index="0">
              0.15642673344
            </Value>
            <Value index="1">
              18.9141779
            </Value>
          </InformationKey>
        </DataArray>
      </CellData>
      <Points>
        <DataArray type="Float32" Name="Points" NumberOfComponents="3" format="ascii" RangeMin="1.4500000476837158" RangeMax="1.6286497021092299">
          1.4500000476837158 0.5 0 1.4500000476837158 0.44999998807907104 0
          1.4500000476837158 0.4000000059604645 0 1.5 0.5 0
          1.4500000476837158 0.3499999940395355 0 1.5002609491348267 0.45016080141067505 0
          1.4500000476837158 0.30000001192092896 0 1.5001590251922607 0.4000298082828522 0
          1.5499999523162842 0.5 0 1.4500000476837158 0.25 0
          1.5005459785461426 0.35020819306373596 0 1.5499999523162842 0.44999998807907104 0
          1.5002089738845825 0.30000561475753784 0 1.4500000476837158 0.20000000298023224 0
          1.5499999523162842 0.4000000059604645 0 1.5002909898757935 0.24981409311294556 0
          1.5499999523162842 0.3499999940395355 0 1.4500000476837158 0.15000000596046448 0
          1.5001939535140991 0.19956040382385254 0 1.5499999523162842 0.30000001192092896 0
          1.4500000476837158 0.10000000149011612 0 1.5499999523162842 0.25 0
          1.499879002571106 0.15004639327526093 0 1.4500000476837158 0.05000000074505806 0
          1.5499999523162842 0.20000000298023224 0 1.5001660585403442 0.10008130222558975 0
          1.4500000476837158 0 0 1.5499999523162842 0.15000000596046448 0
          1.5000410079956055 0.050020311027765274 0 1.5499999523162842 0.10000000149011612 0
          1.5 0 0 1.5499999523162842 0.05000000074505806 0
          1.5499999523162842 0 0
          <InformationKey name="L2_NORM_RANGE" location="vtkDataArray" length="2">
            <Value index="0">
              1.4500000477
            </Value>
            <Value index="1">
              1.6286497021
            </Value>
          </InformationKey>
        </DataArray>
      </Points>
      <Cells>
        <DataArray type="Int64" Name="connectivity" format="ascii" RangeMin="0" RangeMax="32">
          11 8 3 5 3 0
          1 5 1 2 7 5
          11 5 7 14 32 31
          28 30 26 30 28 23
          16 14 7 10 7 2
          4 10 20 23 28 25
          28 31 29 25 4 6
          12 10 16 10 12 19
          17 20 25 22 25 29
          27 22 21 19 12 15
          12 6 9 15 27 24
          18 22 17 22 18 13
          9 13 18 15 15 18
          24 21
        </DataArray>
        <DataArray type="Int64" Name="offsets" format="ascii" RangeMin="4" RangeMax="80">
          4 8 12 16 20 24
          28 32 36 40 44 48
          52 56 60 64 68 72
          76 80
        </DataArray>
        <DataArray type="UInt8" Name="types" format="ascii" RangeMin="9" RangeMax="9">
          9 9 9 9 9 9
          9 9 9 9 9 9
          9 9 9 9 9 9
          9 9
        </DataArray>
      </Cells>
    </Piece>
  </UnstructuredGrid>
</VTKFile>
