<?xml version="1.0"?>
<VTKFile type="UnstructuredGrid" version="0.1" byte_order="LittleEndian" header_type="UInt32" compressor="vtkZLibDataCompressor">
  <UnstructuredGrid>
    <Piece NumberOfPoints="33" NumberOfCells="20">
      <PointData>
        <DataArray type="Float64" Name="sld_BC" NumberOfComponents="3" format="ascii" RangeMin="0" RangeMax="0">
          0 0 0 0 0 0
          0 0 0 0 0 0
          0 0 0 0 0 0
          0 0 0 0 0 0
          0 0 0 0 0 0
          0 0 0 0 0 0
          0 0 0 0 0 0
          0 0 0 0 0 0
          0 0 0 0 0 0
          0 0 0 0 0 0
          0 0 0 0 0 0
          0 0 0 0 0 0
          0 0 0 0 0 0
          0 0 0 0 0 0
          0 0 0 0 0 0
          0 0 0 0 0 0
          0 0 0
          <InformationKey name="L2_NORM_RANGE" location="vtkDataArray" length="2">
            <Value index="0">
              0
            </Value>
            <Value index="1">
              0
            </Value>
          </InformationKey>
        </DataArray>
        <DataArray type="Float64" Name="sld_FIXNO" NumberOfComponents="3" format="ascii" RangeMin="1.4142135623730951" RangeMax="1.4142135623730951">
          -1 -1 0 -1 -1 0
          -1 -1 0 -1 -1 0
          -1 -1 0 -1 -1 0
          -1 -1 0 -1 -1 0
          -1 -1 0 -1 -1 0
          -1 -1 0 -1 -1 0
          -1 -1 0 -1 -1 0
          -1 -1 0 -1 -1 0
          -1 -1 0 -1 -1 0
          -1 -1 0 -1 -1 0
          -1 -1 0 -1 -1 0
          -1 -1 0 -1 -1 0
          -1 -1 0 -1 -1 0
          1 1 0 -1 -1 0
          -1 -1 0 -1 -1 0
          1 1 0 -1 -1 0
          1 1 0
          <InformationKey name="L2_NORM_RANGE" location="vtkDataArray" length="2">
            <Value index="0">
              1.4142135624
            </Value>
            <Value index="1">
              1.4142135624
            </Value>
          </InformationKey>
        </DataArray>
        <DataArray type="Float64" Name="Disp" NumberOfComponents="3" format="ascii" RangeMin="0" RangeMax="0.003324759781770079">
          0.003309817425153721 0.0003148590456452133 0 0.003030362927314632 0.00031328978797467977 0
          0.002759337089875616 0.0003162857147968291 0 0.0033052594345723807 0.0000347242122202091 0
          0.0024793489663633775 0.00033242100767848627 0 0.0030263544608949387 0.00003221662789759354 0
          0.002168950837205225 0.00036121048778949797 0 0.0027564978943356395 0.00003085085036505161 0
          0.003305061363311437 -0.00024465564978436887 0 0.0018108510799289055 0.00039340844133658987 0
          0.002480532011884164 0.000025719066163295853 0 0.003024702844693186 -0.0002448832709323775 0
          0.002170695639825277 0.000024098898234039163 0 0.0014041993081811172 0.0004126535335155108 0
          0.0027523857552848798 -0.00025197179118215747 0 0.0018101941861502799 0.00001909869278074513 0
          0.0024716060991198906 -0.00027377845571031597 0 0.0009709331093480085 0.0003993747757074559 0
          0.0013964203001961852 0.000015085445708507247 0 0.0021601888992621695 -0.00030986821580292916 0
          0.0005533536150695017 0.0003350440005507726 0 0.0018016180687546951 -0.00035062178041486784 0
          0.0009579589361521586 0.000012861291820579628 0 0.00022270200321143833 0.00020033543671129655 0
          0.0013946768609306322 -0.00037914143049615174 0 0.0005297501336255596 0.000006333444186034347 0
          0 0 0 0.0009615568486676052 -0.00037519870191295607 0
          0.00017086554313292565 0.0000025113598489104065 0 0.0005439302015599106 -0.0003200955965925584 0
          0 0 0 0.00021353133218756797 -0.00019310816879786484 0
          0 0 0
          <InformationKey name="L2_NORM_RANGE" location="vtkDataArray" length="2">
            <Value index="0">
              0
            </Value>
            <Value index="1">
              0.0033247597818
            </Value>
          </InformationKey>
        </DataArray>
        <DataArray type="Float64" Name="Sld_traction" NumberOfComponents="3" format="ascii" RangeMin="0" RangeMax="591.6154416316647">
          10.312367169638593 -1.1103198052348502 0 25.896418382344677 8.11895430750275 0
          37.16513012257928 17.447795550426036 0 0.1123017820403181 -0.1038972493297884 0
          53.143831488657 15.95246855493962 0 0 0 0
          63.71585522261458 3.2774985074665848 0 0 0 0
          -0.15842375348280843 2.0884666181989444 0 58.80835243899556 -18.821180031368698 0
          0 0 0 1.950131390165166 -4.936650446675459 0
          0 0 0 32.69812473077375 -45.079187138355366 0
          11.408657379875184 -14.550423884284601 0 0 0 0
          25.886968583638815 -13.654125767872156 0 -16.195939033762407 -71.54894431657229 0
          0 0 0 34.9975640231337 -1.607500178281989 0
          -84.39252187291818 -89.3209100068824 0 29.553079274855044 19.774480566652265 0
          0 0 0 -178.63173706591715 -138.73406635619847 0
          3.232476744154762 45.52592020519988 0 0 0 0
          -342.53540228601054 -482.36742111982494 0 -45.47903200361934 71.82297932212778 0
          0 0 0 -114.80568111909766 89.85086396089707 0
          -287.02513609724366 -15.482164456562074 0 -202.34544706825477 133.57447770734743 0
          -337.73393593304274 458.375745370939 0
          <InformationKey name="L2_NORM_RANGE" location="vtkDataArray" length="2">
            <Value index="0">
              0
            </Value>
            <Value index="1">
              591.61544163
            </Value>
          </InformationKey>
        </DataArray>
        <DataArray type="Float64" Name="Fld_traction" NumberOfComponents="3" format="ascii" RangeMin="0" RangeMax="38.7005542264249">
          24.610561765057785 -0.4703833256938996 0 38.246981511300405 5.907732450500731 0
          37.55022427769227 3.410690094871239 0 14.88375644753348 -3.781586406734313 0
          36.49463910774969 2.067747700446949 0 0 0 0
          35.998134318973634 1.2685652167463077 0 0 0 0
          12.18061450284215 -1.5572788328702964 0 35.54588820787997 0.7079085262662473 0
          0 0 0 9.617162910808943 -0.79595861785811 0
          0 0 0 35.05185080413938 0.3472543144013709 0
          6.006167350810897 0.5856262251126738 0 0 0 0
          3.895118463559897 0.8614204625827747 0 34.64223135350938 0.14579742551812314 0
          0 0 0 2.4787756362360853 0.9137838344094442 0
          34.421302709539724 0.03710653115878969 0 1.5751754645768092 0.8331777756794572 0
          0 0 0 34.25008335135725 -0.0006743396204507541 0
          0.8890069402096791 0.675135937493872 0 0 0 0
          17.36732640116761 -16.824645412507955 0 0.46710938102435834 0.4540909387449767 0
          0 0 0 0.29229487527036974 0.2417564302302086 0
          0 0 0 0.32379749502955846 0.06175050484846618 0
          0.21151363545929772 0.2147829831528373 0
          <InformationKey name="L2_NORM_RANGE" location="vtkDataArray" length="2">
            <Value index="0">
              0
            </Value>
            <Value index="1">
              38.700554226
            </Value>
          </InformationKey>
        </DataArray>
        <DataArray type="Float64" Name="Velocity" NumberOfComponents="3" format="ascii" RangeMin="0" RangeMax="0.1250613979797886">
          -0.12379996301359206 -0.01771785603543252 0 -0.10760905746593832 -0.017685767682313037 0
          -0.09126606800757138 -0.017797999614549673 0 -0.12377530783752952 -0.001516088716533031 0
          -0.07469102489669462 -0.01761394219888681 0 -0.1076512128958067 -0.0013529271974701182 0
          -0.05818792880587441 -0.01692011572359719 0 -0.09121571992679497 -0.0013912419549032425 0
          -0.12368993733894901 0.014737589594313366 0 -0.04236925513798621 -0.015603083502649039 0
          -0.0745800142474811 -0.0011599624596964637 0 -0.10745989831289957 0.014866094988360837 0
          -0.057890820358834416 -0.0010893349665334307 0 -0.027935615094709005 -0.013556922005330516 0
          -0.09102950383795577 0.01496984115728817 0 -0.04187858099165731 -0.0008802694909995245 0
          -0.07435056050016253 0.014974556456898633 0 -0.015781338654646683 -0.010685046778524686 0
          -0.0272228105288826 -0.0007376355256789321 0 -0.05782469519781514 0.014612804981274157 0
          -0.006974780939936135 -0.0071515648704063755 0 -0.0420182624789696 0.013667073550647283 0
          -0.015023476667335736 -0.0006353131492048626 0 -0.0020163582611353657 -0.0034055658169979347 0
          -0.027595953117482235 0.011980711582796672 0 -0.006101484459446634 -0.00036068185211665546 0
          0 0 0 -0.01543404151292874 0.009482725365882778 0
          -0.0010745921303687454 -0.00011666198228336795 0 -0.00653756397826042 0.006362393986551515 0
          0 0 0 -0.001699783670746361 0.0030200198706248666 0
          0 0 0
          <InformationKey name="L2_NORM_RANGE" location="vtkDataArray" length="2">
            <Value index="0">
              0
            </Value>
            <Value index="1">
              0.12506139798
            </Value>
          </InformationKey>
        </DataArray>
      </PointData>
      <CellData>
        <DataArray type="UInt8" Name="vtkGhostType" format="ascii" RangeMin="0" RangeMax="0">
          0 0 0 0 0 0
          0 0 0 0 0 0
          0 0 0 0 0 0
          0 0
        </DataArray>
        <DataArray type="Float64" Name="Stress" NumberOfComponents="6" format="ascii" RangeMin="3.1055746013219974" RangeMax="517.8539806715992">
          -1.0841951719062384 2.3518395094334226 0 1.7140494028642939 0 0
          -22.394616728557576 -3.8398354547545663 0 -0.39803921106236007 0 0
          -22.335470507321297 -11.892115943736055 0 -18.42671067034378 0 0
          -2.3843669990830634 18.798454460080745 0 -15.99580596479074 0 0
          -104.65491718176123 -463.51388911287927 0 145.02995886418518 0 0
          94.4169256800675 486.39857209678814 0 150.58093672424545 0 0
          -3.2643982557773237 52.89053732614011 0 -22.09826821476054 0 0
          -23.317865262207384 -39.20499787706978 0 -23.84737094044128 0 0
          -44.067046732671926 286.8924362813768 0 125.90092036258655 0 0
          13.916872514764268 -263.1857257823191 0 127.28804387956403 0 0
          -24.53865790042191 -65.43361183494892 0 -15.381424478356235 0 0
          -3.1867090738221844 86.11076619769585 0 -13.923367007502652 0 0
          -21.901579048290074 141.87419469847737 0 100.71492240846906 0 0
          -7.603735731256609 -114.54985261246199 0 101.05222490000345 0 0
          -3.0852959111051916 97.82191942190073 0 7.973310717401206 0 0
          -25.638007603443363 -71.97332466630905 0 7.1593842326539985 0 0
          -3.4265912567782184 0.2134003505903923 0 71.5294393037843 0 0
          -25.772164216987857 28.613274157518447 0 71.25029742189031 0 0
          -25.588429514161987 -42.76923519607657 0 38.53722395792053 0 0
          -3.453257602457962 71.5168153198374 0 39.05974512931664 0 0
          <InformationKey name="L2_NORM_RANGE" location="vtkDataArray" length="2">
            <Value index="0">
              3.1055746013
            </Value>
            <Value index="1">
              517.85398067
            </Value>
          </InformationKey>
        </DataArray>
        <DataArray type="Float64" Name="Strain" NumberOfComponents="6" format="ascii" RangeMin="0.000027410880225659766" RangeMax="0.0028667211608177047">
          -0.00000951917507556856 0.000012815050353139239 0 0.00002228264223723582 0 0
          -0.00009440782697816555 0.00002619825130155399 0 -0.0000051745097438106805 0 0
          -0.00007843676471802662 -0.000010554960054722503 0 -0.0002395472387144691 0 0
          -0.0000475058560429854 0.00009018248344157936 0 -0.00020794547754227955 0 0
          0.00042767221059310104 -0.001904911106959166 0 0.0018853894652344069 0 0
          -0.00051888020374443 0.0020290004979642545 0 0.0019575521774151906 0 0
          -0.00011798955984976006 0.0002470175214327033 0 -0.000287277486791887 0 0
          -0.00002964654108275752 -0.0001329129030793631 0 -0.00031001582222573657 0 0
          -0.0007599453133823419 0.0013912913262089746 0 0.001636711964713625 0 0
          0.0005765339352176995 -0.001224632953713342 0 0.001654744570434332 0 0
          0.00001594464963123069 -0.00024987255094319487 0 -0.00019995851821863106 0 0
          -0.0001824155203713979 0.0003980180688934694 0 -0.00018100377109753443 0 0
          -0.0003763068643317508 0.0006882356650222378 0 0.0013092939913100976 0 0
          0.00018877521501708332 -0.0005063745447107515 0 0.0013136789237000446 0 0
          -0.00020479083926823504 0.00045110606039630336 0 0.00010365303932621568 0 0
          0.00002369504850363536 -0.00027748451240499163 0 0.00009307199502450192 0 0
          -0.000016007120901992147 0.000007652824545903808 0 0.0009298827109491957 0 0
          -0.00017305923179445574 0.00018044611763983528 0 0.0009262538664845739 0 0
          -0.00003302734565708773 -0.0001447025825895325 0 0.0005009839114529669 0 0
          -0.00015517011196486668 0.00033213536203005324 0 0.0005077766866811162 0 0
          <InformationKey name="L2_NORM_RANGE" location="vtkDataArray" length="2">
            <Value index="0">
              2.7410880226e-05
            </Value>
            <Value index="1">
              0.0028667211608
            </Value>
          </InformationKey>
        </DataArray>
        <DataArray type="Float64" Name="Btraction" NumberOfComponents="3" format="ascii" RangeMin="0.1506296734568392" RangeMax="19.091963957633133">
          6.766092737593907 -1.3347163099011523 0 15.714385819089548 1.359337281201708 0
          18.949301447248168 2.3296056363429924 0 3.9058325654049595 -0.052583098186359034 0
          0.133827782622214 0.06913337200032586 0 12.904352438131214 -4.206329938032101 0
          2.4753214535926986 0.3617616719238621 0 18.51121584636049 1.369609448829547 0
          17.167846515224245 0.009108047884584733 0 0.15402309257498203 0.07587673376966869 0
          18.12319335668083 0.834078229298314 0 1.5934735249489955 0.44380107424805465 0
          17.265883515762276 0.045725989169228196 0 0.189851064073682 0.17396184224379632 0
          1.0134877752032236 0.43674040252222535 0 17.886005631713395 0.49411843575313874 0
          0.33902908030850937 0.28230671905971216 0 17.423520539412188 0.12326293497987352 0
          17.649434753004833 0.26379071016690453 0 0.6160456011966221 0.37707842829333227 0
          <InformationKey name="L2_NORM_RANGE" location="vtkDataArray" length="2">
            <Value index="0">
              0.15062967346
            </Value>
            <Value index="1">
              19.091963958
            </Value>
          </InformationKey>
        </DataArray>
      </CellData>
      <Points>
        <DataArray type="Float32" Name="Points" NumberOfComponents="3" format="ascii" RangeMin="1.4500000476837158" RangeMax="1.6286497021092299">
          1.4500000476837158 0.5 0 1.4500000476837158 0.44999998807907104 0
          1.4500000476837158 0.4000000059604645 0 1.5 0.5 0
          1.4500000476837158 0.3499999940395355 0 1.5002609491348267 0.45016080141067505 0
          1.4500000476837158 0.30000001192092896 0 1.5001590251922607 0.4000298082828522 0
          1.5499999523162842 0.5 0 1.4500000476837158 0.25 0
          1.5005459785461426 0.35020819306373596 0 1.5499999523162842 0.44999998807907104 0
          1.5002089738845825 0.30000561475753784 0 1.4500000476837158 0.20000000298023224 0
          1.5499999523162842 0.4000000059604645 0 1.5002909898757935 0.24981409311294556 0
          1.5499999523162842 0.3499999940395355 0 1.4500000476837158 0.15000000596046448 0
          1.5001939535140991 0.19956040382385254 0 1.5499999523162842 0.30000001192092896 0
          1.4500000476837158 0.10000000149011612 0 1.5499999523162842 0.25 0
          1.499879002571106 0.15004639327526093 0 1.4500000476837158 0.05000000074505806 0
          1.5499999523162842 0.20000000298023224 0 1.5001660585403442 0.10008130222558975 0
          1.4500000476837158 0 0 1.5499999523162842 0.15000000596046448 0
          1.5000410079956055 0.050020311027765274 0 1.5499999523162842 0.10000000149011612 0
          1.5 0 0 1.5499999523162842 0.05000000074505806 0
          1.5499999523162842 0 0
          <InformationKey name="L2_NORM_RANGE" location="vtkDataArray" length="2">
            <Value index="0">
              1.4500000477
            </Value>
            <Value index="1">
              1.6286497021
            </Value>
          </InformationKey>
        </DataArray>
      </Points>
      <Cells>
        <DataArray type="Int64" Name="connectivity" format="ascii" RangeMin="0" RangeMax="32">
          11 8 3 5 3 0
          1 5 1 2 7 5
          11 5 7 14 32 31
          28 30 26 30 28 23
          16 14 7 10 7 2
          4 10 20 23 28 25
          28 31 29 25 4 6
          12 10 16 10 12 19
          17 20 25 22 25 29
          27 22 21 19 12 15
          12 6 9 15 27 24
          18 22 17 22 18 13
          9 13 18 15 15 18
          24 21
        </DataArray>
        <DataArray type="Int64" Name="offsets" format="ascii" RangeMin="4" RangeMax="80">
          4 8 12 16 20 24
          28 32 36 40 44 48
          52 56 60 64 68 72
          76 80
        </DataArray>
        <DataArray type="UInt8" Name="types" format="ascii" RangeMin="9" RangeMax="9">
          9 9 9 9 9 9
          9 9 9 9 9 9
          9 9 9 9 9 9
          9 9
        </DataArray>
      </Cells>
    </Piece>
  </UnstructuredGrid>
</VTKFile>
