<?xml version="1.0"?>
<VTKFile type="UnstructuredGrid" version="0.1" byte_order="LittleEndian" header_type="UInt32" compressor="vtkZLibDataCompressor">
  <UnstructuredGrid>
    <Piece NumberOfPoints="33" NumberOfCells="20">
      <PointData>
        <DataArray type="Float64" Name="sld_BC" NumberOfComponents="3" format="ascii" RangeMin="0" RangeMax="0">
          0 0 0 0 0 0
          0 0 0 0 0 0
          0 0 0 0 0 0
          0 0 0 0 0 0
          0 0 0 0 0 0
          0 0 0 0 0 0
          0 0 0 0 0 0
          0 0 0 0 0 0
          0 0 0 0 0 0
          0 0 0 0 0 0
          0 0 0 0 0 0
          0 0 0 0 0 0
          0 0 0 0 0 0
          0 0 0 0 0 0
          0 0 0 0 0 0
          0 0 0 0 0 0
          0 0 0
          <InformationKey name="L2_NORM_RANGE" location="vtkDataArray" length="2">
            <Value index="0">
              0
            </Value>
            <Value index="1">
              0
            </Value>
          </InformationKey>
        </DataArray>
        <DataArray type="Float64" Name="sld_FIXNO" NumberOfComponents="3" format="ascii" RangeMin="1.4142135623730951" RangeMax="1.4142135623730951">
          -1 -1 0 -1 -1 0
          -1 -1 0 -1 -1 0
          -1 -1 0 -1 -1 0
          -1 -1 0 -1 -1 0
          -1 -1 0 -1 -1 0
          -1 -1 0 -1 -1 0
          -1 -1 0 -1 -1 0
          -1 -1 0 -1 -1 0
          -1 -1 0 -1 -1 0
          -1 -1 0 -1 -1 0
          -1 -1 0 -1 -1 0
          -1 -1 0 -1 -1 0
          -1 -1 0 -1 -1 0
          1 1 0 -1 -1 0
          -1 -1 0 -1 -1 0
          1 1 0 -1 -1 0
          1 1 0
          <InformationKey name="L2_NORM_RANGE" location="vtkDataArray" length="2">
            <Value index="0">
              1.4142135624
            </Value>
            <Value index="1">
              1.4142135624
            </Value>
          </InformationKey>
        </DataArray>
        <DataArray type="Float64" Name="Disp" NumberOfComponents="3" format="ascii" RangeMin="0" RangeMax="0.004651217266831473">
          -0.004584395090325423 -0.0007306113613013367 0 -0.0038379980723615655 -0.000729554629355434 0
          -0.0030833720702435046 -0.0007163562991754926 0 -0.004588690517458292 0.00001282533674409306 0
          -0.002347868613035774 -0.0006777736177927896 0 -0.003844068664762463 0.00001598650909360235 0
          -0.0016655319693442256 -0.0006090378526750167 0 -0.003083324759844173 0.000013583724568483739 0
          -0.004589171604845919 0.0007571829663609451 0 -0.0010729449071228598 -0.0005118245959035298 0
          -0.002344083966482544 0.00001771767360877887 0 -0.0038432931630903826 0.0007550640304590208 0
          -0.0016525749169824808 0.000011481738824043476 0 -0.0005998978606731488 -0.0003943410048877973 0
          -0.003089465909955116 0.0007399910136159087 0 -0.0010523898674052023 0.00001034742117453851 0
          -0.0023542039939488915 0.000699181287318037 0 -0.0002635271197453725 -0.0002694186168665875 0
          -0.0005746303371576843 0.000007341840282620702 0 -0.0016725785243300048 0.0006275080822607652 0
          -0.000064699705450277 -0.0001523863375828843 0 -0.001079932617400681 0.0005270928505427317 0
          -0.00024225971269862273 0.000003425025977868577 0 0.000012104962146083764 -0.000057267300393476463 0
          -0.000606905565236874 0.0004061413391972903 0 -0.00004673118416961598 0.0000028361595824181376 0
          0 0 0 -0.0002710688616175807 0.00027777991662645505 0
          0.000025255566141243018 4.495164291522766e-7 0 -0.00007181588545048941 0.00015731812332081367 0
          0 0 0 0.000004904165354740838 0.00005952222902327447 0
          0 0 0
          <InformationKey name="L2_NORM_RANGE" location="vtkDataArray" length="2">
            <Value index="0">
              0
            </Value>
            <Value index="1">
              0.0046512172668
            </Value>
          </InformationKey>
        </DataArray>
        <DataArray type="Float64" Name="Sld_traction" NumberOfComponents="3" format="ascii" RangeMin="0" RangeMax="166.30768001647596">
          9.760596540944661 -3.476731030593468 0 32.91392545240769 16.72393089637451 0
          55.16570534166508 33.36014032503412 0 -4.36863790716158 -1.956803153944801 0
          87.79519291868358 39.75569364357758 0 0 0 0
          122.53660294047133 37.385473241752344 0 0 0 0
          -1.3422953794817227 2.3773248041809807 0 150.73591303149016 26.87637385519563 0
          0 0 0 7.559887157926569 -13.873655636342074 0
          0 0 0 166.00459073582627 10.035949735494896 0
          27.357768632310776 -30.767533118603918 0 0 0 0
          58.30713194730372 -37.56012807846317 0 165.7085223534959 -10.990122414186354 0
          0 0 0 91.42141656292421 -35.85256600949139 0
          148.57671231979728 -31.726177622541474 0 119.52180968296466 -26.085355629523704 0
          0 0 0 112.39313976986509 -49.15799258788919 0
          134.94692282038642 -9.480226399051034 0 0 0 0
          41.592994428100326 78.26035591847192 0 133.9955423651008 11.36300562680403 0
          0 0 0 116.40581858643559 32.29914050756719 0
          -30.255530510766526 -3.6416805680743782 0 85.6389267629406 45.17531486904355 0
          41.42214119948723 -88.29771000664259 0
          <InformationKey name="L2_NORM_RANGE" location="vtkDataArray" length="2">
            <Value index="0">
              0
            </Value>
            <Value index="1">
              166.30768002
            </Value>
          </InformationKey>
        </DataArray>
        <DataArray type="Float64" Name="Fld_traction" NumberOfComponents="3" format="ascii" RangeMin="0" RangeMax="38.704042106487066">
          24.61498681897771 -0.4817191878971962 0 38.251555640723204 5.900963179463219 0
          37.552359020768044 3.4051211587506476 0 14.884004116546585 -3.795110665441488 0
          36.49567253135639 2.063292684253277 0 0 0 0
          35.9983607208887 1.2651808859171099 0 0 0 0
          12.17388548439843 -1.5599498358252655 0 35.545812715904454 0.7055497061445601 0
          0 0 0 9.605321701184863 -0.7917152924533704 0
          0 0 0 35.05196589034828 0.34578148490735805 0
          5.996430524415937 0.5889231025134297 0 0 0 0
          3.8873617029953262 0.8639587012517085 0 34.64283458018 0.1449950473874646 0
          0 0 0 2.4729727783963993 0.9155868817288667 0
          34.42228162299705 0.03677449009494498 0 1.5709728432261678 0.8341962255047807 0
          0 0 0 34.251530637416415 -0.0007379428603903266 0
          0.8866549798754181 0.6754441943799514 0 0 0 0
          17.368178756331815 -16.825487238841905 0 0.46609452636447907 0.4537923682752381 0
          0 0 0 0.2929016670650934 0.2412393260048235 0
          0 0 0 0.32531695049531817 0.061515036269299904 0
          0.21226880288511674 0.21554696377195467 0
          <InformationKey name="L2_NORM_RANGE" location="vtkDataArray" length="2">
            <Value index="0">
              0
            </Value>
            <Value index="1">
              38.704042106
            </Value>
          </InformationKey>
        </DataArray>
        <DataArray type="Float64" Name="Velocity" NumberOfComponents="3" format="ascii" RangeMin="0" RangeMax="0.042168525596617296">
          0.041753091883570424 0.0003470514820727525 0 0.040098369133874295 0.0004802901779682907 0
          0.03844590870970894 0.0008434107783350927 0 0.04189963690190425 -0.0013934696440865025 0
          0.03622092703071279 0.0018617865992495751 0 0.0403139540492583 -0.0013573482006218748 0
          0.03264040365428617 0.0033477850636062026 0 0.038812747878196587 -0.0013751712321249474 0
          0.04205721281614623 -0.0030619276820253753 0 0.02712048284733984 0.00478293707101788 0
          0.03674874251475969 -0.001304318743334897 0 0.040484428835396234 -0.0031051326781120023 0
          0.03318454870366987 -0.0011714376665520323 0 0.020009811164619577 0.005539776355754578 0
          0.03894608264064285 -0.0035306978849244447 0 0.027547838067069806 -0.0011060646191555377 0
          0.03678457326575371 -0.00439751259768403 0 0.012604714066181025 0.005294258522781606 0
          0.0201999915923582 -0.001025717956183682 0 0.033162303407142275 -0.00567429611411748 0
          0.006197174528926563 0.004170025528067308 0 0.0276157796872702 -0.006936757019791313 0
          0.01266398358897954 -0.0008720765239748611 0 0.0018669207882136946 0.0022906811795820946 0
          0.02051537566134183 -0.0075254173328063905 0 0.006187037813755961 -0.0006582175450892188 0
          0 0 0 0.013180308356182823 -0.007009630374186769 0
          0.0015340174715512333 -0.00024202640105133112 0 0.006939507855118793 -0.005437470854008642 0
          0 0 0 0.002592735170471841 -0.0029740737156038442 0
          0 0 0
          <InformationKey name="L2_NORM_RANGE" location="vtkDataArray" length="2">
            <Value index="0">
              0
            </Value>
            <Value index="1">
              0.042168525597
            </Value>
          </InformationKey>
        </DataArray>
      </PointData>
      <CellData>
        <DataArray type="UInt8" Name="vtkGhostType" format="ascii" RangeMin="0" RangeMax="0">
          0 0 0 0 0 0
          0 0 0 0 0 0
          0 0 0 0 0 0
          0 0
        </DataArray>
        <DataArray type="Float64" Name="Stress" NumberOfComponents="6" format="ascii" RangeMin="7.175467656062633" RangeMax="284.1783209782168">
          -2.4070825622437573 5.2178261762395595 0 -4.2973921878614085 0 0
          -21.78265555384015 -10.08571816517723 0 -6.4135399299923606 0 0
          -22.58566973577014 -36.67807015244152 0 -33.88751390703766 0 0
          -3.881623592164254 33.41327557575946 0 -31.444512154162496 0 0
          14.355070750129883 137.88697809243516 0 68.67521386879103 0 0
          -30.211742723371927 -137.8573423360522 0 73.11037784985719 0 0
          -4.937886437507 90.66363601595144 0 -45.61750688943607 0 0
          -23.39375958095772 -91.96255062336753 0 -47.51086881291715 0 0
          -23.25301126764666 -214.27572145867248 0 49.08666272150996 0 0
          -7.755870430250713 216.1781272788854 0 50.44560909561065 0 0
          -24.504403860789864 -157.34559986650964 0 -49.93547869615305 0 0
          -4.951308534340734 159.19925141892645 0 -48.18703831037553 0 0
          -26.019217091615598 -264.42846755837763 0 25.96546013171264 0 0
          -5.386325674203498 266.5066022671235 0 26.15185434864137 0 0
          -4.752337086126985 222.90778489893495 0 -40.256577219013245 0 0
          -25.625652474080265 -219.83528542691263 0 -41.231120471205585 0 0
          -6.790854473226496 284.0930860216924 0 1.5234448441488588 0 0
          -24.44278201248009 -281.9532126028738 0 0.9777301318125602 0 0
          -26.017931624488032 -264.28956413365347 0 -22.920293128563117 0 0
          -4.0286950352048905 268.2821660346841 0 -22.348209926129165 0 0
          <InformationKey name="L2_NORM_RANGE" location="vtkDataArray" length="2">
            <Value index="0">
              7.1754676561
            </Value>
            <Value index="1">
              284.17832098
            </Value>
          </InformationKey>
        </DataArray>
        <DataArray type="Float64" Name="Strain" NumberOfComponents="6" format="ascii" RangeMin="0.00006615070070112169" RangeMax="0.0014310003423269344">
          -0.000021126986701876238 0.000028434920098265325 0 -0.000055866098442198305 0 0
          -0.00007944393234787708 -0.0000034138393215681004 0 -0.00008337601908990069 0 0
          -0.000031242560500493136 -0.00012284316320885713 0 -0.00044053768079148955 0 0
          -0.0000828172747170783 0.00015959956987442582 0 -0.0004087786580041124 0 0
          -0.00020356403536715757 0.0005993933623578266 0 0.0008927777802942833 0 0
          0.0001313583881639595 -0.0005683380093184622 0 0.0009504349120481432 0 0
          -0.0001992614735217622 0.00042214842242571784 0 -0.000593027589562669 0 0
          0.00007288536762220911 -0.0003728117741534547 0 -0.0006176412945679229 0 0
          0.00031203645557661904 -0.0009296111606650488 0 0.0006381266153796293 0 0
          -0.0004568365586514673 0.0009987344264579172 0 0.0006557929182429384 0 0
          0.00019532888217310004 -0.0006681388918640788 0 -0.0006491612230499896 0 0
          -0.00033296699409815695 0.0007340116455980797 0 -0.0006264314980348818 0 0
          0.0003972480739719852 -0.0011524120540619672 0 0.0003375509817122642 0 0
          -0.000544195656238517 0.001223108375380109 0 0.0003399741065323377 0 0
          -0.0004562933142948011 0.0010234974786081017 0 -0.0005233355038471721 0 0
          0.00031208208782541446 -0.000950280526367996 0 -0.0005360045661256725 0 0
          -0.0005848799055954808 0.0013058657076214922 0 0.000019804782973935093 0 0
          0.0004385941064188195 -0.0012352236924187397 0 0.000012710491713563291 0 0
          0.0003969830611692039 -0.0011517825501403715 0 -0.0002979638106713204 0 0
          -0.0005414807861778165 0.0012285398107764625 0 -0.00029052672903967915 0 0
          <InformationKey name="L2_NORM_RANGE" location="vtkDataArray" length="2">
            <Value index="0">
              6.6150700701e-05
            </Value>
            <Value index="1">
              0.0014310003423
            </Value>
          </InformationKey>
        </DataArray>
        <DataArray type="Float64" Name="Btraction" NumberOfComponents="3" format="ascii" RangeMin="0.1511956088367958" RangeMax="19.09325254461081">
          6.764472400236253 -1.3387651253166883 0 15.716635614925226 1.3548109978915055 0
          18.95097866537281 2.3265210845534665 0 3.9004380564001995 -0.05069804748498516 0
          0.1343964383451087 0.06926550001031365 0 12.90492734843706 -4.206556295425575 0
          2.4709480568528157 0.3632204509412845 0 18.512007888031107 1.367103460750981 0
          17.168453065103364 0.009009136808638666 0 0.1545546543901029 0.07568859056853085 0
          18.123508313061272 0.8321183925425966 0 1.590083620347931 0.4448863957451437 0
          17.266279050794264 0.045442384370602384 0 0.1897490483573931 0.1737579235700154 0
          1.0109864054056417 0.4374457768084118 0 17.886043359198283 0.49268264801541745 0
          0.3381873765599742 0.28230914066379736 0 17.42370011763207 0.12269413307370564 0
          17.64944465156318 0.2628327977629796 0 0.6144069557753964 0.377410104971183 0
          <InformationKey name="L2_NORM_RANGE" location="vtkDataArray" length="2">
            <Value index="0">
              0.15119560884
            </Value>
            <Value index="1">
              19.093252545
            </Value>
          </InformationKey>
        </DataArray>
      </CellData>
      <Points>
        <DataArray type="Float32" Name="Points" NumberOfComponents="3" format="ascii" RangeMin="1.4500000476837158" RangeMax="1.6286497021092299">
          1.4500000476837158 0.5 0 1.4500000476837158 0.44999998807907104 0
          1.4500000476837158 0.4000000059604645 0 1.5 0.5 0
          1.4500000476837158 0.3499999940395355 0 1.5002609491348267 0.45016080141067505 0
          1.4500000476837158 0.30000001192092896 0 1.5001590251922607 0.4000298082828522 0
          1.5499999523162842 0.5 0 1.4500000476837158 0.25 0
          1.5005459785461426 0.35020819306373596 0 1.5499999523162842 0.44999998807907104 0
          1.5002089738845825 0.30000561475753784 0 1.4500000476837158 0.20000000298023224 0
          1.5499999523162842 0.4000000059604645 0 1.5002909898757935 0.24981409311294556 0
          1.5499999523162842 0.3499999940395355 0 1.4500000476837158 0.15000000596046448 0
          1.5001939535140991 0.19956040382385254 0 1.5499999523162842 0.30000001192092896 0
          1.4500000476837158 0.10000000149011612 0 1.5499999523162842 0.25 0
          1.499879002571106 0.15004639327526093 0 1.4500000476837158 0.05000000074505806 0
          1.5499999523162842 0.20000000298023224 0 1.5001660585403442 0.10008130222558975 0
          1.4500000476837158 0 0 1.5499999523162842 0.15000000596046448 0
          1.5000410079956055 0.050020311027765274 0 1.5499999523162842 0.10000000149011612 0
          1.5 0 0 1.5499999523162842 0.05000000074505806 0
          1.5499999523162842 0 0
          <InformationKey name="L2_NORM_RANGE" location="vtkDataArray" length="2">
            <Value index="0">
              1.4500000477
            </Value>
            <Value index="1">
              1.6286497021
            </Value>
          </InformationKey>
        </DataArray>
      </Points>
      <Cells>
        <DataArray type="Int64" Name="connectivity" format="ascii" RangeMin="0" RangeMax="32">
          11 8 3 5 3 0
          1 5 1 2 7 5
          11 5 7 14 32 31
          28 30 26 30 28 23
          16 14 7 10 7 2
          4 10 20 23 28 25
          28 31 29 25 4 6
          12 10 16 10 12 19
          17 20 25 22 25 29
          27 22 21 19 12 15
          12 6 9 15 27 24
          18 22 17 22 18 13
          9 13 18 15 15 18
          24 21
        </DataArray>
        <DataArray type="Int64" Name="offsets" format="ascii" RangeMin="4" RangeMax="80">
          4 8 12 16 20 24
          28 32 36 40 44 48
          52 56 60 64 68 72
          76 80
        </DataArray>
        <DataArray type="UInt8" Name="types" format="ascii" RangeMin="9" RangeMax="9">
          9 9 9 9 9 9
          9 9 9 9 9 9
          9 9 9 9 9 9
          9 9
        </DataArray>
      </Cells>
    </Piece>
  </UnstructuredGrid>
</VTKFile>
