<?xml version="1.0"?>
<VTKFile type="UnstructuredGrid" version="0.1" byte_order="LittleEndian" header_type="UInt32" compressor="vtkZLibDataCompressor">
  <UnstructuredGrid>
    <Piece NumberOfPoints="33" NumberOfCells="20">
      <PointData>
        <DataArray type="Float64" Name="sld_BC" NumberOfComponents="3" format="ascii" RangeMin="0" RangeMax="0">
          0 0 0 0 0 0
          0 0 0 0 0 0
          0 0 0 0 0 0
          0 0 0 0 0 0
          0 0 0 0 0 0
          0 0 0 0 0 0
          0 0 0 0 0 0
          0 0 0 0 0 0
          0 0 0 0 0 0
          0 0 0 0 0 0
          0 0 0 0 0 0
          0 0 0 0 0 0
          0 0 0 0 0 0
          0 0 0 0 0 0
          0 0 0 0 0 0
          0 0 0 0 0 0
          0 0 0
          <InformationKey name="L2_NORM_RANGE" location="vtkDataArray" length="2">
            <Value index="0">
              0
            </Value>
            <Value index="1">
              0
            </Value>
          </InformationKey>
        </DataArray>
        <DataArray type="Float64" Name="sld_FIXNO" NumberOfComponents="3" format="ascii" RangeMin="1.4142135623730951" RangeMax="1.4142135623730951">
          -1 -1 0 -1 -1 0
          -1 -1 0 -1 -1 0
          -1 -1 0 -1 -1 0
          -1 -1 0 -1 -1 0
          -1 -1 0 -1 -1 0
          -1 -1 0 -1 -1 0
          -1 -1 0 -1 -1 0
          -1 -1 0 -1 -1 0
          -1 -1 0 -1 -1 0
          -1 -1 0 -1 -1 0
          -1 -1 0 -1 -1 0
          -1 -1 0 -1 -1 0
          -1 -1 0 -1 -1 0
          1 1 0 -1 -1 0
          -1 -1 0 -1 -1 0
          1 1 0 -1 -1 0
          1 1 0
          <InformationKey name="L2_NORM_RANGE" location="vtkDataArray" length="2">
            <Value index="0">
              1.4142135624
            </Value>
            <Value index="1">
              1.4142135624
            </Value>
          </InformationKey>
        </DataArray>
        <DataArray type="Float64" Name="Disp" NumberOfComponents="3" format="ascii" RangeMin="0" RangeMax="0.04521213777079166">
          0.044794514007033194 0.006130980074894399 0 0.0386606127237875 0.0061081086893636375 0
          0.032534792340117906 0.0060203917935428295 0 0.04478702049643036 0.000019793624329072536 0
          0.026513271500188156 0.005827604596088162 0 0.03866459005823121 -0.000012568264331916292 0
          0.020722756425833426 0.005500897430360024 0 0.03250400873896173 -8.045690340898956e-7 0
          0.044788798406278134 -0.006090790760666378 0 0.01531776060686011 0.005018937017600612 0
          0.026476862630467186 -0.000046776301468078366 0 0.038653959215800504 -0.00606898609312274 0
          0.02063174835596295 -0.00000874527315611036 0 0.010464011794169375 0.0043685609531378435 0
          0.03252734543055318 -0.00598372967246091 0 0.015171450050145096 -0.000017366581188979534 0
          0.026503970655372654 -0.005795064669950325 0 0.006339954861074186 0.003539472965208405 0
          0.01025999653090784 -0.000008336709874098966 0 0.020714215888398266 -0.005472634478974346 0
          0.003123959457601809 0.002529548786474363 0 0.01530793482051476 -0.004996164872786304 0
          0.006139668152384105 0.000014721087848624734 0 0.0010476729302619121 0.0013159233820422191 0
          0.010453688484035818 -0.004350719398523384 0 0.0028946933917113537 -0.00000438301425291138 0
          0 0 0 0.006332937965495668 -0.0035267131424181917 0
          0.0007082878512410101 -4.902180273771823e-7 0 0.003112745388169175 -0.0025223990329589913 0
          0 0 0 0.001038775539176757 -0.0013121985976429396 0
          0 0 0
          <InformationKey name="L2_NORM_RANGE" location="vtkDataArray" length="2">
            <Value index="0">
              0
            </Value>
            <Value index="1">
              0.045212137771
            </Value>
          </InformationKey>
        </DataArray>
        <DataArray type="Float64" Name="Sld_traction" NumberOfComponents="3" format="ascii" RangeMin="0" RangeMax="3426.247646264398">
          20.72377731326744 9.66266425852787 0 -33.84397520480049 -79.3636854133178 0
          -131.94560160683298 -136.66139150219664 0 44.122405213557535 -3.985430029227327 0
          -270.02003995583703 -179.1839086425362 0 0 0 0
          -438.62030283436627 -210.58967955780636 0 0 0 0
          6.734331096160384 -12.345000959505308 0 -625.3331186650987 -234.56778367277388 0
          0 0 0 -64.82435539140177 81.60736603932723 0
          0 0 0 -821.6392886157113 -250.5860509700569 0
          -163.60626960323268 138.43561399364253 0 0 0 0
          -302.8007282173508 179.35319839602423 0 -1030.9507900057292 -257.37147051576204 0
          0 0 0 -470.0633085288736 210.8195699031576 0
          -1241.9022800006842 -235.59293791981108 0 -658.675092857906 235.4080777561922 0
          0 0 0 -1490.645966383314 -404.85063316925147 0
          -857.111481732572 250.6884087791981 0 0 0 0
          -1932.0877835596016 -2829.5246473837396 0 -1064.0153690508694 258.29264857315576 0
          0 0 0 -1280.8546927488862 236.21663955702348 0
          -1261.105766449734 -1.4771468515468187 0 -1521.0853233005628 399.6738443220947 0
          -1931.2455284393473 2817.91200325205 0
          <InformationKey name="L2_NORM_RANGE" location="vtkDataArray" length="2">
            <Value index="0">
              0
            </Value>
            <Value index="1">
              3426.2476463
            </Value>
          </InformationKey>
        </DataArray>
        <DataArray type="Float64" Name="Fld_traction" NumberOfComponents="3" format="ascii" RangeMin="0" RangeMax="38.57480876735629">
          24.514481818605425 -0.3716799417700222 0 38.10948095434239 5.973552781111296 0
          37.4493284390459 3.480499944685968 0 14.869413664794502 -3.6690696577506596 0
          36.42157963295045 2.1346761935965706 0 0 0 0
          35.94770206658843 1.326955074738429 0 0 0 0
          12.26933466768833 -1.559490170974957 0 35.51109614241523 0.7539712685966707 0
          0 0 0 9.778021746625665 -0.8818550039473462 0
          0 0 0 35.023276855560106 0.3792137817400135 0
          6.1361733141036225 0.513214686811659 0 0 0 0
          3.9997187997089108 0.7988964134263415 0 34.610205409571826 0.1650710715147534 0
          0 0 0 2.560966837188892 0.8624503751742343 0
          34.38559872096513 0.04627519983604285 0 1.6399220163919292 0.7961354693674543 0
          0 0 0 34.206333992129416 0.001484747404920641 0
          0.9309238570921161 0.6530968458780142 0 0 0 0
          17.34233654732537 -16.800077722385662 0 0.4919941587871692 0.44748460542017443 0
          0 0 0 0.29044525892777034 0.2444205122788228 0
          0 0 0 0.303240467370035 0.06431898008576566 0
          0.19971807466625538 0.2026927882099113 0
          <InformationKey name="L2_NORM_RANGE" location="vtkDataArray" length="2">
            <Value index="0">
              0
            </Value>
            <Value index="1">
              38.574808767
            </Value>
          </InformationKey>
        </DataArray>
        <DataArray type="Float64" Name="Velocity" NumberOfComponents="3" format="ascii" RangeMin="0" RangeMax="0.010520603849774204">
          -0.001621553553935888 0.00008263622841122101 0 -0.003349123504118326 0.000026736445554573565 0
          -0.005165955976104204 0.00023134061094347985 0 -0.0014400828846569125 -0.0016238703726332408 0
          -0.0071698006007110265 0.00039312777948719534 0 -0.003066356820831173 -0.001696129209508782 0
          -0.009151148900016351 0.00019734169886492531 0 -0.004827411370706698 -0.0015623623166214117 0
          -0.0013222821329227363 -0.0032926566731313854 0 -0.010477662964506855 -0.0005240335026834245 0
          -0.006857548371713769 -0.0013728569720130957 0 -0.002955048290472717 -0.003360375831532576 0
          -0.008949188505691333 -0.0011504361948968412 0 -0.010395994209576872 -0.0016144379078577064 0
          -0.004672525073666112 -0.0033215954171181977 0 -0.010386751228340166 -0.0009520175028125972 0
          -0.006658898250473524 -0.0031018862515534993 0 -0.008553249062780616 -0.0025732047560726203 0
          -0.010327246380407825 -0.0007651275300162705 0 -0.008649161660398398 -0.002496027582079445 0
          -0.005433865206546847 -0.002776962816356591 0 -0.009991451672384462 -0.0013844756177961715 0
          -0.008390295707194698 -0.0005990366626439949 0 -0.0024799119390800373 -0.001858497426901187 0
          -0.009917900995679626 0.00007300981387655964 0 -0.005078199092766759 -0.00040740234345892803 0
          0 0 0 -0.00807255431074047 0.0013877666065170192 0
          -0.0017091068992261197 -0.00017440228346157525 0 -0.004941308366728622 0.001968934680375063 0
          0 0 0 -0.0018991767869263306 0.0014322392839763087 0
          0 0 0
          <InformationKey name="L2_NORM_RANGE" location="vtkDataArray" length="2">
            <Value index="0">
              0
            </Value>
            <Value index="1">
              0.01052060385
            </Value>
          </InformationKey>
        </DataArray>
      </PointData>
      <CellData>
        <DataArray type="UInt8" Name="vtkGhostType" format="ascii" RangeMin="0" RangeMax="0">
          0 0 0 0 0 0
          0 0 0 0 0 0
          0 0 0 0 0 0
          0 0
        </DataArray>
        <DataArray type="Float64" Name="Stress" NumberOfComponents="6" format="ascii" RangeMin="75.12307850040035" RangeMax="3228.5178613074736">
          4.827814013524922 -44.753024991753236 0 60.14429224220396 0 0
          -35.410824910832616 36.28937334305937 0 58.41321536505801 0 0
          -32.80911395086253 179.80422449913837 0 137.80121058633327 0 0
          -0.06137133368304326 -185.9926395932457 0 139.04800584977 0 0
          -622.5982262140568 -3150.285010294033 0 333.77145386209617 0 0
          604.0350164165774 3150.728234631409 0 338.31142236185786 0 0
          -2.8885963136608552 -415.8309513785996 0 198.20873973227458 0 0
          -33.33500714642503 410.4905062029186 0 197.5728837489045 0 0
          -138.75625928734945 2608.7574195446105 0 321.2821497131994 0 0
          96.67492547687297 -2615.2787823458557 0 321.27570638723034 0 0
          -30.397286495382687 704.1432566190077 0 241.18548765532486 0 0
          -6.980818415640158 -710.5773645041867 0 240.25623217110729 0 0
          -10.54576922606958 2219.3887273168466 0 310.58404816091434 0 0
          -26.898406610993163 -2215.574258890162 0 312.4129966238489 0 0
          -9.493160785909367 -1049.8853379101283 0 270.60223573825385 0 0
          -27.932875368522872 1045.9700040955254 0 270.4476463377887 0 0
          2.9580920294349653 -1811.6709256277895 0 302.36018451459165 0 0
          -38.31607825122899 1815.6750004320131 0 303.18715129529386 0 0
          -26.185009335050836 1415.8827069182596 0 290.17226043924035 0 0
          -15.022161488538472 -1422.4895545469392 0 290.71393891364016 0 0
          <InformationKey name="L2_NORM_RANGE" location="vtkDataArray" length="2">
            <Value index="0">
              75.1230785
            </Value>
            <Value index="1">
              3228.5178613
            </Value>
          </InformationKey>
        </DataArray>
        <DataArray type="Float64" Name="Strain" NumberOfComponents="6" format="ascii" RangeMin="0.0008177091752107907" RangeMax="0.014283003350947539">
          0.00010923495249545723 -0.00021304050103885085 0 0.0007818757991486514 0 0
          -0.00023188353136325418 0.00023416775728704375 0 0.000759371799745754 0 0
          -0.0004998997062497443 0.0008820869936752615 0 0.0017914157376223325 0 0
          0.00036240640763857135 -0.0008461468360485861 0 0.0018076240760470097 0 0
          0.0033102338407994068 -0.01311973025572044 0 0.004339028900207249 0 0
          -0.003395560732835822 0.013157945185560587 0 0.004398048490704152 0 0
          0.0007977272419611124 -0.0018863980659609898 0 0.0025767136165195693 0 0
          -0.0009521307696119252 0.0019327350671588083 0 0.002568447488735758 0 0
          -0.0057184179478694305 0.01214042096453831 0 0.004176667946271593 0 0
          0.005539664536494192 -0.01208803456435355 0 0.004176584183033997 0 0
          -0.0015113870039610566 0.003263126526282482 0 0.003135411339519223 0 0
          0.0013538631369920014 -0.0032195144125835512 0 0.0031233310182243942 0 0
          -0.004375791268246469 0.010118782959282488 0 0.004037592626091887 0 0
          0.004197982054755797 -0.0100284109850588 0 0.004061368956110035 0 0
          0.0020040825273488633 -0.00475846662395856 0 0.003517829064597299 0 0
          -0.002166736090913054 0.00481363262560326 0 0.003515819402391252 0 0
          0.003546217623708119 -0.00824887099106384 0 0.00393068239868969 0 0
          -0.003714904406885518 0.008336037604555556 0 0.003941432966838819 0 0
          -0.0028801130709650877 0.00649332708468143 0 0.0037722393857101237 0 0
          0.002705503796593681 -0.006443034258285922 0 0.003779281205877321 0 0
          <InformationKey name="L2_NORM_RANGE" location="vtkDataArray" length="2">
            <Value index="0">
              0.00081770917521
            </Value>
            <Value index="1">
              0.014283003351
            </Value>
          </InformationKey>
        </DataArray>
        <DataArray type="Float64" Name="Btraction" NumberOfComponents="3" format="ascii" RangeMin="0.14236014615572168" RangeMax="19.036991604978805">
          6.784687083120707 -1.307139957181404 0 15.655990693236951 1.4004682098353185 0
          18.889702348347072 2.363513181449316 0 3.978548765182322 -0.09216007928392178 0
          0.12573963550907258 0.06675294207391923 0 12.887167634863694 -4.199648243745186 0
          2.5339730284531328 0.3280277750595001 0 18.46772701799909 1.4037940345706346 0
          17.147983178273634 0.01193998681024087 0 0.1484214315744513 0.07718487309114712 0
          18.09232042488472 0.8654078170837499 0 1.6401714092244504 0.4153366971501439 0
          17.24895103263424 0.05283656783769904 0 0.19560985442873488 0.1729762794247493 0
          1.0502222133952055 0.41464646113542214 0 17.86469955225091 0.5202315858337749 0
          0.3557295039698214 0.27514536282454716 0 17.408370566282983 0.1360712133136917 0
          17.633593249493835 0.28329626258417107 0 0.6427114683710112 0.3623080788113672 0
          <InformationKey name="L2_NORM_RANGE" location="vtkDataArray" length="2">
            <Value index="0">
              0.14236014616
            </Value>
            <Value index="1">
              19.036991605
            </Value>
          </InformationKey>
        </DataArray>
      </CellData>
      <Points>
        <DataArray type="Float32" Name="Points" NumberOfComponents="3" format="ascii" RangeMin="1.4500000476837158" RangeMax="1.6286497021092299">
          1.4500000476837158 0.5 0 1.4500000476837158 0.44999998807907104 0
          1.4500000476837158 0.4000000059604645 0 1.5 0.5 0
          1.4500000476837158 0.3499999940395355 0 1.5002609491348267 0.45016080141067505 0
          1.4500000476837158 0.30000001192092896 0 1.5001590251922607 0.4000298082828522 0
          1.5499999523162842 0.5 0 1.4500000476837158 0.25 0
          1.5005459785461426 0.35020819306373596 0 1.5499999523162842 0.44999998807907104 0
          1.5002089738845825 0.30000561475753784 0 1.4500000476837158 0.20000000298023224 0
          1.5499999523162842 0.4000000059604645 0 1.5002909898757935 0.24981409311294556 0
          1.5499999523162842 0.3499999940395355 0 1.4500000476837158 0.15000000596046448 0
          1.5001939535140991 0.19956040382385254 0 1.5499999523162842 0.30000001192092896 0
          1.4500000476837158 0.10000000149011612 0 1.5499999523162842 0.25 0
          1.499879002571106 0.15004639327526093 0 1.4500000476837158 0.05000000074505806 0
          1.5499999523162842 0.20000000298023224 0 1.5001660585403442 0.10008130222558975 0
          1.4500000476837158 0 0 1.5499999523162842 0.15000000596046448 0
          1.5000410079956055 0.050020311027765274 0 1.5499999523162842 0.10000000149011612 0
          1.5 0 0 1.5499999523162842 0.05000000074505806 0
          1.5499999523162842 0 0
          <InformationKey name="L2_NORM_RANGE" location="vtkDataArray" length="2">
            <Value index="0">
              1.4500000477
            </Value>
            <Value index="1">
              1.6286497021
            </Value>
          </InformationKey>
        </DataArray>
      </Points>
      <Cells>
        <DataArray type="Int64" Name="connectivity" format="ascii" RangeMin="0" RangeMax="32">
          11 8 3 5 3 0
          1 5 1 2 7 5
          11 5 7 14 32 31
          28 30 26 30 28 23
          16 14 7 10 7 2
          4 10 20 23 28 25
          28 31 29 25 4 6
          12 10 16 10 12 19
          17 20 25 22 25 29
          27 22 21 19 12 15
          12 6 9 15 27 24
          18 22 17 22 18 13
          9 13 18 15 15 18
          24 21
        </DataArray>
        <DataArray type="Int64" Name="offsets" format="ascii" RangeMin="4" RangeMax="80">
          4 8 12 16 20 24
          28 32 36 40 44 48
          52 56 60 64 68 72
          76 80
        </DataArray>
        <DataArray type="UInt8" Name="types" format="ascii" RangeMin="9" RangeMax="9">
          9 9 9 9 9 9
          9 9 9 9 9 9
          9 9 9 9 9 9
          9 9
        </DataArray>
      </Cells>
    </Piece>
  </UnstructuredGrid>
</VTKFile>
