<?xml version="1.0"?>
<VTKFile type="UnstructuredGrid" version="0.1" byte_order="LittleEndian" header_type="UInt32" compressor="vtkZLibDataCompressor">
  <UnstructuredGrid>
    <Piece NumberOfPoints="33" NumberOfCells="20">
      <PointData>
        <DataArray type="Float64" Name="sld_BC" NumberOfComponents="3" format="ascii" RangeMin="0" RangeMax="0">
          0 0 0 0 0 0
          0 0 0 0 0 0
          0 0 0 0 0 0
          0 0 0 0 0 0
          0 0 0 0 0 0
          0 0 0 0 0 0
          0 0 0 0 0 0
          0 0 0 0 0 0
          0 0 0 0 0 0
          0 0 0 0 0 0
          0 0 0 0 0 0
          0 0 0 0 0 0
          0 0 0 0 0 0
          0 0 0 0 0 0
          0 0 0 0 0 0
          0 0 0 0 0 0
          0 0 0
          <InformationKey name="L2_NORM_RANGE" location="vtkDataArray" length="2">
            <Value index="0">
              0
            </Value>
            <Value index="1">
              0
            </Value>
          </InformationKey>
        </DataArray>
        <DataArray type="Float64" Name="sld_FIXNO" NumberOfComponents="3" format="ascii" RangeMin="1.4142135623730951" RangeMax="1.4142135623730951">
          -1 -1 0 -1 -1 0
          -1 -1 0 -1 -1 0
          -1 -1 0 -1 -1 0
          -1 -1 0 -1 -1 0
          -1 -1 0 -1 -1 0
          -1 -1 0 -1 -1 0
          -1 -1 0 -1 -1 0
          -1 -1 0 -1 -1 0
          -1 -1 0 -1 -1 0
          -1 -1 0 -1 -1 0
          -1 -1 0 -1 -1 0
          -1 -1 0 -1 -1 0
          -1 -1 0 -1 -1 0
          1 1 0 -1 -1 0
          -1 -1 0 -1 -1 0
          1 1 0 -1 -1 0
          1 1 0
          <InformationKey name="L2_NORM_RANGE" location="vtkDataArray" length="2">
            <Value index="0">
              1.4142135624
            </Value>
            <Value index="1">
              1.4142135624
            </Value>
          </InformationKey>
        </DataArray>
        <DataArray type="Float64" Name="Disp" NumberOfComponents="3" format="ascii" RangeMin="0" RangeMax="0.029408769358254195">
          0.02912413374819699 0.004081733526839302 0 0.025062195528097075 0.0040626415465216835 0
          0.021011114380249496 0.003992824031609134 0 0.029117308742096202 0.00003727906056488414 0
          0.017045053572092787 0.003845649436165071 0 0.025061643192002558 0.000015602837063671826 0
          0.013256595184869385 0.0036050679440445673 0 0.020985654126518434 0.000022792277364096962 0
          0.029118976820156323 -0.004006731235791438 0 0.009751602780667244 0.0032626488897228786 0
          0.01701414433448171 -0.000008361169561136314 0 0.02505594447421521 -0.003988811770744225 0
          0.013189094787380813 0.000015084203941994267 0 0.0066346589263799145 0.0028167182938441497 0
          0.02100382891078752 -0.003921963076576029 0 0.009648589148789069 0.000007387897511152721 0
          0.017035949627303548 -0.0037797258703470746 0 0.004009823467955554 0.0022662500595149347 0
          0.0064963059384851776 0.00001039272531662785 0 0.013247511507988582 -0.0035451818016255573 0
          0.0019758945942437134 0.0016118722329358747 0 0.009741007759152471 -0.0032108268987484524 0
          0.003876207428011682 0.000021683857592003856 0 0.0006661504104051171 0.0008367159583379266 0
          0.006623178682134576 -0.0027738683745440608 0 0.0018258584519707326 0.0000054890312879876506 0
          0 0 0 0.003999996837036098 -0.002233700967833772 0
          0.00044742138001607165 0.0000032752605618412733 0 0.0019628722719677986 -0.00159083296317417 0
          0 0 0 0.0006543064059959755 -0.0008259997953197916 0
          0 0 0
          <InformationKey name="L2_NORM_RANGE" location="vtkDataArray" length="2">
            <Value index="0">
              0
            </Value>
            <Value index="1">
              0.029408769358
            </Value>
          </InformationKey>
        </DataArray>
        <DataArray type="Float64" Name="Sld_traction" NumberOfComponents="3" format="ascii" RangeMin="0" RangeMax="2180.0561506659137">
          17.576869654465305 8.751759023551102 0 -22.940371963311716 -59.600177055208945 0
          -96.50785683501633 -98.10720790611263 0 34.48825784564723 -2.874611366612107 0
          -194.6401773505838 -122.56727806707211 0 0 0 0
          -307.81461908207467 -136.17878831359104 0 0 0 0
          5.025755766299794 -10.393409618834825 0 -425.37344142848053 -143.38942521358646 0
          0 0 0 -51.22928755375755 62.00665254933445 0
          0 0 0 -541.9090298339834 -147.02547864492473 0
          -125.91932520000817 100.16038030364683 0 0 0 0
          -225.39227543318793 123.42779422536232 0 -662.5276759628903 -149.04474641801238 0
          0 0 0 -338.1320416630377 137.09584490386962 0
          -784.352679030607 -138.29678897020372 0 -457.45728021355364 144.68820088669472 0
          0 0 0 -937.5178062796522 -254.2861257425391 0
          -575.7392495819929 147.71271338164274 0 0 0 0
          -1225.11233560308 -1803.2594336948434 0 -695.2037142744036 150.1738395484138 0
          0 0 0 -822.0479527764463 139.55417518497515 0
          -797.263619032163 -21.30171933220124 0 -965.3381833688085 247.67214668918442 0
          -1217.326129305121 1770.001141742741 0
          <InformationKey name="L2_NORM_RANGE" location="vtkDataArray" length="2">
            <Value index="0">
              0
            </Value>
            <Value index="1">
              2180.0561507
            </Value>
          </InformationKey>
        </DataArray>
        <DataArray type="Float64" Name="Fld_traction" NumberOfComponents="3" format="ascii" RangeMin="0" RangeMax="38.271980464871376">
          24.26133262277961 -0.18199738563862755 0 37.76348852443603 6.217991891944267 0
          37.24056825359168 3.7685239508186887 0 14.826194896104203 -3.6523700652550337 0
          36.33690587768232 2.430222723103557 0 0 0 0
          35.97122191970802 1.5971724768079514 0 0 0 0
          12.528838796159018 -1.9210609679128772 0 35.619263955564705 0.9736636961055125 0
          0 0 0 10.235562960571253 -1.4831989004807047 0
          0 0 0 35.17118273746953 0.5326315504029784 0
          6.490474010430602 -0.04148479866872667 0 0 0 0
          4.333607956589717 0.27425541544627063 0 34.74512358393337 0.25675408476366357 0
          0 0 0 2.9131583220731745 0.39743846627992707 0
          34.50641871744774 0.08892636727406994 0 2.0275847923521475 0.4285164999994202 0
          0 0 0 34.29078116435299 0.011300227604236926 0
          1.29954012401644 0.39832088774714336 0 0 0 0
          17.372879111157836 -16.828115442549095 0 0.8400756619758672 0.31937780568141755 0
          0 0 0 0.5221045650481396 0.20792494870192316 0
          0 0 0 0.42614323304403434 0.06453421014307802 0
          0.24297447164783906 0.24358756790060235 0
          <InformationKey name="L2_NORM_RANGE" location="vtkDataArray" length="2">
            <Value index="0">
              0
            </Value>
            <Value index="1">
              38.271980465
            </Value>
          </InformationKey>
        </DataArray>
        <DataArray type="Float64" Name="Velocity" NumberOfComponents="3" format="ascii" RangeMin="0" RangeMax="0.14912913310908377">
          0.14718256575207167 0.019298726054038047 0 0.1266320156942288 0.018992813260010677 0
          0.10619793370083802 0.018482862035196487 0 0.14738842591590123 -0.0011084654581919643 0
          0.08645542622236803 0.01761332578344181 0 0.12693721052168327 -0.00134686305289763 0
          0.06790874349437116 0.016401491547708414 0 0.1064146647481648 -0.0013276023831910809 0
          0.14757342088138264 -0.021484501186509304 0 0.05091873794700806 0.014920359746336494 0
          0.08668377001055069 -0.0014125663077974404 0 0.1270864796185813 -0.021438920217600382 0
          0.06801078143460883 -0.0011688388654321111 0 0.035663937757470815 0.013194103439074095 0
          0.10673718670009573 -0.02097938688288392 0 0.05091750560608443 -0.0010384186475422938 0
          0.08704558054080687 -0.02000635357518777 0 0.022316574869927663 0.011097416035108566 0
          0.03554503219592902 -0.0008269790434881392 0 0.06854309439679868 -0.018577476459393286 0
          0.011265788338554314 0.008352849724035317 0 0.05157558713269247 -0.016804964013127244 0
          0.022231572066549042 -0.0005552537461994959 0 0.0035573749366579746 0.004554223476086264 0
          0.036338188477113335 -0.014734306680164101 0 0.01105320729251923 -0.0004031453900366472 0
          0 0 0 0.02301391661565949 -0.01225567963790159 0
          0.0029015433588067932 -0.00012362923757047102 0 0.011974253930976755 -0.009106696311346536 0
          0 0 0 0.004301676572909335 -0.004931844039868179 0
          0 0 0
          <InformationKey name="L2_NORM_RANGE" location="vtkDataArray" length="2">
            <Value index="0">
              0
            </Value>
            <Value index="1">
              0.14912913311
            </Value>
          </InformationKey>
        </DataArray>
      </PointData>
      <CellData>
        <DataArray type="UInt8" Name="vtkGhostType" format="ascii" RangeMin="0" RangeMax="0">
          0 0 0 0 0 0
          0 0 0 0 0 0
          0 0 0 0 0 0
          0 0
        </DataArray>
        <DataArray type="Float64" Name="Stress" NumberOfComponents="6" format="ascii" RangeMin="60.20501331804486" RangeMax="2056.626786356452">
          4.442438049769708 -36.16758012143192 0 47.92509281117482 0 0
          -32.141470510058014 29.579150428106914 0 46.270173670141006 0 0
          -29.642687707731678 142.69994005835267 0 102.17150230639707 0 0
          -0.4185868123819638 -144.88056265933818 0 103.53064576835432 0 0
          -390.8716585031917 -1974.7108462976378 0 208.8749306923799 0 0
          380.31028190606116 2009.624279615302 0 215.610951985467 0 0
          -3.27228996309033 -312.00503946328394 0 140.5869509047198 0 0
          -29.955356119044183 313.3977691796233 0 139.7481606860141 0 0
          -98.08020320838341 1672.4591033793274 0 193.64367038424894 0 0
          59.00111260392086 -1643.4468757967259 0 194.76439035606037 0 0
          -27.546017525514287 519.4175611604211 0 161.55451935010402 0 0
          -6.963932624006958 -514.5881032425357 0 161.21290315878343 0 0
          -16.164032533480167 1442.9114463398646 0 180.15152112137517 0 0
          -19.429542191186982 -1410.2600328969602 0 181.5624670175526 0 0
          -9.036994023935165 -733.1560924175652 0 170.60870622463113 0 0
          -25.786256369447756 745.1877679671807 0 170.173588761243 0 0
          -0.4854468907381033 -1181.0945809340737 0 174.16026230323308 0 0
          -33.421451444700125 1209.6141889588432 0 174.5631022034956 0 0
          -24.971514764340142 973.9424928955452 0 172.41643749428698 0 0
          -12.63438761746292 -957.9127512089743 0 173.00408831684743 0 0
          <InformationKey name="L2_NORM_RANGE" location="vtkDataArray" length="2">
            <Value index="0">
              60.205013318
            </Value>
            <Value index="1">
              2056.6267864
            </Value>
          </InformationKey>
        </DataArray>
        <DataArray type="Float64" Name="Strain" NumberOfComponents="6" format="ascii" RangeMin="0.0006529949187503275" RangeMax="0.009123711191450714">
          0.00009073987436324439 -0.00017322524374956615 0 0.0006230262065452727 0 0
          -0.0002039230341555724 0.00019726100194249958 0 0.000601512257711833 0 0
          -0.0004131391121839668 0.0007070879682955814 0 0.0013282295299831617 0 0
          0.00028061252718937155 -0.0006583903158158439 0 0.001345898394988606 0 0
          0.002072220104090872 -0.00822273461657303 0 0.0027153740990009385 0 0
          -0.002188355562577261 0.008402185422532805 0 0.00280294237581107 0 0
          0.0005935209076213427 -0.0014132419641299156 0 0.0018276303617613572 0 0
          -0.0007474225202419166 0.0014843727941994222 0 0.001816726088918183 0 0
          -0.0037075601761878347 0.007800945316632287 0 0.0025173677149952353 0 0
          0.0034731764701514557 -0.007592735454452749 0 0.002531937074628784 0 0
          -0.001138198624003911 0.0024170646374546685 0 0.0021002087515513516 0 0
          0.000971760907883713 -0.0023277962011367236 0 0.002095767741064184 0 0
          -0.0028872236683900707 0.00659676694428667 0 0.002341969774577877 0 0
          0.002661602647179172 -0.006378795542408355 0 0.0023603120712281846 0 0
          0.0013885360574053473 -0.0033182380821532467 0 0.0022179131809202043 0 0
          -0.0015704436140169895 0.003440887544171095 0 0.0022122566538961587 0 0
          0.0023009256494685862 -0.005373033721813097 0 0.00226408340994203 0 0
          -0.00251081527254313 0.005568916390079901 0 0.002269320328645442 0 0
          -0.002012808253324061 0.004480132796465193 0 0.0022414136874257303 0 0
          0.0018104434011980437 -0.00433386596214678 0 0.002249053148119016 0 0
          <InformationKey name="L2_NORM_RANGE" location="vtkDataArray" length="2">
            <Value index="0">
              0.00065299491875
            </Value>
            <Value index="1">
              0.0091237111915
            </Value>
          </InformationKey>
        </DataArray>
        <DataArray type="Float64" Name="Btraction" NumberOfComponents="3" format="ascii" RangeMin="0.18416323140710664" RangeMax="18.916492526099017">
          6.838758423065804 -1.3933577582919776 0 15.506205286803908 1.50899862657641 0
          18.751014194506926 2.4966289606907393 0 4.181509242750463 -0.3811709247873578 0
          0.16727942617296834 0.07703044451092009 0 12.915915068877705 -4.204203803736214 0
          2.70602049175508 0.058192654194386004 0 18.394368532818504 1.5496866684805615 0
          17.19929997045018 0.02505664871957671 0 0.23706194952304346 0.06811478971125029 0
          18.077031949347585 1.006848799977877 0 1.8116915696657228 0.1679234704315494 0
          17.312885575345277 0.08642011300943336 0 0.34054505675600166 0.13182568859583516 0
          1.2351857786063305 0.20648874156983682 0 17.89762146881818 0.642709043228366 0
          0.5349039464980767 0.1794246733571402 0 17.479076580350725 0.19734640879166046 0
          17.697611673258557 0.37657381162712267 0 0.8317812290921468 0.20670934693664086 0
          <InformationKey name="L2_NORM_RANGE" location="vtkDataArray" length="2">
            <Value index="0">
              0.18416323141
            </Value>
            <Value index="1">
              18.916492526
            </Value>
          </InformationKey>
        </DataArray>
      </CellData>
      <Points>
        <DataArray type="Float32" Name="Points" NumberOfComponents="3" format="ascii" RangeMin="1.4500000476837158" RangeMax="1.6286497021092299">
          1.4500000476837158 0.5 0 1.4500000476837158 0.44999998807907104 0
          1.4500000476837158 0.4000000059604645 0 1.5 0.5 0
          1.4500000476837158 0.3499999940395355 0 1.5002609491348267 0.45016080141067505 0
          1.4500000476837158 0.30000001192092896 0 1.5001590251922607 0.4000298082828522 0
          1.5499999523162842 0.5 0 1.4500000476837158 0.25 0
          1.5005459785461426 0.35020819306373596 0 1.5499999523162842 0.44999998807907104 0
          1.5002089738845825 0.30000561475753784 0 1.4500000476837158 0.20000000298023224 0
          1.5499999523162842 0.4000000059604645 0 1.5002909898757935 0.24981409311294556 0
          1.5499999523162842 0.3499999940395355 0 1.4500000476837158 0.15000000596046448 0
          1.5001939535140991 0.19956040382385254 0 1.5499999523162842 0.30000001192092896 0
          1.4500000476837158 0.10000000149011612 0 1.5499999523162842 0.25 0
          1.499879002571106 0.15004639327526093 0 1.4500000476837158 0.05000000074505806 0
          1.5499999523162842 0.20000000298023224 0 1.5001660585403442 0.10008130222558975 0
          1.4500000476837158 0 0 1.5499999523162842 0.15000000596046448 0
          1.5000410079956055 0.050020311027765274 0 1.5499999523162842 0.10000000149011612 0
          1.5 0 0 1.5499999523162842 0.05000000074505806 0
          1.5499999523162842 0 0
          <InformationKey name="L2_NORM_RANGE" location="vtkDataArray" length="2">
            <Value index="0">
              1.4500000477
            </Value>
            <Value index="1">
              1.6286497021
            </Value>
          </InformationKey>
        </DataArray>
      </Points>
      <Cells>
        <DataArray type="Int64" Name="connectivity" format="ascii" RangeMin="0" RangeMax="32">
          11 8 3 5 3 0
          1 5 1 2 7 5
          11 5 7 14 32 31
          28 30 26 30 28 23
          16 14 7 10 7 2
          4 10 20 23 28 25
          28 31 29 25 4 6
          12 10 16 10 12 19
          17 20 25 22 25 29
          27 22 21 19 12 15
          12 6 9 15 27 24
          18 22 17 22 18 13
          9 13 18 15 15 18
          24 21
        </DataArray>
        <DataArray type="Int64" Name="offsets" format="ascii" RangeMin="4" RangeMax="80">
          4 8 12 16 20 24
          28 32 36 40 44 48
          52 56 60 64 68 72
          76 80
        </DataArray>
        <DataArray type="UInt8" Name="types" format="ascii" RangeMin="9" RangeMax="9">
          9 9 9 9 9 9
          9 9 9 9 9 9
          9 9 9 9 9 9
          9 9
        </DataArray>
      </Cells>
    </Piece>
  </UnstructuredGrid>
</VTKFile>
