<?xml version="1.0"?>
<VTKFile type="UnstructuredGrid" version="0.1" byte_order="LittleEndian" header_type="UInt32" compressor="vtkZLibDataCompressor">
  <UnstructuredGrid>
    <Piece NumberOfPoints="181" NumberOfCells="76">
      <PointData>
        <DataArray type="Float64" Name="Velocity" NumberOfComponents="3" format="ascii" RangeMin="28.14902336868027" RangeMax="34.71296436694568">
          34.684 0 0 34.684 -1.4497966697083723e-15 0
          34.684 0 0 34.684 -2.0502533527978663e-16 0
          34.684 9.302282583876177e-17 0 34.684 -5.358205255363862e-16 0
          34.684 1.9035766988127547e-15 0 34.684 1.0166907675225179e-15 0
          34.684 2.1330081722368e-15 0 34.684 1.3809470007841217e-15 0
          34.684 0 0 34.684 8.754105456756489e-17 0
          34.684 -7.02112616902024e-17 0 34.684 -9.72730739607153e-16 0
          34.684 -2.4612370405978284e-16 0 34.684 8.932635092496566e-16 0
          34.684 9.480515726274768e-16 0 34.684 1.8249441118335428e-15 0
          34.684 7.115718696199418e-16 0 34.684 0 0
          34.684 -1.053767382781925e-15 0 34.684 -6.694245163626586e-16 0
          34.684 2.6767346836353683e-16 0 34.684 0 0
          34.684 -1.2483059591478331e-15 0 34.684 -1.2979020023032177e-15 0
          34.684 -8.277492615799656e-16 0 34.684 4.788659034646667e-17 0
          34.684 1.1131561058142773e-15 0 34.684 -3.055504015458135e-17 0
          34.684 1.6170164672752218e-15 0 34.684 0 0
          34.684 -6.304415816609415e-16 0 34.684 0 0
          34.684 -8.117724271311596e-16 0 34.684 -5.974610630541401e-16 0
          34.684 -8.064393354155555e-16 0 34.684 3.9750283375604414e-16 0
          34.684 1.5977809182971597e-15 0 34.684 1.9397761764434735e-15 0
          34.684 2.3258705579270443e-15 0 34.684 -3.3573970937442724e-17 0
          34.684 0 0 34.684 2.8799857851339597e-16 0
          34.684 0 0 34.684 -1.875337959748261e-15 0
          34.684 -5.339283836725033e-16 0 34.684 -2.3198921168216363e-16 0
          34.684 8.669837975715843e-17 0 34.684 1.6066040813839533e-16 0
          34.684 0 0 34.684 1.3938294777225938e-15 0
          34.684 -7.679350316635057e-16 0 34.684 1.8295966984547905e-15 0
          34.684 -1.275099217733463e-15 0 34.684 0 0
          34.684 2.252729948369497e-16 0 34.684 6.739520750932686e-16 0
          34.684 6.59654542904949e-16 0 34.684 0 0
          34.684 -1.2605084179573545e-16 0 34.684 -6.847404473347621e-17 0
          34.684 1.2505705207194209e-15 0 34.684 7.576007968907519e-16 0
          34.684 6.997964849209404e-16 0 34.68398342058979 0 0
          34.683986068695944 0.0000015253894230250558 0 34.684 -7.716266146626079e-16 0
          34.684 0 0 34.684 -5.343091129824284e-16 0
          34.684 1.256511883298004e-15 0 34.684 2.3357221857436162e-15 0
          34.683973164758115 0.000002913333273099004 0 34.684 1.8483473686499953e-15 0
          34.683999977766966 0 0 34.684 -5.639894263684848e-16 0
          34.684027984368605 0.00001334482822330708 0 34.684 -4.182457435501458e-16 0
          34.684 0 0 34.68397906611408 0.0000055387301851803474 0
          34.684 7.97658855986875e-16 0 34.684 3.2236830162539217e-17 0
          34.68406423312455 -0.000015098164070796136 0 34.68407512802903 1.691146563018505e-7 0
          34.68401198330724 0 0 34.6839411353301 0.000008783960905762085 0
          34.68399099938391 -0.000001083297234518202 0 34.684000007910896 2.921336677424283e-9 0
          34.68399462034276 0.0000028614097975179887 0 34.684000012226285 0 0
          34.68398704683484 0.000039149147550797536 0 34.68402171700975 -0.000031841622245437416 0
          34.683084156743206 -0.0008911068124552277 0 34.68256747289635 -0.00011302040177398694 0
          34.681002789362545 -0.00035422193865311205 0 34.684146994505554 -0.00001795079173184818 0
          34.68403512590322 0.00005378500728668303 0 34.68401821829372 -0.000012555687358650904 0
          34.684009550592066 -0.000009538680263662425 0 34.6817697742386 0.0012632702477178028 0
          34.68399650822437 0 0 34.68399997502998 -1.6434393714857366e-8 0
          34.68399997502865 0 0 34.68388657505683 -0.00004676793297453493 0
          34.68777739364145 0.005049886500467485 0 34.693721786103694 -0.00012608255575411614 0
          34.683995588896956 0.000009932908035503797 0 34.678088193487206 0.0017034344762311092 0
          34.68246666223111 -0.00047336691266812274 0 34.685003695246856 -0.0019289041903767818 0
          34.682155193400135 0.0008988973141680794 0 34.69110544697404 -0.008372595783217762 0
          34.70113309214513 -0.00269398814276516 0 34.69410122615442 0.0060980884918660026 0
          34.68394982640066 -0.00020818383468083703 0 34.69149285785946 -0.004481712270724447 0
          34.683938613933414 -0.000030766918154887626 0 34.649769053595044 -0.025744138730730178 0
          34.68398838707605 2.1835413742566285e-7 0 34.684194022951395 0.0005640901847969289 0
          34.420080945424296 0.04460399109209826 0 34.68385283393231 0.001968837248036134 0
          34.674326440944924 0.007612734043069402 0 34.684045094305965 0 0
          34.6840008127621 0 0 34.68400069802971 3.395101161028765e-7 0
          34.67650046249309 -0.014116529667817204 0 34.60831864145991 -0.20962003464376902 0
          34.683913519185054 0.0000792375260537714 0 34.704961322688604 0.04582660763442058 0
          34.6841808470456 -0.0000027211488692212617 0 34.68421748130569 -0.00028741278901860454 0
          34.684021850490865 0.00009250140129875866 0 34.68118313617948 -0.002579158223282974 0
          34.71296388172631 0.005804033508799508 0 34.68399778152626 0 0
          34.68409137335908 -0.0040635361522787065 0 34.68323230701975 0.02017731500461545 0
          34.683974526498474 0.000013287405173697937 0 34.68399692383266 -0.00005167081667987944 0
          34.68384223151695 0.0000596471330325195 0 34.684 0 0
          34.684 -6.883858481860746e-16 0 34.684 -4.4158885860933876e-16 0
          34.684 -1.6224228670122096e-15 0 34.684 1.5056905975201785e-16 0
          34.684 -3.2109638438736653e-17 0 34.684 4.850628626377587e-16 0
          34.684 5.189673840397002e-16 0 34.684 1.3592219478142913e-15 0
          34.684 8.412205874283053e-16 0 34.684 1.7931107690984735e-15 0
          34.684 -7.644281940940721e-16 0 34.684 2.2790684248127756e-17 0
          34.684 0 0 34.684 2.437706690618846e-16 0
          34.4056709711241 -0.4847761301844212 0 27.81518927785075 -4.322356076012822 0
          34.31683518585513 0.04895538539525436 0 34.550609699133304 -0.08794783222078713 0
          34.51589838775259 0.024625926612120246 0 34.59667231791148 0.07632697961644798 0
          34.669029091561434 0.006808868621057664 0 34.54940029773869 -0.012933730571313137 0
          34.631544963231505 -0.18054741265142515 0 34.538096522792976 -0.16341909530876733 0
          34.67615022175839 0.008706314636741793 0 34.681475664388834 -0.011816298384683614 0
          34.68340414218343 0.0039052125894170073 0 34.68025803056673 0.002393055033217982 0
          34.68415296319267 0.000021750299812293285 0 34.68442881570972 -0.0004919239632048144 0
          34.684034391288606 0 0 34.68506913917891 0 0
          34.68387598146431 0 0 34.68445200816326 -0.00013793084105535901 0
          34.68402610724495 -0.00008649356243164047 0 34.6920968478381 -0.010720632238831783 0
          34.68687911009141 -0.002501615336806229 0 34.65781414546435 0.018079257591492984 0
          34.68386651080386 0.00026948408738792416 0
          <InformationKey name="L2_NORM_RANGE" location="vtkDataArray" length="2">
            <Value index="0">
              28.149023369
            </Value>
            <Value index="1">
              34.712964367
            </Value>
          </InformationKey>
        </DataArray>
        <DataArray type="Float64" Name="Pressure" format="ascii" RangeMin="102364.89681489952" RangeMax="103336.17977451363">
          103064.028 103064.028 103064.028 103064.028 103064.028 103064.028
          103064.028 103064.028 103064.028 103064.028 103064.028 103064.028
          103064.028 103064.028 103064.028 103064.028 103064.028 103064.028
          103064.028 103064.028 103064.028 103064.028 103064.028 103064.028
          103064.028 103064.028 103064.028 103064.028 103064.028 103064.028
          103064.028 103064.028 103064.028 103064.028 103064.028 103064.028
          103064.028 103064.028 103064.028 103064.028 103064.028 103064.028
          103064.028 103064.028 103064.028 103064.028 103064.028 103064.028
          103064.028 103064.028 103064.028 103064.028 103064.028 103064.028
          103064.028 103064.028 103064.028 103064.028 103064.028 103064.028
          103064.028 103064.028 103064.028 103064.028 103064.028 103064.01923958657
          103064.02448518541 103064.028 103064.028 103064.028 103064.028 103064.028
          103064.01834320536 103064.028 103064.02372658387 103064.028 103064.0428292077 103064.028
          103064.028 103064.01727258191 103064.028 103064.028 103064.03677189522 103064.08385196608
          103064.02509055947 103064.00984384467 103064.02435706255 103064.02800304907 103064.02381626207 103064.02800471103
          103064.03156005636 103064.05327847713 103063.80241243575 103063.73407813755 103063.86228274104 103064.09370321438
          103064.03770780853 103064.04729982026 103064.02839657263 103063.53457817929 103064.02649515081 103064.02799309518
          103064.02799037911 103064.01068920747 103065.09654192375 103063.8045242047 103064.02380801743 103063.18101230287
          103063.67208912375 103063.80886359538 103063.86440405206 103063.86471757223 103071.72902447666 103064.43491826103
          103064.00515637721 103064.19600441544 103064.02982368645 103016.39767001756 103064.0264916696 103064.12495254548
          103007.90223776741 103063.63200864756 103064.47535137575 103064.03929441584 103064.02838334424 103064.0283044647
          103062.66731388903 103031.02852664122 103064.01325305135 103070.28733023786 103064.01992146627 103064.11717637375
          103064.05946710691 103063.42058433179 103063.67107985764 103064.02686930979 103064.14328251562 103062.58056587819
          103064.0222079279 103063.99355428039 103064.00057555178 103064.028 103064.028 103064.028
          103064.028 103064.028 103064.028 103064.028 103064.028 103064.028
          103064.028 103064.028 103064.028 103064.028 103064.028 103064.028
          103017.44924097238 102364.89681489952 103198.7143492545 103336.17977451363 103050.34176341955 103095.29107341489
          103012.57627273156 103026.83203898536 103002.12526149469 103028.53470777167 103063.1169525425 103063.73813689865
          103063.97195862941 103063.39487707603 103064.03434846293 103064.15025687481 103064.03283090965 103064.32917921036
          103063.95610633194 103064.15263238008 103064.05189258342 103065.46504884024 103063.76867751048 103060.44917374982
          103064.04364557243
        </DataArray>
        <DataArray type="Float64" Name="Temperature" format="ascii" RangeMin="296.8847827853305" RangeMax="300.2478011247858">
          299.99999999999994 299.99999999999994 299.99999999999994 299.99999999999994 299.99999999999994 299.99999999999994
          299.99999999999994 299.99999999999994 299.99999999999994 299.99999999999994 299.99999999999994 299.99999999999994
          299.99999999999994 299.99999999999994 299.99999999999994 299.99999999999994 299.99999999999994 299.99999999999994
          299.99999999999994 299.99999999999994 299.99999999999994 299.99999999999994 299.99999999999994 299.99999999999994
          299.99999999999994 299.99999999999994 299.99999999999994 299.99999999999994 299.99999999999994 299.99999999999994
          299.99999999999994 299.99999999999994 299.99999999999994 299.99999999999994 299.99999999999994 299.99999999999994
          299.99999999999994 299.99999999999994 299.99999999999994 299.99999999999994 299.99999999999994 299.99999999999994
          299.99999999999994 299.99999999999994 299.99999999999994 299.99999999999994 299.99999999999994 299.99999999999994
          299.99999999999994 299.99999999999994 299.99999999999994 299.99999999999994 299.99999999999994 299.99999999999994
          299.99999999999994 299.99999999999994 299.99999999999994 299.99999999999994 299.99999999999994 299.99999999999994
          299.99999999999994 299.99999999999994 299.99999999999994 299.99999999999994 299.99999999999994 299.99999263586506
          299.9999970469801 299.99999999999994 299.99999999999994 299.99999999999994 299.99999999999994 299.99999999999994
          299.99999188817924 299.99999999999994 299.9999964037593 299.99999999999994 300.0000124673337 299.99999999999994
          299.99999999999994 299.99999097980947 299.99999999999994 299.99999999999994 300.00000734211136 300.00004695740336
          299.9999975456341 299.99998478039447 299.99999694062984 300.0000000025615 299.999996483717 300.00000000395585
          300.0000030002335 300.0000212521082 299.9998091425537 299.99975145160727 299.99985783968407 300.0000551002618
          300.00000810771536 300.000016220498 300.0000003281285 299.9995828633423 299.9999987392601 299.99999999420936
          299.9999999919234 299.99998550894605 300.00090440789853 299.99982153697067 299.99999647468707 299.9992733886077
          299.9996990950923 299.99981560310215 299.999861109598 299.99987786726155 300.00656449654576 300.00035404358016
          299.99998093056786 300.00014750028686 300.0000015876592 299.9569722293517 299.999998746825 300.0000811567671
          299.9448658523497 299.99966567104826 300.0003769679078 300.00000921920224 300.0000003215819 300.00000025549247
          299.9988740671964 299.97057131067726 299.99998773040795 300.00527154725535 299.999992875703 300.000074559687
          300.0000264014203 299.9994940768154 299.99963993020674 299.9999990516234 300.0000966682004 299.99878456468133
          299.9999951461279 299.9999712283515 299.99997720539795 299.99999999999994 299.99999999999994 299.99999999999994
          299.99999999999994 299.99999999999994 299.99999999999994 299.99999999999994 299.99999999999994 299.99999999999994
          299.99999999999994 299.99999999999994 299.99999999999994 299.99999999999994 299.99999999999994 299.99999999999994
          299.94827740231887 296.8847827853305 300.10346035282765 300.2478011247858 299.974388486849 300.05363349719164
          299.95345805109974 299.96496013120293 299.94475303297617 299.9708167481995 299.9992486940544 299.99975250897137
          299.99995431210306 299.9994765341934 300.0000051151211 300.0000902828273 300.00000391560343 300.0002203381456
          299.99994030359466 300.000093965662 300.0000200496884 300.00118645500663 299.99977851044366 299.9970308771972
          300.000013293498
        </DataArray>
        <DataArray type="Float64" Name="Density" format="ascii" RangeMin="1.1760399231968095" RangeMax="1.1808106560079332">
          1.17653 1.17653 1.17653 1.17653 1.17653 1.17653
          1.17653 1.17653 1.17653 1.17653 1.17653 1.17653
          1.17653 1.17653 1.17653 1.17653 1.17653 1.17653
          1.17653 1.17653 1.17653 1.17653 1.17653 1.17653
          1.17653 1.17653 1.17653 1.17653 1.17653 1.17653
          1.17653 1.17653 1.17653 1.17653 1.17653 1.17653
          1.17653 1.17653 1.17653 1.17653 1.17653 1.17653
          1.17653 1.17653 1.17653 1.17653 1.17653 1.17653
          1.17653 1.17653 1.17653 1.17653 1.17653 1.17653
          1.17653 1.17653 1.17653 1.17653 1.17653 1.17653
          1.17653 1.17653 1.17653 1.17653 1.17653 1.1765299288756979
          1.1765299714576003 1.17653 1.17653 1.17653 1.17653 1.17653
          1.1765299215752842 1.17653 1.1765299653203272 1.17653 1.176530120389214 1.17653
          1.17653 1.1765299129159692 1.17653 1.17653 1.1765300713417408 1.1765304534234713
          1.1765299764126587 1.176529852425687 1.1765299704120917 1.1765300000247612 1.1765299660304755 1.1765300000382648
          1.1765300288736968 1.1765302052212665 1.1765281732967035 1.176527619474427 1.1765286657694247 1.1765305339462258
          1.176530079023162 1.1765301567045658 1.1765300032402413 1.176526003237896 1.1765299877656838 1.1765299999438874
          1.176529999921847 1.1765298592187388 1.1765386510643363 1.1765281487957047 1.176529965971772 1.1765231807744934
          1.1765271171663991 1.1765282216033839 1.1765286771614842 1.1765286150208838 1.1765921654542983 1.1765332567054736
          1.1765298140139018 1.1765313393962569 1.1765300145919095 1.1761549658589492 1.1765299876962765 1.1765307884861005
          1.1761054401883215 1.1765267907073333 1.1765336283661303 1.1765300927761249 1.1765300031149066 1.1765300024736425
          1.1765188826575412 1.1762686805016476 1.1765298797743096 1.1765807788709428 1.1765299357191241 1.1765307255892588
          1.1765302556733164 1.1765250501355187 1.1765273376756686 1.1765299908118894 1.1765309369000245 1.1765182433855184
          1.1765299529162085 1.1765297196196878 1.1765297763306162 1.17653 1.17653 1.17653
          1.17653 1.17653 1.17653 1.17653 1.17653 1.17653
          1.17653 1.17653 1.17653 1.17653 1.17653 1.17653
          1.1762010662550073 1.1808106560079332 1.1776613778635643 1.1786631752149495 1.1764742020375885 1.1766765201435847
          1.1761251153652659 1.176242773214382 1.1760399231968095 1.1762392470515979 1.176522546342816 1.1765276616606242
          1.1765295394355277 1.1765248254710836 1.1765300524107256 1.1765310415579289 1.1765300397912868 1.1765325740021544
          1.1765294134112825 1.1765310542323337 1.1765301941161734 1.1765417516209535 1.176527908326423 1.176500789736803
          1.1765301264684218
        </DataArray>
        <DataArray type="Float64" Name="Momentum" NumberOfComponents="3" format="ascii" RangeMin="33.238666749954" RangeMax="40.84075154947295">
          40.80676652 0 0 40.80676652 -1.7057292758119914e-15 0
          40.80676652 0 0 40.80676652 -2.412184577167274e-16 0
          40.80676652 1.0944414528407839e-16 0 40.80676652 -6.304089229093245e-16 0
          40.80676652 2.2396150934541702e-15 0 40.80676652 1.196167188713268e-15 0
          40.80676652 2.5095481048817626e-15 0 40.80676652 1.6247255748325429e-15 0
          40.80676652 0 0 40.80676652 1.0299467693037713e-16 0
          40.80676652 -8.260565571637384e-17 0 40.80676652 -1.1444468970700038e-15 0
          40.80676652 -2.895719215374563e-16 0 40.80676652 1.0509513165374986e-15 0
          40.80676652 1.1154111167434054e-15 0 40.80676652 2.1471014958955183e-15 0
          40.80676652 8.371856517639502e-16 0 40.80676652 0 0
          40.80676652 -1.2397889388644183e-15 0 40.80676652 -7.875980262361588e-16 0
          40.80676652 3.14925865733752e-16 0 40.80676652 0 0
          40.80676652 -1.4686694101162002e-15 0 40.80676652 -1.5270206427698048e-15 0
          40.80676652 -9.73871838726677e-16 0 40.80676652 5.634001014032844e-17 0
          40.80676652 1.3096615531736716e-15 0 40.80676652 -3.59489213930696e-17 0
          40.80676652 1.902468384243317e-15 0 40.80676652 0 0
          40.80676652 -7.417334340715475e-16 0 40.80676652 0 0
          40.80676652 -9.550746136926233e-16 0 40.80676652 -7.029308645150875e-16 0
          40.80676652 -9.488000712964637e-16 0 40.80676652 4.676740089989987e-16 0
          40.80676652 1.8798371838041574e-15 0 40.80676652 2.28220486487104e-15 0
          40.80676652 2.7364564875179057e-15 0 40.80676652 -3.9500784027029493e-17 0
          40.80676652 0 0 40.80676652 3.388389675783658e-16 0
          40.80676652 0 0 40.80676652 -2.2063913697826216e-15 0
          40.80676652 -6.281827612422103e-16 0 40.80676652 -2.72942267220416e-16 0
          40.80676652 1.0200324473568962e-16 0 40.80676652 1.8902178998706627e-16 0
          40.80676652 0 0 40.80676652 1.6398821954249632e-15 0
          40.80676652 -9.034986028030644e-16 0 40.80676652 2.152575403633015e-15 0
          40.80676652 -1.5001924826399514e-15 0 40.80676652 0 0
          40.80676652 2.6504043661551647e-16 0 40.80676652 7.929248349094833e-16 0
          40.80676652 7.761033593639597e-16 0 40.80676652 0 0
          40.80676652 -1.4830259689793664e-16 0 40.80676652 -8.056176785027677e-17 0
          40.80676652 1.4713337347420203e-15 0 40.80676652 8.913400655658763e-16 0
          40.80676652 8.23331558404034e-16 0 40.80674454695239 0 0
          40.806749139438644 0.0000017946663743333942 0 40.80676652 -9.078418609489981e-16 0
          40.80676652 0 0 40.80676652 -6.286307006972166e-16 0
          40.80676652 1.4783239260566007e-15 0 40.80676652 2.748047223192937e-15 0
          40.80673222745213 0.0000034276237673218373 0 40.80676652 2.1746361296377792e-15 0
          40.8067652910124 0 0 40.80676652 -6.635504798053134e-16 0
          40.80680362003206 0.00001570059235614086 0 40.80676652 -4.920786646590531e-16 0
          40.80676652 0 0 40.8067388702345 0.000006516481742435284 0
          40.80676652 9.38469573834238e-16 0 40.80676652 3.792759779113227e-17 0
          40.80684456661955 -0.000017763444051343085 0 40.80687063695374 1.9896854325937067e-7 0
          40.80677980061683 0 0 40.80669214549114 0.00001033459222816927 0
          40.80675490427841 -0.000001274531663275201 0 40.80676653016622 3.4370402411623275e-9 0
          40.806759012473066 0.000003366534371873109 0 40.806766535711766 0 0
          40.806752281667514 0.00004606014769832044 0 40.806799188612345 -0.00003746263035500253 0
          40.80562564722892 -0.0010484122702701971 0 40.804998546147935 -0.00013297162425119215 0
          40.80319393931441 -0.00041675226486980496 0 40.806957982915 -0.00002111965458102883 0
          40.80681058752105 0.00006327967887326254 0 40.80679338951313 -0.000014772144815607084 0
          40.80677786894264 -0.000011222543521514378 0 40.80400397770181 0.001486270295556773 0
          40.80676198748623 0 0 40.80676648867581 -1.9335557236418962e-8 0
          40.8067664879098 0 0 40.80662818931032 -0.00005502386959848099 0
          40.81151082313489 0.0059413866512880165 0 40.81814026783779 -0.00014833967591682147 0
          40.806760149970025 0.000011686363953012023 0 40.79957462457997 0.002004130148216358 0
          40.80486251833451 -0.000556929009123385 0 40.80788571387558 -0.00226941021674731 0
          40.80455017080036 0.0010575784679421815 0 40.81507824507181 -0.009850598520958884 0
          40.82908132860484 -0.003169725342604263 0 40.81876390407683 0.007174603913013278 0
          40.80670103852267 -0.0002449344882977461 0 40.81562855771307 -0.005272874940664073 0
          40.80669480355598 -0.000036198202665718024 0 40.753497938251556 -0.030279096609910003 0
          40.80675243030438 2.5690019061884617e-7 0 40.8070221418279 0.000663669469896401 0
          40.4816444516359 0.0524589965775282 0 40.80648206407183 0.0023163897688570105 0
          40.79551109871658 0.008956637605478804 0 40.8068227926551 0 0
          40.806767584276415 0 0 40.80676742704872 3.9944383773834393e-7 0
          40.79755757860608 -0.01660836371178233 0 40.70868130277062 -0.24656948155713584 0
          40.80666060282934 0.00009322531700165739 0 40.833190423734905 0.053918705703519657 0
          40.80697706244504 -0.0000032015131041870586 0 40.80704755977623 -0.00033814997720769133 0
          40.806801095536905 0.00010883069732016857 0 40.80328072805266 -0.0030344442579554364 0
          40.8407509785991 0.006828604091888254 0 40.80676359121868 0 0
          40.80690651902422 -0.004780875996367587 0 40.80545554878673 0.023738979205466432 0
          40.80673491660823 0.00001563303018338942 0 40.80675317608695 -0.000060792251460898846 0
          40.80657314293301 0.00007017662808551268 0 40.80676652 0 0
          40.80676652 -8.099066019663624e-16 0 40.80676652 -5.195425398196454e-16 0
          40.80676652 -1.908829175725875e-15 0 40.80676652 1.7714901587004158e-16 0
          40.80676652 -3.7777952912326834e-17 0 40.80676652 5.706910097792023e-16 0
          40.80676652 6.105806963442286e-16 0 40.80676652 1.5991653982619483e-15 0
          40.80676652 9.897212577270241e-16 0 40.80676652 2.1096486131674273e-15 0
          40.80676652 -8.993727031974987e-16 0 40.80676652 2.6813923738449752e-17 0
          40.80676652 0 0 40.80676652 2.868035052713791e-16 0
          40.467986881455126 -0.5701942012178924 0 32.844471898163775 -5.1038841136165765 0
          40.413611408891 0.057652866618417065 0 40.72353133359289 -0.10366087117862459 0
          40.60706401334172 0.028971767360430382 0 40.70909199158796 0.08981216476815233 0
          40.77511583991445 0.008008081392448383 0 40.63848241910596 -0.015213207115208998 0
          40.728079478745634 -0.21233096530796472 0 40.62506464856542 -0.1922199536198378 0
          40.797272556269185 0.010243175465681183 0 40.803715466363236 -0.013902201908016023 0
          40.80604950145934 0.004594597969224616 0 40.80218452670467 0.0028154886552994845 0
          40.8069483036067 0.000025589881378106416 0 40.8073071603888 -0.0005787638127966645 0
          40.806808362505144 0 0 40.80811367376085 0 0
          40.806600263301874 0 0 40.807334886635104 -0.000162279917838014 0
          40.806803968687326 -0.00010176228779749733 0 40.8167003927592 -0.012613271432759211 0
          40.81008132576735 -0.0029432202596499334 0 40.77494571269015 0.021270260834246588 0
          40.80661385236992 0.00031705614741574164 0
          <InformationKey name="L2_NORM_RANGE" location="vtkDataArray" length="2">
            <Value index="0">
              33.23866675
            </Value>
            <Value index="1">
              40.840751549
            </Value>
          </InformationKey>
        </DataArray>
        <DataArray type="Float64" Name="Energy" format="ascii" RangeMin="252173.2834593587" RangeMax="254797.27309349665">
          254132.23294498984 254132.23294498984 254132.23294498984 254132.23294498984 254132.23294498984 254132.23294498984
          254132.23294498984 254132.23294498984 254132.23294498984 254132.23294498984 254132.23294498984 254132.23294498984
          254132.23294498984 254132.23294498984 254132.23294498984 254132.23294498984 254132.23294498984 254132.23294498984
          254132.23294498984 254132.23294498984 254132.23294498984 254132.23294498984 254132.23294498984 254132.23294498984
          254132.23294498984 254132.23294498984 254132.23294498984 254132.23294498984 254132.23294498984 254132.23294498984
          254132.23294498984 254132.23294498984 254132.23294498984 254132.23294498984 254132.23294498984 254132.23294498984
          254132.23294498984 254132.23294498984 254132.23294498984 254132.23294498984 254132.23294498984 254132.23294498984
          254132.23294498984 254132.23294498984 254132.23294498984 254132.23294498984 254132.23294498984 254132.23294498984
          254132.23294498984 254132.23294498984 254132.23294498984 254132.23294498984 254132.23294498984 254132.23294498984
          254132.23294498984 254132.23294498984 254132.23294498984 254132.23294498984 254132.23294498984 254132.23294498984
          254132.23294498984 254132.23294498984 254132.23294498984 254132.23294498984 254132.23294498984 254132.21068464083
          254132.2237167385 254132.23294498984 254132.23294498984 254132.23294498984 254132.23294498984 254132.23294498984
          254132.2080576272 254132.23294498984 254132.22241530262 254132.23294498984 254132.27062295476 254132.23294498984
          254132.23294498984 254132.20566067338 254132.23294498984 254132.23294498984 254132.25717829922 254132.37361808485
          254132.2262657671 254132.185809906 254132.22360227315 254132.23295282494 254132.22241762077 254132.23295709572
          254132.24118761852 254132.29611198165 254131.63977647398 254131.45033198615 254131.70235863686 254132.4008224431
          254132.2582964688 254132.28123908344 254132.23431180176 254130.92625990693 254132.2290948631 254132.23292695888
          254132.23292026698 254132.18566623665 254135.01975839477 254132.07909559715 254132.22243683622 254129.9049637217
          254131.29349139007 254131.73400017334 254131.7546045369 254132.12063701803 254151.90577761029 254133.6477582673
          254132.17461544805 254132.9526618628 254132.23493307267 254013.49362146299 254132.22875486367 254132.4797339327
          253983.24604194736 254131.25130680684 254132.94046280955 254132.2626128334 254132.23392263637 254132.2337236115
          254128.57458267768 254047.87480929543 254132.19308234868 254148.51147546966 254132.22042178776 254132.46153236713
          254132.31136502663 254130.62145277363 254132.5361442232 254132.23006867577 254132.52071555005 254128.63568488014
          254132.21763502885 254132.14795209555 254132.15893836285 254132.23294498984 254132.23294498984 254132.23294498984
          254132.23294498984 254132.23294498984 254132.23294498984 254132.23294498984 254132.23294498984 254132.23294498984
          254132.23294498984 254132.23294498984 254132.23294498984 254132.23294498984 254132.23294498984 254132.23294498984
          254006.33162703013 252173.2834593587 254449.17784988863 254797.27309349665 254091.70386101055 254205.63788524026
          254004.86400227004 254035.11839527794 253977.6064276648 254038.8593061208 254129.66804215248 254131.41586904682
          254132.07056176753 254130.52035860764 254132.25482872355 254132.5516882569 254132.2462510655 254133.018692905
          254132.0507517429 254132.55848331106 254132.29287667756 254136.10409442743 254131.71153325617 254122.34744685207
          254132.2660448118
        </DataArray>
      </PointData>
      <CellData>
        <DataArray type="UInt8" Name="vtkGhostType" format="ascii" RangeMin="0" RangeMax="1">
          1 1 1 1 1 1
          0 1 1 1 0 0
          0 0 0 0 0 0
          0 0 0 0 0 0
          0 0 0 0 0 0
          0 0 0 0 0 0
          0 0 0 0 0 0
          0 0 0 0 0 0
          0 0 0 0 0 0
          0 0 0 0 0 0
          0 0 0 0 0 0
          1 0 0 0 0 0
          0 0 0 0
        </DataArray>
      </CellData>
      <Points>