<?xml version="1.0"?>
<VTKFile type="UnstructuredGrid" version="0.1" byte_order="LittleEndian" header_type="UInt32" compressor="vtkZLibDataCompressor">
  <UnstructuredGrid>
    <Piece NumberOfPoints="24" NumberOfCells="15">
      <PointData>
        <DataArray type="Float64" Name="Disp" NumberOfComponents="3" format="ascii" RangeMin="0" RangeMax="2.8199407010408115">
          0 0 0 0 0 0
          -0.0035704060311356803 -0.44660849341962655 0 0 0 0
          -0.044440207045466085 -0.40255703697135947 0 -0.10449290804112153 -0.8247439421651512 0
          -0.05094040292384283 -0.3575450260909831 0 -0.08532385914151207 -0.8104074485113932 0
          0.01609476398114355 -0.8223794972035989 0 -0.06812898690963182 -1.397985499513815 0
          0.07594600211399186 -1.396926171280195 0 0.2621680538912404 -1.4307753605765658 0
          0.1990712604345189 -2.0241825074997357 0 0.3775587926634132 -2.0324675894309254 0
          0.5792563246165543 -2.053328016127696 0 0.6023686524052647 -2.582564105681206 0
          0.7589240083707722 -2.5842127447399186 0 0.9124667332034332 -2.595706331656084 0
          -0.017864198124617085 -0.3561896430538201 0 0 0 0
          0.1795450611261983 -0.878825043972956 0 0.49003248935595833 -1.4834812484551176 0
          0.794656314945957 -2.078210267970081 0 1.0735414502137457 -2.60759933886698 0
          <InformationKey name="L2_NORM_RANGE" location="vtkDataArray" length="2">
            <Value index="0">
              0
            </Value>
            <Value index="1">
              2.819940701
            </Value>
          </InformationKey>
        </DataArray>
        <DataArray type="Float64" Name="Nodal Stress" NumberOfComponents="6" format="ascii" RangeMin="567424.0356463323" RangeMax="6051415.298880385">
          -3854350.212244847 -3482884.7659758925 0 -3103727.6407289254 0 0
          -3619357.9746221113 -2838210.210312651 0 -2974320.0016250843 0 0
          -3762144.600694689 -2634334.4908362436 0 -3240743.4908487266 0 0
          -2535740.664544128 -1477376.7292533491 0 -2646414.6602940215 0 0
          -3279940.645097344 -2065992.399178478 0 -3061454.461285931 0 0
          -3605364.2287975065 -2675892.328794013 0 -3219296.9159253016 0 0
          -1824970.4086955665 -1260820.857212835 0 -2741981.324059976 0 0
          -2646821.5138471723 -2184921.018614355 0 -2840619.8647466744 0 0
          -836590.493971936 -1635163.5903483985 0 -2263593.0287037618 0 0
          -2835725.376969321 -2279805.1713453624 0 -2616717.608147145 0 0
          -1712921.3689773313 -1998799.9724858697 0 -2195634.8775789724 0 0
          -207475.7463210637 -1624646.0171363805 0 -1606296.5025046011 0 0
          -1435869.5730377708 -1235921.8517813582 0 -1395861.7070263864 0 0
          -726299.3805183761 -1161005.3243715432 0 -1177202.1466189886 0 0
          28545.071799174213 -1002567.3090921985 0 -869530.0940983517 0 0
          -521167.66148879 -596730.2162017245 0 -577458.8352916411 0 0
          -181090.6835437946 -615127.2054178317 0 -497256.0691559156 0 0
          63492.16649459273 -617700.5186338717 0 -392260.9340567905 0 0
          582439.4157354651 -575269.8449355903 0 -2317063.4682239424 0 0
          -149595.6185637831 453179.1982656746 0 -2402296.3793142526 0 0
          1110039.2410045622 -1205802.7613590125 0 -1518793.1024091223 0 0
          892131.261454376 -1177450.2337593671 0 -978768.6743580217 0 0
          434938.0097684855 -735923.3814268248 0 -529021.3097731093 0 0
          149873.67085041935 -494663.4588912496 0 -234128.13041737486 0 0
          <InformationKey name="L2_NORM_RANGE" location="vtkDataArray" length="2">
            <Value index="0">
              567424.03565
            </Value>
            <Value index="1">
              6051415.2989
            </Value>
          </InformationKey>
        </DataArray>
        <DataArray type="Float64" Name="Nodal Strain" NumberOfComponents="6" format="ascii" RangeMin="0" RangeMax="0">
          0 0 0 0 0 0
          0 0 0 0 0 0
          0 0 0 0 0 0
          0 0 0 0 0 0
          0 0 0 0 0 0
          0 0 0 0 0 0
          0 0 0 0 0 0
          0 0 0 0 0 0
          0 0 0 0 0 0
          0 0 0 0 0 0
          0 0 0 0 0 0
          0 0 0 0 0 0
          0 0 0 0 0 0
          0 0 0 0 0 0
          0 0 0 0 0 0
          0 0 0 0 0 0
          0 0 0 0 0 0
          0 0 0 0 0 0
          0 0 0 0 0 0
          0 0 0 0 0 0
          0 0 0 0 0 0
          0 0 0 0 0 0
          0 0 0 0 0 0
          0 0 0 0 0 0
          <InformationKey name="L2_NORM_RANGE" location="vtkDataArray" length="2">
            <Value index="0">
              0
            </Value>
            <Value index="1">
              0
            </Value>
          </InformationKey>
        </DataArray>
        <DataArray type="Float64" Name="Sigma" NumberOfComponents="6" format="ascii" RangeMin="227401.35327762165" RangeMax="3606819.816159408">
          241224.5666861485 -241224.56668614407 0 -3047957.0247166865 0 0
          -179308.92607718668 179308.92607718759 0 -2952195.358231696 0 0
          -695849.8056363196 695849.8056363056 0 -3352263.622877419 0 0
          -620003.7188738029 620003.7188737952 0 -2487939.9666690966 0 0
          -927053.7784686418 927053.7784686452 0 -3144761.719693161 0 0
          -508528.57597116695 508528.57597117836 0 -3534394.794173629 0 0
          -519452.75374460773 519452.75374461885 0 -2933062.6374340537 0 0
          -250977.93349949043 250977.93349949052 0 -2878877.1361799776 0 0
          498590.2273810756 -498590.227381094 0 -2285241.5345176975 0 0
          -532440.3993961761 532440.3993961823 0 -2953512.9847139064 0 0
          230824.04165480135 -230824.04165480897 0 -2235607.7802084703 0 0
          866039.4954228537 -866039.4954228641 0 -1620870.946548644 0 0
          -270385.73487555835 270385.73487555503 0 -1379225.8163768854 0 0
          253938.07524505616 -253938.0752450873 0 -1093997.532734442 0 0
          530149.7727049404 -530149.7727049276 0 -823738.6027259771 0 0
          39200.39026875876 -39200.39026872917 0 -220540.32347407585 0 0
          247644.71366628524 -247644.71366626132 0 -163695.00971715502 0 0
          272720.0142176485 -272720.0142176484 0 -180812.56543950076 0 0
          734073.798694016 -734073.7986940247 0 -2638838.432436376 0 0
          -948223.9395575534 948223.9395575606 0 -2184162.156520615 0 0
          1345632.5647129554 -1345632.5647129419 0 -1395573.4142060764 0 0
          1170678.843204443 -1170678.8432044566 0 -980734.4702822266 0 0
          544621.8369565213 -544621.8369565115 0 -493782.4764398807 0 0
          225289.5661933395 -225289.56619332856 0 -87163.56665494996 0 0
          <InformationKey name="L2_NORM_RANGE" location="vtkDataArray" length="2">
            <Value index="0">
              227401.35328
            </Value>
            <Value index="1">
              3606819.8162
            </Value>
          </InformationKey>
        </DataArray>
        <DataArray type="Float64" Name="Press" format="ascii" RangeMin="-4159587.1139974645" RangeMax="100642.26849221329">
          -4159587.1139974645 -3728936.6736253626 -3177915.3725514724 -2535561.803605394 -2515815.6275082827 -3685783.9740400766
          -1474235.448154746 -2537188.79939781 -1261452.6717082895 -3034135.0577344224 -1869290.129520664 -908584.0312136221
          -1402193.809719729 -828973.2326414689 -400256.22666511143 -261272.16678090868 -113774.34767436501 -217006.1792884308
          3486.502503689852 100642.26849221329 33187.546360364104 -114146.62249734093 -123447.82399113639 -196651.32660466325
        </DataArray>
        <DataArray type="Float64" Name="Dev strain" NumberOfComponents="6" format="ascii" RangeMin="0" RangeMax="0">
          0 0 0 0 0 0
          0 0 0 0 0 0
          0 0 0 0 0 0
          0 0 0 0 0 0
          0 0 0 0 0 0
          0 0 0 0 0 0
          0 0 0 0 0 0
          0 0 0 0 0 0
          0 0 0 0 0 0
          0 0 0 0 0 0
          0 0 0 0 0 0
          0 0 0 0 0 0
          0 0 0 0 0 0
          0 0 0 0 0 0
          0 0 0 0 0 0
          0 0 0 0 0 0
          0 0 0 0 0 0
          0 0 0 0 0 0
          0 0 0 0 0 0
          0 0 0 0 0 0
          0 0 0 0 0 0
          0 0 0 0 0 0
          0 0 0 0 0 0
          0 0 0 0 0 0
          <InformationKey name="L2_NORM_RANGE" location="vtkDataArray" length="2">
            <Value index="0">
              0
            </Value>
            <Value index="1">
              0
            </Value>
          </InformationKey>
        </DataArray>
        <DataArray type="Float64" Name="J2 Stresses" format="ascii" RangeMin="13696179166.734337" RangeMax="3381587952849.681">
          2380699797702.867 2211016049262.147 3293624801320.9033 1931865930854.6978 3331810276584.861 3381587952849.681
          2420545272150.7637 2134973314408.6318 1554174432611.1218 2464302516627.575 1302765274938.02 1406830063973.654
          548674408764.3163 363692196466.4334 450695102904.3295 13696179166.734337 68026918258.425354 82549502110.07779
          2279731410054.8867 2091769721044.2493 2297633287825.6494 1610948979226.4487 357568228799.66565 52654760473.5836
        </DataArray>
      </PointData>
      <CellData>
        <DataArray type="UInt8" Name="vtkGhostType" format="ascii" RangeMin="0" RangeMax="0">
          0 0 0 0 0 0
          0 0 0 0 0 0
          0 0 0
        </DataArray>
        <DataArray type="Float64" Name="Gauss Stress" NumberOfComponents="6" format="ascii" RangeMin="759044.4702880835" RangeMax="5755476.240382611">
          -1314818.773561546 -638015.4668205718 0 -2561000.798265035 0 0
          -3125092.182514506 -2002182.5939323844 0 -2879489.9205070017 0 0
          -3785810.6827946454 -3005316.7110466473 0 -3124294.4313797406 0 0
          -160042.5584888855 -1189464.4770106056 0 -2313179.004648551 0 0
          -2246896.696275198 -1647449.577109367 0 -2810485.7569562225 0 0
          -3574778.4667683146 -2383573.4199805046 0 -3227574.3182310467 0 0
          407486.33791560994 -1532984.227445061 0 -1570605.0913886612 0 0
          -1308009.9502202864 -1980247.8656999157 0 -2255149.349363697 0 0
          -3046880.206976251 -2516318.7733702324 0 -2900598.1738189957 0 0
          391263.81098038686 -1164481.1631639926 0 -979781.6239991821 0 0
          -531538.0587533036 -1472013.7512671384 0 -1443553.7155543831 0 0
          -1863164.0617470401 -1704132.053061111 0 -1915586.0285084264 0 0
          158854.90838077693 -627535.6866554394 0 -396374.3028150771 0 0
          -63889.35260886145 -716115.6405258253 0 -565560.9276542687 0 0
          -583954.0281279825 -719152.7502802486 0 -714364.6705756395 0 0
          <InformationKey name="L2_NORM_RANGE" location="vtkDataArray" length="2">
            <Value index="0">
              759044.47029
            </Value>
            <Value index="1">
              5755476.2404
            </Value>
          </InformationKey>
        </DataArray>
        <DataArray type="Float64" Name="Gauss Strain" NumberOfComponents="6" format="ascii" RangeMin="0" RangeMax="0">
          0 0 0 0 0 0
          0 0 0 0 0 0
          0 0 0 0 0 0
          0 0 0 0 0 0
          0 0 0 0 0 0
          0 0 0 0 0 0
          0 0 0 0 0 0
          0 0 0 0 0 0
          0 0 0 0 0 0
          0 0 0 0 0 0
          0 0 0 0 0 0
          0 0 0 0 0 0
          0 0 0 0 0 0
          0 0 0 0 0 0
          0 0 0 0 0 0
          <InformationKey name="L2_NORM_RANGE" location="vtkDataArray" length="2">
            <Value index="0">
              0
            </Value>
            <Value index="1">
              0
            </Value>
          </InformationKey>
        </DataArray>
      </CellData>
      <Points>
        <DataArray type="Float32" Name="Points" NumberOfComponents="3" format="ascii" RangeMin="15.594233770003514" RangeMax="48.950587405303104">
          0 -44 0 0 -35.20000076293945 0
          9.600000381469727 -35.20000076293945 0 0 -26.399999618530273 0
          9.600000381469727 -27.261951446533203 0 19.200000762939453 -26.399999618530273 0
          9.600000381469727 -19.710975646972656 0 19.200000762939453 -19.710975646972656 0
          19.200000762939453 -13.21548843383789 0 28.799999237060547 -17.600000381469727 0
          28.799999237060547 -12.289024353027344 0 28.799999237060547 -6.784512042999268 0
          38.400001525878906 -8.800000190734863 0 38.400001525878906 -4.738048076629639 0
          38.400001525878906 -0.2890239953994751 0 48 0 0
          48 3.200000047683716 0 48 6.400000095367432 0
          9.600000381469727 -12.289024353027344 0 0 -17.600000381469727 0
          19.200000762939453 -6.784512042999268 0 28.799999237060547 -1.2154879570007324 0
          38.400001525878906 4.2890238761901855 0 48 9.600000381469727 0
          <InformationKey name="L2_NORM_RANGE" location="vtkDataArray" length="2">
            <Value index="0">
              15.59423377
            </Value>
            <Value index="1">
              48.950587405
            </Value>
          </InformationKey>
        </DataArray>
      </Points>
      <Cells>
        <DataArray type="Int64" Name="connectivity" format="ascii" RangeMin="0" RangeMax="23">
          3 6 18 19 1 4
          6 3 0 2 4 1
          6 8 20 18 4 7
          8 6 2 5 7 4
          8 11 21 20 7 10
          11 8 5 9 10 7
          11 14 22 21 10 13
          14 11 9 12 13 10
          14 17 23 22 13 16
          17 14 12 15 16 13
        </DataArray>
        <DataArray type="Int64" Name="offsets" format="ascii" RangeMin="4" RangeMax="60">
          4 8 12 16 20 24
          28 32 36 40 44 48
          52 56 60
        </DataArray>
        <DataArray type="UInt8" Name="types" format="ascii" RangeMin="9" RangeMax="9">
          9 9 9 9 9 9
          9 9 9 9 9 9
          9 9 9
        </DataArray>
      </Cells>
    </Piece>
  </UnstructuredGrid>
</VTKFile>
