<?xml version="1.0"?>
<VTKFile type="UnstructuredGrid" version="0.1" byte_order="LittleEndian" header_type="UInt32" compressor="vtkZLibDataCompressor">
  <UnstructuredGrid>
    <Piece NumberOfPoints="418" NumberOfCells="757">
      <PointData>
        <DataArray type="Float64" Name="nsi_BC" NumberOfComponents="3" format="ascii" RangeMin="0" RangeMax="1">
          0 0 0 0 0 0
          0 0 0 0 0 0
          0 0 0 1 0 0
          0 0 0 0 0 0
          0 0 0 0 0 0
          0 0 0 0 0 0
          0 0 0 0 0 0
          0 0 0 0 0 0
          0 0 0 0 0 0
          0 0 0 0 0 0
          0 0 0 0 0 0
          0 0 0 0 0 0
          0 0 0 0 0 0
          0 0 0 0 0 0
          0 0 0 0 0 0
          0 0 0 0 0 0
          0 0 0 0 0 0
          0 0 0 0 0 0
          0 0 0 0 0 0
          0 0 0 0 0 0
          0 0 0 0 0 0
          0 0 0 0 0 0
          0 0 0 0 0 0
          0 0 0 0 0 0
          0 0 0 0 0 0
          0 0 0 0 0 0
          0 0 0 0 0 0
          0 0 0 0 0 0
          0 0 0 0 0 0
          0 0 0 0 0 0
          0 0 0 0 0 0
          0 0 0 0 0 0
          0 0 0 0 0 0
          0 0 0 0 0 0
          0 0 0 0 0 0
          0 0 0 0 0 0
          0 0 0 0 0 0
          0 0 0 0 0 0
          0 0 0 0 0 0
          0 0 0 0 0 0
          0 0 0 0 0 0
          0 0 0 0 0 0
          0 0 0 0 0 0
          0 0 0 0 0 0
          0 0 0 0 0 0
          0 0 0 0 0 0
          0 0 0 0 0 0
          0 0 0 0 0 0
          0 0 0 0 0 0
          0 0 0 0 0 0
          0 0 0 0 0 0
          0 0 0 0 0 0
          0 0 0 0 0 0
          0 0 0 0 0 0
          0 0 0 0 0 0
          0 0 0 0 0 0
          0 0 0 0 0 0
          0 0 0 0 0 0
          0 0 0 0 0 0
          0 0 0 0 0 0
          0 0 0 0 0 0
          0 0 0 0 0 0
          0 0 0 0 0 0
          0 0 0 0 0 0
          0 0 0 0 0 0
          0 0 0 0 0 0
          0 0 0 0 0 0
          0 0 0 0 0 0
          0 0 0 0 0 0
          0 0 0 0 0 0
          0 0 0 0 0 0
          0 0 0 0 0 0
          0 0 0 0 0 0
          0 0 0 0 0 0
          0 0 0 0 0 0
          0 0 0 0 0 0
          0 0 0 0 0 0
          0 0 0 0 0 0
          0 0 0 0 0 0
          0 0 0 0 0 0
          0 0 0 0 0 0
          0 0 0 0 0 0
          0 0 0 0 0 0
          0 0 0 0 0 0
          0 0 0 0 0 0
          0 0 0 0 0 0
          0 0 0 0 0 0
          0 0 0 0 0 0
          0 0 0 0 0 0
          0 0 0 0 0 0
          0 0 0 0 0 0
          0 0 0 0 0 0
          0 0 0 0 0 0
          0 0 0 0 0 0
          0 0 0 0 0 0
          0 0 0 0 0 0
          0 0 0 0 0 0
          0 0 0 0 0 0
          0 0 0 0 0 0
          0 0 0 0 0 0
          0 0 0 0 0 0
          0 0 0 0 0 0
          0 0 0 0 0 0
          0 0 0 0 0 0
          0 0 0 0 0 0
          0 0 0 0 0 0
          0 0 0 0 0 0
          0 0 0 0 0 0
          0 0 0 0 0 0
          0 0 0 0 0 0
          0 0 0 0 0 0
          0 0 0 0 0 0
          0 0 0 0 0 0
          0 0 0 0 0 0
          0 0 0 0 0 0
          0 0 0 0 0 0
          0 0 0 0 0 0
          0 0 0 0 0 0
          0 0 0 0 0 0
          0 0 0 0 0 0
          0 0 0 0 0 0
          0 0 0 0 0 0
          0 0 0 0 0 0
          0 0 0 0 0 0
          0 0 0 0 0 0
          0 0 0 0 0 0
          0 0 0 0 0 0
          0 0 0 0 0 0
          0 0 0 0 0 0
          0 0 0 0 0 0
          0 0 0 0 0 0
          0 0 0 0 0 0
          0 0 0 0 0 0
          0 0 0 0 0 0
          0 0 0 0 0 0
          0 0 0 0 0 0
          0 0 0 0 0 0
          0 0 0 0 0 0
          0 0 0 0 0 0
          0 0 0 0 0 0
          0 0 0 0 0 0
          0 0 0 0 0 0
          0 0 0 0 0 0
          0 0 0 0 0 0
          0 0 0 0 0 0
          0 0 0 0 0 0
          0 0 0 0 0 0
          0 0 0 0 0 0
          0 0 0 0 0 0
          0 0 0 0 0 0
          0 0 0 0 0 0
          0 0 0 0 0 0
          0 0 0 0 0 0
          0 0 0 0 0 0
          0 0 0 0 0 0
          0 0 0 0 0 0
          0 0 0 0 0 0
          0 0 0 0 0 0
          0 0 0 0 0 0
          0 0 0 0 0 0
          0 0 0 0 0 0
          0 0 0 0 0 0
          0 0 0 0 0 0
          0 0 0 0 0 0
          0 0 0 0 0 0
          0 0 0 0 0 0
          0 0 0 0 0 0
          0 0 0 0 0 0
          0 0 0 0 0 0
          0 0 0 0 0 0
          0 0 0 0 0 0
          0 0 0 0 0 0
          0 0 0 0 0 0
          0 0 0 0 0 0
          0 0 0 0 0 0
          0 0 0 0 0 0
          0 0 0 0 0 0
          0 0 0 0 0 0
          0 0 0 0 0 0
          0 0 0 0 0 0
          0 0 0 0 0 0
          0 0 0 0 0 0
          0 0 0 0 0 0
          0 0 0 0 0 0
          0 0 0 0 0 0
          0 0 0 0 0 0
          0 0 0 0 0 0
          0 0 0 0 0 0
          0 0 0 0 0 0
          0 0 0 0 0 0
          0 0 0 0 0 0
          0 0 0 0 0 0
          0 0 0 0 0 0
          0 0 0 0 0 0
          0 0 0 0 0 0
          0 0 0 0 0 0
          0 0 0 0 0 0
          0 0 0 0 0 0
          0 0 0 0 0 0
          0 0 0 0 0 0
          0 0 0 0 0 0
          0 0 0 0 0 0
          0 0 0 0 0 0
          0 0 0 0 0 0
          0 0 0 0 0 0
          0 0 0 0 0 0
          0 0 0 0 0 0
          0 0 0 0 0 0
          0 0 0 0 0 0
          <InformationKey name="L2_NORM_RANGE" location="vtkDataArray" length="2">
            <Value index="0">
              0
            </Value>
            <Value index="1">
              1
            </Value>
          </InformationKey>
        </DataArray>
        <DataArray type="Float64" Name="nsi_FIXNO" NumberOfComponents="3" format="ascii" RangeMin="1.4142135623730951" RangeMax="1.4142135623730951">
          1 1 0 -1 -1 0
          -1 -1 0 -1 -1 0
          1 1 0 1 1 0
          -1 -1 0 -1 -1 0
          -1 -1 0 -1 -1 0
          -1 -1 0 -1 -1 0
          -1 -1 0 -1 -1 0
          -1 -1 0 1 1 0
          -1 -1 0 -1 -1 0
          -1 -1 0 -1 -1 0
          -1 -1 0 -1 -1 0
          -1 -1 0 -1 -1 0
          -1 -1 0 -1 -1 0
          -1 -1 0 -1 -1 0
          -1 -1 0 -1 -1 0
          -1 -1 0 -1 -1 0
          1 1 0 -1 -1 0
          -1 -1 0 -1 -1 0
          1 1 0 -1 -1 0
          -1 -1 0 -1 -1 0
          -1 -1 0 -1 -1 0
          1 1 0 -1 -1 0
          -1 -1 0 -1 -1 0
          -1 -1 0 -1 -1 0
          -1 -1 0 -1 -1 0
          -1 -1 0 -1 -1 0
          -1 -1 0 -1 -1 0
          -1 -1 0 -1 -1 0
          -1 -1 0 -1 -1 0
          -1 -1 0 -1 -1 0
          1 1 0 -1 -1 0
          -1 -1 0 -1 -1 0
          -1 -1 0 -1 -1 0
          -1 -1 0 -1 -1 0
          -1 -1 0 1 1 0
          -1 -1 0 -1 -1 0
          -1 -1 0 -1 -1 0
          -1 -1 0 -1 -1 0
          -1 -1 0 -1 -1 0
          -1 -1 0 -1 -1 0
          -1 -1 0 -1 -1 0
          -1 -1 0 -1 -1 0
          -1 -1 0 -1 -1 0
          -1 -1 0 -1 -1 0
          1 1 0 -1 -1 0
          -1 -1 0 -1 -1 0
          -1 -1 0 -1 -1 0
          -1 -1 0 -1 -1 0
          -1 -1 0 -1 -1 0
          -1 -1 0 -1 -1 0
          -1 -1 0 -1 -1 0
          -1 -1 0 -1 -1 0
          -1 -1 0 -1 -1 0
          -1 -1 0 -1 -1 0
          -1 -1 0 -1 -1 0
          -1 -1 0 -1 -1 0
          -1 -1 0 -1 -1 0
          -1 -1 0 -1 -1 0
          -1 -1 0 -1 -1 0
          -1 -1 0 -1 -1 0
          -1 -1 0 1 1 0
          -1 -1 0 -1 -1 0
          -1 -1 0 -1 -1 0
          -1 -1 0 -1 -1 0
          -1 -1 0 -1 -1 0
          -1 -1 0 -1 -1 0
          -1 -1 0 -1 -1 0
          -1 -1 0 -1 -1 0
          -1 -1 0 -1 -1 0
          -1 -1 0 -1 -1 0
          -1 -1 0 -1 -1 0
          -1 -1 0 -1 -1 0
          -1 -1 0 -1 -1 0
          -1 -1 0 -1 -1 0
          1 1 0 -1 -1 0
          -1 -1 0 -1 -1 0
          -1 -1 0 -1 -1 0
          -1 -1 0 -1 -1 0
          -1 -1 0 -1 -1 0
          -1 -1 0 1 1 0
          -1 -1 0 -1 -1 0
          1 1 0 -1 -1 0
          1 1 0 -1 -1 0
          -1 -1 0 -1 -1 0
          -1 -1 0 1 1 0
          -1 -1 0 -1 -1 0
          -1 -1 0 -1 -1 0
          1 1 0 -1 -1 0
          1 1 0 -1 -1 0
          -1 -1 0 -1 -1 0
          -1 -1 0 -1 -1 0
          -1 -1 0 -1 -1 0
          1 1 0 -1 -1 0
          -1 -1 0 1 1 0
          1 1 0 -1 -1 0
          -1 -1 0 -1 -1 0
          -1 -1 0 -1 -1 0
          -1 -1 0 1 1 0
          -1 -1 0 -1 -1 0
          -1 -1 0 -1 -1 0
          -1 -1 0 -1 -1 0
          1 1 0 1 1 0
          -1 -1 0 1 1 0
          -1 -1 0 -1 -1 0
          -1 -1 0 -1 -1 0
          1 1 0 -1 -1 0
          -1 -1 0 -1 -1 0
          -1 -1 0 -1 -1 0
          1 1 0 -1 -1 0
          -1 -1 0 -1 -1 0
          1 1 0 -1 -1 0
          -1 -1 0 1 1 0
          1 1 0 -1 -1 0
          -1 -1 0 -1 -1 0
          -1 -1 0 -1 -1 0
          -1 -1 0 -1 -1 0
          -1 -1 0 1 1 0
          1 1 0 -1 -1 0
          1 1 0 1 1 0
          -1 -1 0 -1 -1 0
          1 1 0 -1 -1 0
          -1 -1 0 -1 -1 0
          -1 -1 0 1 1 0
          -1 -1 0 -1 -1 0
          -1 -1 0 1 1 0
          -1 -1 0 1 1 0
          -1 -1 0 -1 -1 0
          -1 -1 0 -1 -1 0
          -1 -1 0 -1 -1 0
          -1 -1 0 1 1 0
          1 1 0 -1 -1 0
          1 1 0 -1 -1 0
          1 1 0 -1 -1 0
          -1 -1 0 -1 -1 0
          1 1 0 -1 -1 0
          -1 -1 0 -1 -1 0
          -1 -1 0 -1 -1 0
          1 1 0 1 1 0
          -1 -1 0 -1 -1 0
          -1 -1 0 -1 -1 0
          -1 -1 0 -1 -1 0
          1 1 0 -1 -1 0
          -1 -1 0 -1 -1 0
          1 1 0 -1 -1 0
          1 1 0 1 1 0
          -1 -1 0 -1 -1 0
          -1 -1 0 -1 -1 0
          -1 -1 0 1 1 0
          1 1 0 -1 -1 0
          -1 -1 0 -1 -1 0
          -1 -1 0 1 1 0
          -1 -1 0 1 1 0
          -1 -1 0 -1 -1 0
          1 1 0 -1 -1 0
          -1 -1 0 1 1 0
          -1 -1 0 -1 -1 0
          1 1 0 -1 -1 0
          1 1 0 -1 -1 0
          -1 -1 0 1 1 0
          -1 -1 0 -1 -1 0
          -1 -1 0 -1 -1 0
          -1 -1 0 1 1 0
          -1 -1 0 -1 -1 0
          -1 -1 0 -1 -1 0
          -1 -1 0 -1 -1 0
          1 1 0 -1 -1 0
          -1 -1 0 -1 -1 0
          -1 -1 0 -1 -1 0
          -1 -1 0 1 1 0
          -1 -1 0 -1 -1 0
          -1 -1 0 -1 -1 0
          1 1 0 -1 -1 0
          -1 -1 0 -1 -1 0
          -1 -1 0 -1 -1 0
          -1 -1 0 1 1 0
          -1 -1 0 -1 -1 0
          -1 -1 0 -1 -1 0
          -1 -1 0 -1 -1 0
          1 1 0 -1 -1 0
          -1 -1 0 -1 -1 0
          -1 -1 0 -1 -1 0
          -1 -1 0 -1 -1 0
          -1 -1 0 -1 -1 0
          1 1 0 -1 -1 0
          -1 -1 0 -1 -1 0
          -1 -1 0 -1 -1 0
          -1 -1 0 -1 -1 0
          1 1 0 -1 -1 0
          -1 -1 0 -1 -1 0
          -1 -1 0 -1 -1 0
          -1 -1 0 -1 -1 0
          -1 -1 0 -1 -1 0
          1 1 0 -1 -1 0
          -1 -1 0 -1 -1 0
          -1 -1 0 -1 -1 0
          -1 -1 0 -1 -1 0
          -1 -1 0 -1 -1 0
          1 1 0 -1 -1 0
          -1 -1 0 -1 -1 0
          1 1 0 -1 -1 0
          -1 -1 0 -1 -1 0
          -1 -1 0 -1 -1 0
          -1 -1 0 -1 -1 0
          1 1 0 -1 -1 0
          -1 -1 0 -1 -1 0
          -1 -1 0 -1 -1 0
          -1 -1 0 -1 -1 0
          1 1 0 -1 -1 0
          -1 -1 0 1 1 0
          <InformationKey name="L2_NORM_RANGE" location="vtkDataArray" length="2">
            <Value index="0">
              1.4142135624
            </Value>
            <Value index="1">
              1.4142135624
            </Value>
          </InformationKey>
        </DataArray>
        <DataArray type="Float64" Name="Velocity" NumberOfComponents="3" format="ascii" RangeMin="0" RangeMax="1.4147691097499628">
          0 0 0 0.31852899398091405 0.024331969774099738 0
          0.7322700097376699 0.10036041136192601 0 0.5148182599513652 0.03660708982783768 0
          0 0 0 1 0 0
          0.7174415386969634 0.02629764764264725 0 0.36939234006009397 0.0215846077344783 0
          0.6435585307270557 0.03781765921379238 0 0.3113277869852346 0.00480077549517001 0
          0.6664326884626607 0.028778777292003028 0 0.5615285069342513 0.03253879063551193 0
          0.7022524003013682 -0.09762289680248373 0 0.7198663464125901 0.032797204650206066 0
          0.6856692881233636 0.0469244618040104 0 0 0 0
          0.5045033763167123 0.02650049405420421 0 0.727138712310877 0.060154420717029915 0
          0.6054012872450948 -0.0045711004189347565 0 0.6493119662046173 0.04342388751022865 0
          0.6601709220424915 0.05718273557960843 0 0.6875920861474699 0.06320021715643208 0
          0.4228712743024293 0.03636106556977383 0 0.3487063618309059 -0.028464123384595887 0
          0.7332173408792265 0.09824859267625165 0 0.6415101695409915 0.07990357088445671 0
          0.7426258018398856 0.11881253737243003 0 0.7151605839579974 0.09972135410277919 0
          0.3199250340833606 0.012135965042175347 0 0.570046948916284 0.049209451210637974 0
          0.44463200678997683 0.003618793580365087 0 0.5998702151314703 0.09036819159790122 0
          0 0 0 0.6206754865800551 0.08274082643594889 0
          0.7357529761214813 0.15698008426739388 0 0.7570988119664692 0.15523131607456073 0
          0 0 0 0.7784437248454019 0.19127960742978453 0
          0.6534791125626321 0.13823849284814332 0 0.32130601400372427 0.010102689704042484 0
          0.5638059960544678 0.08540388552368174 0 0.20048757155792546 0.005327619374014557 0
          0 0 0 0.4644636015748802 0.05253107402484405 0
          0.7647607543927454 0.1834903067541294 0 0.7578192969173444 0.22608605729624096 0
          0.8273045538061559 0.246605340604587 0 0.6795267740528406 0.20974544853051227 0
          0.5161600311043505 0.09675076888678952 0 0.8128592327836243 0.28468735589338134 0
          0.30658789073198933 0.026016149587154456 0 0.4601670118379425 0.02478427594776803 0
          0.7941427470159836 0.1536948893110816 0 0.8767646449011762 0.2764156645339853 0
          0.5547451701249699 0.16761319097454053 0 0.6925355506453009 0.29154924808783494 0
          0.8707228144924982 0.34339214516715205 0 0.3466615692173698 0.04913659743942662 0
          0.7998169209180477 0.3713265699306123 0 0.5902141951051579 0.25486560342700304 0
          0 0 0 0.9485163580595501 0.3647393440051733 0
          0.7070716657434146 0.3736529122690862 0 0.18351138855835664 0.011329159563252878 0
          0.9831523909113453 0.237886825323692 0 0.3687365813455989 0.09330832617263844 0
          0.45640608535079114 0.19110485747423275 0 0.8742564780980022 0.42454439258578436 0
          0.5921484654409686 0.3334910969417772 0 0 0 0
          0.7473719021793781 0.10297899581347968 0 0.46843023880972595 0.2677091407423526 0
          0.7435022343338396 0.4639462654013791 0 1.0535568423011978 0.3594198759389838 0
          0.9651833381831462 0.4634343730331994 0 0.3245655582018025 0.1260622307466658 0
          0.21201260667016605 0.03631053147144141 0 0.5672068018209172 0.4128051747827194 0
          0.8508768313113497 0.5131882725616224 0 1.1162760494603496 0.2870823114203229 0
          0.46451640476576755 0.34270460524104884 0 0.7271743371019215 0.5141353274410898 0
          0.33996221165266016 0.18990636982327194 0 0.2423623983360002 0.06455379249771648 0
          1.0347351439417132 0.1937100673307242 0 0.6082535897406931 0.49589448884385684 0
          0.9615525584420037 0.5234068786150298 0 0.3410026618419707 0.26039545331917646 0
          0 0 0 0.8328368999108504 0.08461644307558411 0
          1.1903170259526463 0.3831935586366685 0 0.7901021291458686 0.5643568375546981 0
          0.43834788253344814 0.42167601138199334 0 0.6414591492951719 0.5539920747238326 0
          1.2242425422608418 0.2766943517500674 0 0.23056728848632346 0.12006255189033921 0
          0.31269190964461047 0.30753731161720954 0 0.12098480129122668 0.016308941604051407 0
          0.2415531104452946 0.1843160988830295 0 0.4775838768682318 0.01099920616267846 0
          0.933003843286978 0.5638521513181098 0 0.42198865253528295 0.478878442100063 0
          1.1479441005416788 0.47273003085112303 0 0.24420104566144868 0.24681185539455994 0
          0.6966463171724796 0.5873268393935547 0 0.27859639085916127 0.3475864372857855 0
          1.1689847013123356 0.142384956616075 0 1.2943222707692679 0.3315257857060203 0
          0.13891149285865534 0.044024145924961004 0 0.5215585374116897 0.5585843275453856 0
          0.8059520228974937 0.5713591687964387 0 0.20118294988872185 0.26842163893498516 0
          0.32534439066066984 0.45561793540591333 0 1.0815665836570143 0.4858558277749508 0
          0.9181672425153872 0.02900516715854004 0 0.1344115003646142 0.07128269371465032 0
          0.5569664766004614 0.5581382386632439 0 0.21656632034783868 0.34821832428056537 0
          1.2707112635871785 0.3583404407357427 0 1.3479455422890632 0.19605314309956148 0
          0.14000712340273272 0.1240060914363975 0 0 0 0
          0.15166768789402002 0.19254543267386912 0 0.32662378755251675 0.481221524552847 0
          1.3560175347470398 0.25983116383210414 0 0.16736128914586798 0.27978437720739135 0
          0.0585157085712993 0.008202677666662026 0 0.6565630361760866 0.5074573729591189 0
          0.15545076066929875 0.3283939655303776 0 0.9880949421700845 0.42388984655537854 0
          0.36395008080355995 0.4559552975772854 0 0.10943872666519418 0.1965897647355918 0
          1.1807867574684106 0.34018703155864766 0 0.07747484687354562 0.030908204014587118 0
          0.1014850558268885 0.12928658585669445 0 1.250238917899454 0.05961609850626296 0
          1.315592874389518 0.2561002703989662 0 0.16261599488696696 0.34324319392597086 0
          0.08366274931606571 0.19092046819813083 0 1.4025014467338457 0.15637734050822286 0
          0.4292842575571608 0.35839462896693947 0 0.08483701664278359 0.09457038631431543 0
          0.07388841822173174 0.24072905639749137 0 0.06973822429197502 0.04365717961121956 0
          0.7664049368664342 0.30852150135022893 0 0.07727422388138436 0.12786663813410015 0
          0.06780343913053898 0.20602556041399545 0 0.07089627284771421 0.20741886963841505 0
          0 0 0 0.08464301271073518 0.21675658900258624 0
          0.9962978557815024 0.2548863225377785 0 1.399914964143573 0.08295343129576159 0
          1.1956052536214803 0.21228308416457206 0 0.04102986316649363 0.15471046254737078 0
          0.05808278747840168 0.05653473082412937 0 0.0466816844205279 0.11936604148811263 0
          0.9258251091865701 0.007637162880091893 0 0.032176352210860536 0.1370782159992598 0
          0.021621611992554707 0.12115726759301591 0 0 0 0
          0.05357348321283847 0.08457887664100701 0 0.40231759016747315 0.07078066529929695 0
          0 0 0 0.7077018127592887 0.1132345568381285 0
          0 0 0 0.017530701048944934 0.09181605023064278 0
          0.02901479874895564 0.10653653261614665 0 0.038186973312864476 0.01361768066100098 0
          1.329805354030141 0.07287185150610356 0 0 0 0
          0.011063921190905603 0.0680648313861582 0 0.0406472010519524 0.0548718154430706 0
          0.9290638746171391 0.07705767062206617 0 0.03189998684557643 0.07400768247321936 0
          0 0 0 0.018492279873180723 0.07562251995536838 0
          0 0 0 1.4146881869634722 0.01513167435237975 0
          0.3549458916718451 0.028117896381319715 0 0.006613352363953707 0.054807915020754626 0
          1.1313056854089067 0.032103538028713186 0 0.017860735054085076 0.06604162345426469 0
          0.6749964246728104 0.040537783137626765 0 0.031001286352134675 0.021991231004724554 0
          0 0 0 0.006806567865213845 0.04258027348419229 0
          1.4063872923432585 -0.02200207725069583 0 0 0 0
          0 0 0 0.013381480709623979 0.045767923657467874 0
          0.02413807612573447 0.025479409636897533 0 0.004804825543755754 0.03401042484776897 0
          0.0184475243760076 0.03927136588131252 0 0.3359189073263565 0.00036405971440234877 0
          0.012397249805847457 0.038888637595919255 0 0 0 0
          1.2545710733114166 -0.041910760067783645 0 0.6600050422076317 -0.021358033915558114 0
          0.9414991929295806 -0.051844366640736335 0 0.004337978249001514 0.026053113010772126 0
          1.153923796527632 -0.08865779697577912 0 0.016744419034894324 0.00569023811818242 0
          0 0 0 0 0 0
          0.014129773790097607 0.02262188634714149 0 0 0 0
          1.314577164228896 -0.10752673529611625 0 0.00796371506563673 0.02530460372085914 0
          0.003635297332472183 0.01969200383415517 0 0.3416028513695851 -0.02588604464683598 0
          0 0 0 1.392991912837195 -0.11664992463076 0
          0.007565864789625474 0.01945200591300107 0 0.6738385164066282 -0.11924665334849703 0
          0.011295233011976406 0.009692646637454411 0 0.0028493992752530806 0.014069116108203905 0
          0 0 0 0.9259629332247409 -0.16296941414833524 0
          0.004750032629362623 0.014794927704897093 0 1.3750036082780983 -0.11668170460813132 0
          0 0 0 0.002479210986178741 0.01012025755400744 0
          1.1292478765169802 -0.18873320542091615 0 0 0 0
          0 0 0 0.3892589055051408 -0.16684136490721477 0
          0.006045726921017547 0.007769250737174642 0 0.004678912117694374 0.009568580597596528 0
          0.9455367724383661 -0.04545235226942874 0 0.0014627105127798115 0.006609496174582354 0
          1.2799614216598916 -0.19706840433200673 0 1.2115583264035814 -0.09025121078005399 0
          0.006013439510039274 0.00201592537098777 0 0 0 0
          0 0 0 0.6686657523475918 -0.23064801586884418 0
          0 0 0 0 0 0
          0.0008709150082573605 0.004537878482273756 0 0.045761286644158065 -0.07236762548089251 0
          0 0 0 0.002627721204261203 0.0052815849201209445 0
          1.3568371428331152 -0.19771481162352547 0 0.8979274124458102 -0.26222222549770385 0
          0.003348198826962483 0.0025397157331162046 0 0 0 0
          0.025770439805879387 -0.03175583743577431 0 0.0010127413227025033 0.0025906709382519733 0
          0.0022243258802125015 0.003146005289189857 0 0 0 0
          0.014801155528175956 -0.00673060855575192 0 0 0 0
          0.30803953124817435 -0.2045831992375981 0 1.3239619307963382 -0.17222023869120393 0
          0.001006688965918321 0.0017682103302259988 0 1.056558257891449 -0.2936238071016005 0
          0.006201018383916143 0.010238853960260341 0 0.0018716051067110464 0.0004512263290078343 0
          0.0007508647526403113 0.001413238481515253 0 0 0 0
          0 0 0 0.10110465897791539 -0.10390184961289191 0
          0 0 0 0.002105569282776991 0.015747087832542406 0
          0 0 0 1.2263788170587184 -0.2847340726807142 0
          0.0637298452773435 -0.05507708007926718 0 0.0009949529791811595 0.0007163515235127722 0
          0 0 0 0.0003414906765720988 0.0004762780691065034 0
          0.25634874133938956 -0.007574121620198396 0 0.5366598656804905 -0.2764835264437733 0
          0.0012253112718808331 0.018938909325155996 0 1.1642025695349 -0.14040377605915166 0
          0 0 0 0 0 0
          0.0009713364325846074 0.020090810599810348 0 0.00019398992366307367 0.000145261852045672 0
          0.28878170395744734 -0.2059972565725451 0 0.016684942160143827 -0.0008585311455041111 0
          0.05161947616088382 -0.03444409405650696 0 0.7699734671107645 -0.3199892744809355 0
          0 0 0 1.2915067682366395 -0.2566073352057647 0
          0.138029513467694 -0.11464944546376528 0 0.000030066205891198418 0.021123767411628837 0
          0 0 0 0.01011928778362263 0.013776695458379213 0
          0 0 0 0 0 0
          0.004346452330464954 0.02286406895566434 0 0.00010281548367285778 -0.0001505336601265724 0
          -0.0006105394432861356 0.020571333486171777 0 0.003804967910710177 0.02750386230949598 0
          0.7961268138594779 -0.09068514810604773 0 0 0 0
          0 0 0 0.4784685442214549 -0.27700661006589367 0
          -0.000518470964933127 0.019772952137161796 0 0.9387229100325777 -0.3373324576938376 0
          1.2482657364973253 -0.22397506940391884 0 0 0 0
          0.033777775139091165 -0.008973522906410071 0 0 0 0
          0.3050340002966924 -0.21025840784308672 0 -0.00018628487843259725 0.032001560414819406 0
          0 0 0 -0.0008596250686758321 0.01844061119494589 0
          0.012630602898688992 0.02383689766739408 0 0 0 0
          -0.0007373488049632033 0.03298124467935729 0 0.15748495336347723 -0.11421376106483486 0
          0 0 0 -0.0011775129606487666 0.01676759301118638 0
          0 0 0 -0.0019148139155551946 0.029790348467585798 0
          0.6572330299431112 -0.3212716883773248 0 0 0 0
          -0.0014579523070317136 0.014357131606391066 0 -0.0026323539073227356 0.027830622227431157 0
          1.0936348745645805 -0.16182975308205422 0 0.46646554619819636 -0.27091203610500136 0
          0.003153413101048527 0.034344138521750334 0 0 0 0
          -0.0016387228889511505 0.011775468611691455 0 1.2143830705911791 -0.30108173403377597 0
          0.0504537773636113 -0.01631718757937654 0 -0.004824001697607598 0.02677363664687423 0
          1.0429233261230295 -0.3594960859075287 0 0.29831719540711277 -0.19681393676473113 0
          0 0 0 -0.0014260258215547804 0.009318248808603753 0
          -0.004244404382424884 0.03634546243555188 0 0.13481746828421495 -0.0901769498989789 0
          -0.005288078244687636 0.02272630819493449 0 0.028024041863732096 0.007104717097820647 0
          0.8175026452767172 -0.3534287734244684 0 0 0 0
          -0.00137424131423874 0.0068330024173409 0 -0.0046699088271985705 0.017422154178175903 0
          0.6254250214267385 -0.3102112823674765 0 0.7139494707928898 -0.08145734168238389 0
          0 0 0 -0.0013537241693643304 0.004513749907917674 0
          -0.010572746219363514 0.029559840966686974 0 -0.005085813640494871 0.014307078968176058 0
          0.004108919184972616 0.027322817709409322 0 0.4525719776206425 -0.2542180427808581 0
          0.0732924861444676 -0.04267188488340865 0 0 0 0
          -0.0011699249189496344 0.002390370803308995 0 1.110531420075233 -0.35063446038837165 0
          -0.004791090054566601 0.010213639824711436 0 -0.010956111130370118 0.022672686410656433 0
          0.2966274291539082 -0.18599199380452 0 1.1577704004111216 -0.2940195866495473 0
          0 0 0 0.9569629176186786 -0.35729681204266567 0
          -0.004388583142597603 0.006702636295084327 0 -0.00047650665512697857 0.0005991500413382753 0
          0.04194087666645078 -0.009877945178688258 0 -0.010604997097215567 0.015557899951654543 0
          0.1525617826439039 -0.10347698642878737 0 -0.003213957609968795 0.003501171736252316 0
          0.673844293062503 -0.31357067183279985 0 -0.012346368046821946 0.021493307016114432 0
          0 0 0 1.0198768991146603 -0.20514820911842727 0
          0.3221161789876678 -0.01759568967207266 0 -0.00825590524090071 0.0073589515806314195 0
          -0.01855482523581305 0.019774218455041143 0 -0.016679948223405197 0.01657463419039723 0
          0.09928947029513817 -0.06209436111730572 0 0.4257525153176622 -0.24270254822202508 0
          0 0 0 -0.0037454014769548617 0.0017170514980368024 0
          1.0477371070638297 -0.3202786868485683 0 -0.0005066150566843876 -0.008335626156381129 0
          -0.01607606337435422 0.009115591215455196 0 -0.01932919436202967 0.006947897803994167 0
          0.825622232794 -0.3238325537942242 0 0.19851780929681004 -0.13703779173109212 0
          0.5613634256080621 -0.07329194782733113 0 -0.02295738184498974 0.009784049963992096 0
          0 0 0 -0.009537861246356461 0.0026438923977411925 0
          0.5646312529264645 -0.2827866224027966 0 1.0965334240797668 -0.2672330559920612 0
          0.04454407928144775 -0.05508237350937462 0 0.343069695468651 -0.21439692404001867 0
          -0.0060224832083678745 -0.01863240055898248 0 -0.021369686050426877 -0.002719461303232344 0
          -0.016629290255339726 0.002169173065488345 0 0.9823596526248943 -0.31259911309605826 0
          0 0 0 -0.02181344218365306 0.0025642796069866853 0
          0.748058023203959 -0.3296363940811193 0 0.48440401360364754 -0.2780958736143608 0
          0 0 0 0.12874568133040146 -0.12210089068550617 0
          0.02858518806712588 -0.058434135717733475 0 0.9787418857766104 -0.0946369077615049 0
          -0.0054425811511165595 -0.026846890742210614 0 -0.016120447602323274 0.0008388225648571751 0
          -0.016835862234473344 -0.007967525844935364 0 0.2742583147685408 -0.216257987877915 0
          0 0 0 0.9983637583040769 -0.3789556907576121 0
          -0.012741239433385537 -0.00013981275509931723 0 0.09725584870700722 -0.1310849119309908 0
          0.025171407410526526 -0.0581104990837818 0 0.5630252277445996 -0.41706578602433997 0
          0.00007289552212774962 -0.017042968011198617 0 0.2412192539114462 -0.28463354912932154 0
          0 0 0 0.02861634606710506 -0.03645921231316828 0
          0.09601479277579436 -0.1117587021085897 0 0 0 0
          <InformationKey name="L2_NORM_RANGE" location="vtkDataArray" length="2">
            <Value index="0">
              0
            </Value>
            <Value index="1">
              1.4147691097
            </Value>
          </InformationKey>
        </DataArray>
        <DataArray type="Float64" Name="Pressure" format="ascii" RangeMin="-8.368829250292018" RangeMax="36.91318641660627">
          36.25142553921098 36.4097022004642 36.73652041725411 36.186654609326574 36.0036585506585 36.77858490103271
          36.04939659998922 35.49692841513566 35.35747924738508 34.59261054528714 36.10098378198739 34.3799326252773
          36.91318641660627 35.308554085772265 34.39063860449763 33.589721205773714 33.43838534935149 34.50174086722607
          36.48819664389281 35.543400223348456 33.304190857115934 34.759883204683604 32.375109755167806 36.878823176724836
          33.502039491019914 32.210396157126496 32.328280251057215 33.92928508373093 31.44960086070572 34.92911950883781
          35.90483085114469 30.89420537205372 36.69888341792272 34.199587517809285 33.096344222505415 31.175511599932904
          30.369258971365316 31.588946696168588 33.54955705664203 35.188820754949866 29.519459293849764 35.60010615201344
          36.720384861914994 34.368016243328825 29.681523456879116 32.16111655310357 30.17274989147615 32.83079643050327
          33.87682694678292 30.79679660252173 34.485392385256525 27.56648450593787 27.89346267607821 28.539378229260127
          33.43271586413645 32.10516862246983 29.37722109131249 34.007198681493406 30.255527569705865 32.81683941407114
          34.71688763005662 27.550094101226776 31.20886042721933 34.09655285945433 25.882736504801677 33.78204574578634