<?xml version="1.0"?>
<VTKFile type="UnstructuredGrid" version="0.1" byte_order="LittleEndian" header_type="UInt32" compressor="vtkZLibDataCompressor">
  <UnstructuredGrid>
    <Piece NumberOfPoints="418" NumberOfCells="757">
      <PointData>
        <DataArray type="Float64" Name="nsi_BC" NumberOfComponents="3" format="ascii" RangeMin="0" RangeMax="1">
          0 0 0 0 0 0
          0 0 0 0 0 0
          0 0 0 1 0 0
          0 0 0 0 0 0
          0 0 0 0 0 0
          0 0 0 0 0 0
          0 0 0 0 0 0
          0 0 0 0 0 0
          0 0 0 0 0 0
          0 0 0 0 0 0
          0 0 0 0 0 0
          0 0 0 0 0 0
          0 0 0 0 0 0
          0 0 0 0 0 0
          0 0 0 0 0 0
          0 0 0 0 0 0
          0 0 0 0 0 0
          0 0 0 0 0 0
          0 0 0 0 0 0
          0 0 0 0 0 0
          0 0 0 0 0 0
          0 0 0 0 0 0
          0 0 0 0 0 0
          0 0 0 0 0 0
          0 0 0 0 0 0
          0 0 0 0 0 0
          0 0 0 0 0 0
          0 0 0 0 0 0
          0 0 0 0 0 0
          0 0 0 0 0 0
          0 0 0 0 0 0
          0 0 0 0 0 0
          0 0 0 0 0 0
          0 0 0 0 0 0
          0 0 0 0 0 0
          0 0 0 0 0 0
          0 0 0 0 0 0
          0 0 0 0 0 0
          0 0 0 0 0 0
          0 0 0 0 0 0
          0 0 0 0 0 0
          0 0 0 0 0 0
          0 0 0 0 0 0
          0 0 0 0 0 0
          0 0 0 0 0 0
          0 0 0 0 0 0
          0 0 0 0 0 0
          0 0 0 0 0 0
          0 0 0 0 0 0
          0 0 0 0 0 0
          0 0 0 0 0 0
          0 0 0 0 0 0
          0 0 0 0 0 0
          0 0 0 0 0 0
          0 0 0 0 0 0
          0 0 0 0 0 0
          0 0 0 0 0 0
          0 0 0 0 0 0
          0 0 0 0 0 0
          0 0 0 0 0 0
          0 0 0 0 0 0
          0 0 0 0 0 0
          0 0 0 0 0 0
          0 0 0 0 0 0
          0 0 0 0 0 0
          0 0 0 0 0 0
          0 0 0 0 0 0
          0 0 0 0 0 0
          0 0 0 0 0 0
          0 0 0 0 0 0
          0 0 0 0 0 0
          0 0 0 0 0 0
          0 0 0 0 0 0
          0 0 0 0 0 0
          0 0 0 0 0 0
          0 0 0 0 0 0
          0 0 0 0 0 0
          0 0 0 0 0 0
          0 0 0 0 0 0
          0 0 0 0 0 0
          0 0 0 0 0 0
          0 0 0 0 0 0
          0 0 0 0 0 0
          0 0 0 0 0 0
          0 0 0 0 0 0
          0 0 0 0 0 0
          0 0 0 0 0 0
          0 0 0 0 0 0
          0 0 0 0 0 0
          0 0 0 0 0 0
          0 0 0 0 0 0
          0 0 0 0 0 0
          0 0 0 0 0 0
          0 0 0 0 0 0
          0 0 0 0 0 0
          0 0 0 0 0 0
          0 0 0 0 0 0
          0 0 0 0 0 0
          0 0 0 0 0 0
          0 0 0 0 0 0
          0 0 0 0 0 0
          0 0 0 0 0 0
          0 0 0 0 0 0
          0 0 0 0 0 0
          0 0 0 0 0 0
          0 0 0 0 0 0
          0 0 0 0 0 0
          0 0 0 0 0 0
          0 0 0 0 0 0
          0 0 0 0 0 0
          0 0 0 0 0 0
          0 0 0 0 0 0
          0 0 0 0 0 0
          0 0 0 0 0 0
          0 0 0 0 0 0
          0 0 0 0 0 0
          0 0 0 0 0 0
          0 0 0 0 0 0
          0 0 0 0 0 0
          0 0 0 0 0 0
          0 0 0 0 0 0
          0 0 0 0 0 0
          0 0 0 0 0 0
          0 0 0 0 0 0
          0 0 0 0 0 0
          0 0 0 0 0 0
          0 0 0 0 0 0
          0 0 0 0 0 0
          0 0 0 0 0 0
          0 0 0 0 0 0
          0 0 0 0 0 0
          0 0 0 0 0 0
          0 0 0 0 0 0
          0 0 0 0 0 0
          0 0 0 0 0 0
          0 0 0 0 0 0
          0 0 0 0 0 0
          0 0 0 0 0 0
          0 0 0 0 0 0
          0 0 0 0 0 0
          0 0 0 0 0 0
          0 0 0 0 0 0
          0 0 0 0 0 0
          0 0 0 0 0 0
          0 0 0 0 0 0
          0 0 0 0 0 0
          0 0 0 0 0 0
          0 0 0 0 0 0
          0 0 0 0 0 0
          0 0 0 0 0 0
          0 0 0 0 0 0
          0 0 0 0 0 0
          0 0 0 0 0 0
          0 0 0 0 0 0
          0 0 0 0 0 0
          0 0 0 0 0 0
          0 0 0 0 0 0
          0 0 0 0 0 0
          0 0 0 0 0 0
          0 0 0 0 0 0
          0 0 0 0 0 0
          0 0 0 0 0 0
          0 0 0 0 0 0
          0 0 0 0 0 0
          0 0 0 0 0 0
          0 0 0 0 0 0
          0 0 0 0 0 0
          0 0 0 0 0 0
          0 0 0 0 0 0
          0 0 0 0 0 0
          0 0 0 0 0 0
          0 0 0 0 0 0
          0 0 0 0 0 0
          0 0 0 0 0 0
          0 0 0 0 0 0
          0 0 0 0 0 0
          0 0 0 0 0 0
          0 0 0 0 0 0
          0 0 0 0 0 0
          0 0 0 0 0 0
          0 0 0 0 0 0
          0 0 0 0 0 0
          0 0 0 0 0 0
          0 0 0 0 0 0
          0 0 0 0 0 0
          0 0 0 0 0 0
          0 0 0 0 0 0
          0 0 0 0 0 0
          0 0 0 0 0 0
          0 0 0 0 0 0
          0 0 0 0 0 0
          0 0 0 0 0 0
          0 0 0 0 0 0
          0 0 0 0 0 0
          0 0 0 0 0 0
          0 0 0 0 0 0
          0 0 0 0 0 0
          0 0 0 0 0 0
          0 0 0 0 0 0
          0 0 0 0 0 0
          0 0 0 0 0 0
          0 0 0 0 0 0
          0 0 0 0 0 0
          0 0 0 0 0 0
          0 0 0 0 0 0
          0 0 0 0 0 0
          0 0 0 0 0 0
          0 0 0 0 0 0
          0 0 0 0 0 0
          <InformationKey name="L2_NORM_RANGE" location="vtkDataArray" length="2">
            <Value index="0">
              0
            </Value>
            <Value index="1">
              1
            </Value>
          </InformationKey>
        </DataArray>
        <DataArray type="Float64" Name="nsi_FIXNO" NumberOfComponents="3" format="ascii" RangeMin="1.4142135623730951" RangeMax="1.4142135623730951">
          1 1 0 -1 -1 0
          -1 -1 0 -1 -1 0
          1 1 0 1 1 0
          -1 -1 0 -1 -1 0
          -1 -1 0 -1 -1 0
          -1 -1 0 -1 -1 0
          -1 -1 0 -1 -1 0
          -1 -1 0 1 1 0
          -1 -1 0 -1 -1 0
          -1 -1 0 -1 -1 0
          -1 -1 0 -1 -1 0
          -1 -1 0 -1 -1 0
          -1 -1 0 -1 -1 0
          -1 -1 0 -1 -1 0
          -1 -1 0 -1 -1 0
          -1 -1 0 -1 -1 0
          1 1 0 -1 -1 0
          -1 -1 0 -1 -1 0
          1 1 0 -1 -1 0
          -1 -1 0 -1 -1 0
          -1 -1 0 -1 -1 0
          1 1 0 -1 -1 0
          -1 -1 0 -1 -1 0
          -1 -1 0 -1 -1 0
          -1 -1 0 -1 -1 0
          -1 -1 0 -1 -1 0
          -1 -1 0 -1 -1 0
          -1 -1 0 -1 -1 0
          -1 -1 0 -1 -1 0
          -1 -1 0 -1 -1 0
          1 1 0 -1 -1 0
          -1 -1 0 -1 -1 0
          -1 -1 0 -1 -1 0
          -1 -1 0 -1 -1 0
          -1 -1 0 1 1 0
          -1 -1 0 -1 -1 0
          -1 -1 0 -1 -1 0
          -1 -1 0 -1 -1 0
          -1 -1 0 -1 -1 0
          -1 -1 0 -1 -1 0
          -1 -1 0 -1 -1 0
          -1 -1 0 -1 -1 0
          -1 -1 0 -1 -1 0
          -1 -1 0 -1 -1 0
          1 1 0 -1 -1 0
          -1 -1 0 -1 -1 0
          -1 -1 0 -1 -1 0
          -1 -1 0 -1 -1 0
          -1 -1 0 -1 -1 0
          -1 -1 0 -1 -1 0
          -1 -1 0 -1 -1 0
          -1 -1 0 -1 -1 0
          -1 -1 0 -1 -1 0
          -1 -1 0 -1 -1 0
          -1 -1 0 -1 -1 0
          -1 -1 0 -1 -1 0
          -1 -1 0 -1 -1 0
          -1 -1 0 -1 -1 0
          -1 -1 0 -1 -1 0
          -1 -1 0 -1 -1 0
          -1 -1 0 1 1 0
          -1 -1 0 -1 -1 0
          -1 -1 0 -1 -1 0
          -1 -1 0 -1 -1 0
          -1 -1 0 -1 -1 0
          -1 -1 0 -1 -1 0
          -1 -1 0 -1 -1 0
          -1 -1 0 -1 -1 0
          -1 -1 0 -1 -1 0
          -1 -1 0 -1 -1 0
          -1 -1 0 -1 -1 0
          -1 -1 0 -1 -1 0
          -1 -1 0 -1 -1 0
          -1 -1 0 -1 -1 0
          1 1 0 -1 -1 0
          -1 -1 0 -1 -1 0
          -1 -1 0 -1 -1 0
          -1 -1 0 -1 -1 0
          -1 -1 0 -1 -1 0
          -1 -1 0 1 1 0
          -1 -1 0 -1 -1 0
          1 1 0 -1 -1 0
          1 1 0 -1 -1 0
          -1 -1 0 -1 -1 0
          -1 -1 0 1 1 0
          -1 -1 0 -1 -1 0
          -1 -1 0 -1 -1 0
          1 1 0 -1 -1 0
          1 1 0 -1 -1 0
          -1 -1 0 -1 -1 0
          -1 -1 0 -1 -1 0
          -1 -1 0 -1 -1 0
          1 1 0 -1 -1 0
          -1 -1 0 1 1 0
          1 1 0 -1 -1 0
          -1 -1 0 -1 -1 0
          -1 -1 0 -1 -1 0
          -1 -1 0 1 1 0
          -1 -1 0 -1 -1 0
          -1 -1 0 -1 -1 0
          -1 -1 0 -1 -1 0
          1 1 0 1 1 0
          -1 -1 0 1 1 0
          -1 -1 0 -1 -1 0
          -1 -1 0 -1 -1 0
          1 1 0 -1 -1 0
          -1 -1 0 -1 -1 0
          -1 -1 0 -1 -1 0
          1 1 0 -1 -1 0
          -1 -1 0 -1 -1 0
          1 1 0 -1 -1 0
          -1 -1 0 1 1 0
          1 1 0 -1 -1 0
          -1 -1 0 -1 -1 0
          -1 -1 0 -1 -1 0
          -1 -1 0 -1 -1 0
          -1 -1 0 1 1 0
          1 1 0 -1 -1 0
          1 1 0 1 1 0
          -1 -1 0 -1 -1 0
          1 1 0 -1 -1 0
          -1 -1 0 -1 -1 0
          -1 -1 0 1 1 0
          -1 -1 0 -1 -1 0
          -1 -1 0 1 1 0
          -1 -1 0 1 1 0
          -1 -1 0 -1 -1 0
          -1 -1 0 -1 -1 0
          -1 -1 0 -1 -1 0
          -1 -1 0 1 1 0
          1 1 0 -1 -1 0
          1 1 0 -1 -1 0
          1 1 0 -1 -1 0
          -1 -1 0 -1 -1 0
          1 1 0 -1 -1 0
          -1 -1 0 -1 -1 0
          -1 -1 0 -1 -1 0
          1 1 0 1 1 0
          -1 -1 0 -1 -1 0
          -1 -1 0 -1 -1 0
          -1 -1 0 -1 -1 0
          1 1 0 -1 -1 0
          -1 -1 0 -1 -1 0
          1 1 0 -1 -1 0
          1 1 0 1 1 0
          -1 -1 0 -1 -1 0
          -1 -1 0 -1 -1 0
          -1 -1 0 1 1 0
          1 1 0 -1 -1 0
          -1 -1 0 -1 -1 0
          -1 -1 0 1 1 0
          -1 -1 0 1 1 0
          -1 -1 0 -1 -1 0
          1 1 0 -1 -1 0
          -1 -1 0 1 1 0
          -1 -1 0 -1 -1 0
          1 1 0 -1 -1 0
          1 1 0 -1 -1 0
          -1 -1 0 1 1 0
          -1 -1 0 -1 -1 0
          -1 -1 0 -1 -1 0
          -1 -1 0 1 1 0
          -1 -1 0 -1 -1 0
          -1 -1 0 -1 -1 0
          -1 -1 0 -1 -1 0
          1 1 0 -1 -1 0
          -1 -1 0 -1 -1 0
          -1 -1 0 -1 -1 0
          -1 -1 0 1 1 0
          -1 -1 0 -1 -1 0
          -1 -1 0 -1 -1 0
          1 1 0 -1 -1 0
          -1 -1 0 -1 -1 0
          -1 -1 0 -1 -1 0
          -1 -1 0 1 1 0
          -1 -1 0 -1 -1 0
          -1 -1 0 -1 -1 0
          -1 -1 0 -1 -1 0
          1 1 0 -1 -1 0
          -1 -1 0 -1 -1 0
          -1 -1 0 -1 -1 0
          -1 -1 0 -1 -1 0
          -1 -1 0 -1 -1 0
          1 1 0 -1 -1 0
          -1 -1 0 -1 -1 0
          -1 -1 0 -1 -1 0
          -1 -1 0 -1 -1 0
          1 1 0 -1 -1 0
          -1 -1 0 -1 -1 0
          -1 -1 0 -1 -1 0
          -1 -1 0 -1 -1 0
          -1 -1 0 -1 -1 0
          1 1 0 -1 -1 0
          -1 -1 0 -1 -1 0
          -1 -1 0 -1 -1 0
          -1 -1 0 -1 -1 0
          -1 -1 0 -1 -1 0
          1 1 0 -1 -1 0
          -1 -1 0 -1 -1 0
          1 1 0 -1 -1 0
          -1 -1 0 -1 -1 0
          -1 -1 0 -1 -1 0
          -1 -1 0 -1 -1 0
          1 1 0 -1 -1 0
          -1 -1 0 -1 -1 0
          -1 -1 0 -1 -1 0
          -1 -1 0 -1 -1 0
          1 1 0 -1 -1 0
          -1 -1 0 1 1 0
          <InformationKey name="L2_NORM_RANGE" location="vtkDataArray" length="2">
            <Value index="0">
              1.4142135624
            </Value>
            <Value index="1">
              1.4142135624
            </Value>
          </InformationKey>
        </DataArray>
        <DataArray type="Float64" Name="Velocity" NumberOfComponents="3" format="ascii" RangeMin="0" RangeMax="1.4107043247886526">
          0 0 0 0.32613959719875596 0.029009530213765226 0
          0.7289449427610548 0.11923351129475311 0 0.5349544696542903 0.05742260746012359 0
          0 0 0 1 0 0
          0.6959785050973725 0.044012859352917974 0 0.4011172654968635 0.03450460032459969 0
          0.6411983446883416 0.05230237473119011 0 0.35221180320362594 0.005896649473367112 0
          0.6436375489118251 0.016911736208345574 0 0.5849080805910432 0.04220223848045679 0
          0.6991321416443574 -0.10254956343509965 0 0.6612876516156251 0.03328770839310998 0
          0.6521825799399135 0.05247405781293183 0 0 0 0
          0.5558965247939294 0.023691581153643268 0 0.6591304619946614 0.057495643934866184 0
          0.6122774014268221 -0.024739009319403982 0 0.6234811182552574 0.024772629124194583 0
          0.6585972980731123 0.05619725776055939 0 0.6313036890934414 0.051148885862932356 0
          0.4686308021474299 0.0365845825988381 0 0.34759831200692953 -0.03151461326309645 0
          0.6712444344599879 0.09087713784203418 0 0.6673271153505 0.07328278786421946 0
          0.7105024093367099 0.10885434448822927 0 0.638524630584956 0.08839048630094112 0
          0.35616147750684146 0.010422911191729355 0 0.565815636524767 0.03382723438266073 0
          0.46884145978021796 -0.015918531627984234 0 0.6386513419816086 0.08520004116452067 0
          0 0 0 0.5863785454046436 0.07053570866917556 0
          0.6531128482515222 0.14335318905289507 0 0.7480249278812826 0.14110374436421141 0
          0 0 0 0.7283441012801966 0.17555692639317474 0
          0.5950610270637121 0.12710848559612054 0 0.3665035125014083 0.004771000130675025 0
          0.6066307549409903 0.07924878075213433 0 0.22691739165089572 0.004771536559315875 0
          0 0 0 0.49062442362625386 0.042681986897083794 0
          0.7729802406344333 0.1679924811462676 0 0.6814794877448593 0.20645743490069005 0
          0.7898976439324586 0.22428636938688276 0 0.6092296744321134 0.19647406339821602 0
          0.5168216459569015 0.09011072210340432 0 0.7468251724174826 0.2610122107751829 0
          0.3581688444895871 0.022320388657735182 0 0.4898522123239273 0.02083789095894152 0
          0.8145490772664172 0.13727120007872667 0 0.853903631816638 0.251868085511395 0
          0.5274097659709399 0.16298388568698796 0 0.6237112583955826 0.27859322072843645 0
          0.8156295700529095 0.3171589953480207 0 0.3994244057541439 0.047446394228876344 0
          0.7361525591326544 0.35056367622823037 0 0.544688045210962 0.250432240752918 0
          0 0 0 0.9068454888091093 0.3380601693479345 0
          0.6473064122963934 0.36469591877820795 0 0.22554609963920838 0.011081561782277415 0
          0.9812377033908054 0.2125278111355253 0 0.4097017654582824 0.09642668445886034 0
          0.4525857231935601 0.19658736051664003 0 0.8199152280580666 0.40595520128435897 0
          0.5460302522171506 0.33520483925615535 0 0 0 0
          0.7671197820464 0.08913233724571831 0 0.45055282507393696 0.2788977177004023 0
          0.6915633843743195 0.4597481931042264 0 1.0254807976201157 0.33447283022494406 0
          0.9229751224610653 0.4458461017209247 0 0.36052172825013873 0.1372208499387337 0
          0.2677837578431161 0.03743795032652985 0 0.5302233145770471 0.4263368701652995 0
          0.8075544623193553 0.5089325791794019 0 1.1035345917081962 0.26214169873873616 0
          0.4423978280876321 0.3637054125650566 0 0.6883508222049252 0.5225350932724546 0
          0.35626101397312493 0.20912538600377936 0 0.2951416791861591 0.07242847391511185 0
          1.0357141198778335 0.17412379819850923 0 0.5759416919380038 0.5160200633491545 0
          0.9308210665333962 0.5207225294224347 0 0.34257645802703374 0.28867898376122725 0
          0 0 0 0.843540298845108 0.07478978245388476 0
          1.168256698642876 0.3630900909704017 0 0.7631476648772384 0.5778929957150378 0
          0.419035265632945 0.4557306984206423 0 0.6183545254986436 0.5792050969018809 0
          1.2118751427260566 0.25428293564004956 0 0.2707381666169873 0.1403263781730463 0
          0.30936536799754777 0.34758112958696374 0 0.1644744620311139 0.019277412837852868 0
          0.26537590166281266 0.21664570850615608 0 0.47979096689275386 0.008295227658222423 0
          0.9200165905697326 0.574732387637583 0 0.40677443413316056 0.5193699003519201 0
          1.133211310661414 0.4658481670970223 0 0.2529337321351237 0.28947021309097604 0
          0.6844893127606265 0.6137983309818564 0 0.27353156284529706 0.3949163118938201 0
          1.1629125070347253 0.123917384454359 0 1.2801437279347843 0.3123316088364638 0
          0.1877794715411405 0.053882149859387024 0 0.5106664758167269 0.5941495339759977 0
          0.8040241732698905 0.5916953927150872 0 0.20450243318997618 0.31842521525418566 0
          0.3170183889826462 0.49837240237459174 0 1.082012632786057 0.49085694934709384 0
          0.9167053982362005 0.02053091140047032 0 0.17824187838475528 0.09019381416915583 0
          0.5540113736706808 0.5880560487642166 0 0.21288690628978194 0.3973613813704064 0
          1.2687051820459474 0.3488110551417121 0 1.3357573216022407 0.17496979724997958 0
          0.16879815483987207 0.15974753184879878 0 0 0 0
          0.16344840786318446 0.24037712430163735 0 0.3220060172381051 0.5171618638995126 0
          1.347246027864079 0.24276393697007745 0 0.16728628534902143 0.3300990719253413 0
          0.08451776401394545 0.010674712719009058 0 0.6610181721310594 0.527685180400422 0
          0.1521168764455228 0.3681798242314223 0 0.9983396553918967 0.43150754608774666 0
          0.36449828663010725 0.4808182389175489 0 0.11457808334549652 0.2459198388383239 0
          1.1917946647592237 0.3373628388328882 0 0.11429463061730581 0.04099698735505781 0
          0.12093718688355327 0.1708735475297623 0 1.2377240249295645 0.04341950863977541 0
          1.3204595668454204 0.24309662224114087 0 0.16086328512971157 0.37000575238064287 0
          0.0851012658253691 0.23462061126866277 0 1.397880583842626 0.13324042425392238 0
          0.4340412763550512 0.371274554595929 0 0.10678221241454094 0.12973245131660543 0
          0.07254348626601556 0.26704941457630743 0 0.10370101822594342 0.05986435969661292 0
          0.7775674675403235 0.3146755301841102 0 0.08798434893197625 0.17233923567823783 0
          0.06739754541477576 0.2420676550633415 0 0.07040853573566165 0.23696954848695104 0
          0 0 0 0.08449610877583211 0.22989668291190182 0
          1.0126751388561674 0.25358087513075317 0 1.3850041438579503 0.059175411456976565 0
          1.2125196946032495 0.2018546317598301 0 0.04064980971602268 0.16878119624781476 0
          0.08279929828793833 0.08253282875923945 0 0.05038242072778282 0.1587784574626393 0
          0.9163201514195759 0.0005919355268278625 0 0.03216678138021742 0.16715104210100604 0
          0.021323075805753967 0.1359394299810415 0 0 0 0
          0.0670805802150141 0.12147446817747652 0 0.4073769461153865 0.07087457180054249 0
          0 0 0 0.720979477750179 0.11123749408811633 0
          0 0 0 0.017435011449324612 0.10684601920909377 0
          0.030107179203986686 0.13596366005562197 0 0.060939684668883165 0.019297820486235497 0
          1.343799621620245 0.047147280220711664 0 0 0 0
          0.011074578597695027 0.08321522831199346 0 0.05672769407444929 0.08394823019646 0
          0.9509293945624546 0.06689767043935076 0 0.037811734538088684 0.10738501551065242 0
          0 0 0 0.020004151697882614 0.10146830404241863 0
          0 0 0 1.4106313810289852 -0.014345690421375778 0
          0.3607980541710229 0.02719730033807069 0 0.006712040640293529 0.06989868882990286 0
          1.1556875257073551 0.010158164712490255 0 0.019777111232414053 0.0926323754510677 0
          0.6917873194120614 0.03479403495222018 0 0.05154702791256264 0.03349275409724431 0
          0 0 0 0.007218034117853594 0.05712777161069198 0
          1.3844015314146247 -0.04766299900985509 0 0 0 0
          0 0 0 0.015918392968266037 0.0680634902651722 0
          0.03937413098657714 0.04185802284137665 0 0.005261532448236852 0.047789523126594485 0
          0.02560088109158175 0.06393631576823122 0 0.3441316933548156 -0.002442364642589015 0
          0.015293654887167489 0.06087468192667422 0 0 0 0
          1.2292244531054988 -0.058269164102980116 0 0.681976950499614 -0.03328103318042842 0
          0.9725080698513818 -0.07691449794373202 0 0.004970415665791268 0.03888433438049882 0
          1.1817008089717884 -0.12719294758084634 0 0.02919522987972539 0.009122138846578106 0
          0 0 0 0 0 0
          0.02221109899163477 0.04014642940452397 0 0 0 0
          1.3243870222967657 -0.14962207830442878 0 0.011038146397940912 0.04235197988885802 0
          0.004422693036825493 0.03125303957058186 0 0.3545205680810065 -0.032237225698990374 0
          0 0 0 1.3791588921255133 -0.15504437806277405 0
          0.010830068638267916 0.03429645905391008 0 0.7044004014454106 -0.14864164263106125 0
          0.02141423601682556 0.016811126899026547 0 0.003717645354505722 0.0242156573095638 0
          0 0 0 0.9609463798090553 -0.20889929741468624 0
          0.007861147479548433 0.02778947131179436 0 1.342283437059037 -0.1451301234713412 0
          0 0 0 0.003551627911625892 0.018668012395274783 0
          1.1544418369092349 -0.2431124390999458 0 0 0 0
          0 0 0 0.4141077242175971 -0.2024401843835518 0
          0.011515161722511333 0.016133421932281913 0 0.007795864522636105 0.01945540021729312 0
          0.9220760911295072 -0.05412662085139415 0 0.002345150983398874 0.013498987329783309 0
          1.2822849782746921 -0.2498036643022074 0 1.1777365844108936 -0.10699975772371487 0
          0.011606983375371352 0.0038734677894557085 0 0 0 0
          0 0 0 0.7032076524497903 -0.2883650916012649 0
          0 0 0 0 0 0
          0.0015897990047365857 0.00994710611349629 0 0.050743465043231434 -0.10739271365018198 0
          0 0 0 0.0050568238517541145 0.011746491463233581 0
          1.3322278567716324 -0.23993114913668687 0 0.9298008044553924 -0.3324426475553714 0
          0.007484437912559472 0.005583976405892414 0 0 0 0
          0.028116375999182135 -0.06309691700495322 0 0.0018064540686656924 0.006541012848020437 0
          0.004478170354220514 0.007617612937251588 0 0 0 0
          0.01612910746856618 -0.0356429957041434 0 0 0 0
          0.3303323845349732 -0.275090987738366 0 1.2800199787042148 -0.19818276439741253 0
          0.002618260839699621 0.004680393544080575 0 1.0713559037111982 -0.3682497442470454 0
          0.006898865192145305 -0.016881782945093744 0 0.004047922016299498 0.0012776725377537485 0
          0.0015308633476567 0.004128535850714292 0 0 0 0
          0 0 0 0.10934107011114248 -0.17019886738421472 0
          0 0 0 0.0024422399350811125 -0.010488551416188863 0
          0 0 0 1.2112618001398692 -0.34399387932539693 0
          0.06922394640363581 -0.11817939446118285 0 0.0025124420777153764 0.0021137520932451213 0
          0 0 0 0.0008449513692271053 0.0020718247100916846 0
          0.24796853231318228 -0.007447023402365364 0 0.5648352080334008 -0.3705523986732219 0
          0.0018102091038806568 -0.006319798366858435 0 1.1218159143881794 -0.1505272304701612 0
          0 0 0 0 0 0
          0.001881446623285799 -0.003900338502639851 0 0.0006091029574137422 0.000994515532348483 0
          0.30720817002509676 -0.3031588290075747 0 0.018794273789937158 -0.058607775344367 0
          0.05637507531980224 -0.1069303778820899 0 0.7915653113386513 -0.41801273275413436 0
          0 0 0 1.248824640251908 -0.2933372822990204 0
          0.14744018042120305 -0.2068693840364234 0 0.001071535006402143 -0.0012840452279284469 0
          0 0 0 0.012403287296237974 -0.04138633767001849 0
          0 0 0 0 0 0
          0.007054594509657382 -0.023721383101942464 0 0.0003271594296380903 -0.00003858484210108247 0
          0.0004887399379503132 0.00018612028200551463 0 0.0070624454065611976 -0.01733583661918641 0
          0.768653775574039 -0.0912534991906238 0 0 0 0
          0 0 0 0.4985543915537273 -0.3926698974877324 0
          0.0009024965130706851 0.0017372598738257172 0 0.9365151804663323 -0.4250343208944949 0
          1.1894633758976827 -0.2390429877075322 0 0 0 0
          0.03980122997565925 -0.0951806782738337 0 0 0 0
          0.3202792172747958 -0.32985188203050697 0 0.004295268992149294 -0.013152944367798694 0
          0 0 0 0.0007708677416057918 0.0029250849039808304 0
          0.01982095415925882 -0.04828556631447098 0 0 0 0
          0.004395492383625692 -0.007398269228536766 0 0.16876841601952602 -0.23010074395129568 0
          0 0 0 0.00024204727257751856 0.003718888609703998 0
          0 0 0 0.0031789417282407834 -0.0022458058149002658 0
          0.6631377644214305 -0.4339785310712899 0 0 0 0
          -0.00007977021877231303 0.0038870455952075868 0 0.0022637614918157305 0.00046204826283698525 0
          1.0448816949357722 -0.16117442707666788 0 0.47763061801868206 -0.3957119236050524 0
          0.015680964984888766 -0.03150505925047512 0 0 0 0
          0.00019725010022503045 0.004224117435895413 0 1.1484350553003588 -0.3245349813456716 0
          0.06475287969342498 -0.11906352146137755 0 0.0007459358158766709 0.0016891451552794175 0
          1.0000263169241785 -0.41940166190047246 0 0.31098797525079325 -0.32630558453904124 0
          0 0 0 -0.000007560572722107422 0.004449211875257427 0
          0.007965068630781377 -0.013020957136247555 0 0.15257982307006138 -0.21501527961218994 0
          0.0011119317007277788 0.003559564494614898 0 0.04872323629372843 -0.0864702229140076 0
          0.7950650657012843 -0.44146150664219974 0 0 0 0
          -0.00041594156710475435 0.004025180359077628 0 0.0008876787675529006 0.00484748504464998 0
          0.6177029057362619 -0.41532416535224026 0 0.6864203535060013 -0.07606942247202056 0
          0 0 0 -0.00054337213517632 0.003223914500338059 0
          0.005018227460473208 -0.0035697358531091316 0 -0.000581059342081591 0.005355779114347391 0
          0.03011260803247431 -0.04843639619198934 0 0.45718434826014004 -0.37244549231000573 0
          0.10226537375577961 -0.15388159099186052 0 0 0 0
          -0.0007850255230492237 0.0020751160993830293 0 1.0356028805005886 -0.370509145522871 0
          -0.001314599814637029 0.00497379127523784 0 0.0029327839664478423 0.0012207851913977343 0
          0.31369933507654 -0.30832504573209696 0 1.076898289996176 -0.28929755904731297 0
          0 0 0 0.8981773611459425 -0.4010591709295215 0
          -0.002011198924444169 0.003721978405341791 0 -0.00044084861328860033 0.0006883565920964533 0
          0.08078755191946382 -0.10391265852336888 0 -0.0007197278849715268 0.0031345965531734995 0
          0.18619126683955492 -0.21760612987449426 0 -0.0020975906104589337 0.0022920673656701912 0
          0.6492255755542776 -0.39203073184694476 0 0.026166146819712875 -0.03798826895300835 0
          0 0 0 0.9682654480711279 -0.19281572721158324 0
          0.3120781409272877 -0.017490538704582222 0 -0.0034836653756901374 0.0028082708958866265 0
          0.013401507817704075 -0.018201083985405285 0 0.0056494894784549785 -0.006644859684616104 0
          0.14693774138151353 -0.1622078064035756 0 0.4323247583173766 -0.3301243724348431 0
          0 0 0 -0.0022440012780189523 0.0009151358393961077 0
          0.9588089483086596 -0.3151388796666422 0 0.059712586403356645 -0.07877945391106636 0
          -0.002278189408921765 -0.0010128945876481674 0 0.03290049673001176 -0.040370525423197634 0
          0.7642708070277402 -0.3423225978979514 0 0.24609296158201963 -0.22270370604661102 0
          0.5416608037809718 -0.07304489433443723 0 0.01663905847280781 -0.01860934456329398 0
          0 0 0 -0.0036719864634915888 0.00012509245255196564 0
          0.5471117284177365 -0.3139521594370107 0 1.0029945622126626 -0.23388299779160204 0
          0.12314833640693908 -0.11607760708571527 0 0.37444418504237004 -0.2609760900051771 0
          0.07005339438978936 -0.06577135336225044 0 0.03887289358919662 -0.03235919898053102 0
          -0.0019045681884069562 -0.0014082674921302267 0 0.8860680763733368 -0.28246845785803365 0
          0 0 0 0.015714855863475038 -0.012805157353589213 0
          0.6908615953755312 -0.30099318593782326 0 0.4868278202948887 -0.2703102018188533 0
          0 0 0 0.2158394358784501 -0.151628341991386 0
          0.12425838161820281 -0.0886178593161045 0 0.9464012220543854 -0.08818177607161128 0
          0.07681289471898138 -0.048114793873100796 0 0.004697957188027853 -0.004838417098829716 0
          0.03718964192084951 -0.02020535321723131 0 0.3392666964189201 -0.20859738950358708 0
          0 0 0 0.893356830284858 -0.32588145727673107 0
          0.014571994049895308 -0.002302085451330932 0 0.20140253810849035 -0.12981508772097095 0
          0.12164655097314668 -0.06246231051150678 0 0.5505788546393124 -0.3404453407747174 0
          0.044851999854307774 -0.016519840798386927 0 0.324038971069794 -0.2350403215487739 0
          0 0 0 0.09955567045718568 -0.034500688560620524 0
          0.18801301252740615 -0.10679561408037487 0 0 0 0
          <InformationKey name="L2_NORM_RANGE" location="vtkDataArray" length="2">
            <Value index="0">
              0
            </Value>
            <Value index="1">
              1.4107043248
            </Value>
          </InformationKey>
        </DataArray>
        <DataArray type="Float64" Name="Pressure" format="ascii" RangeMin="-9.26030658043969" RangeMax="37.178499968037485">
          36.650796394083976 36.87237992329513 36.83467446441765 36.636835462338816 36.66610343971755 36.543415161465724
          36.39501197543102 36.13726098951059 35.84291339272702 35.20927602771679 36.38019754339577 34.94218664935415
          36.9081660689134 35.682673011467124 34.882821054840726 34.2166120893939 34.10895370856715 34.96387021562531
          36.715898637583116 35.92523475521525 33.86971049873004 35.190154699725625 32.924620844919644 37.14999783639752
          33.985466726836435 32.73331150901818 32.820354632944806 34.37205720180476 31.886730434868337 35.37574125546145
          36.36667484667845 31.30681094987123 36.90393900618953 34.64338526523629 33.51954514362394 31.628489351649918
          30.709229580064786 32.01398271234383 33.96018591131056 35.604453787297075 29.8563278858514 36.06417670017356
          37.178499968037485 34.85977026163054 30.068486039613152 32.57469364346691 30.6060596961131 33.22263603356954
          34.33136605773053 31.178797878230288 35.04003366622424 27.76664384895864 28.179675022017243 28.94834861636616
          33.85121687221456 32.493335662853646 29.778148117013398 34.545992082545396 30.60201104581144 33.20416889619711
          35.17086337716237 27.963622244481456 31.57980029260271 34.660773458077145 26.197718126992864 34.32246563959219