<?xml version="1.0"?>
<VTKFile type="UnstructuredGrid" version="0.1" byte_order="LittleEndian" header_type="UInt32" compressor="vtkZLibDataCompressor">
  <UnstructuredGrid>
    <Piece NumberOfPoints="418" NumberOfCells="757">
      <PointData>
        <DataArray type="Float64" Name="nsi_BC" NumberOfComponents="3" format="ascii" RangeMin="0" RangeMax="1">
          0 0 0 0 0 0
          0 0 0 0 0 0
          0 0 0 1 0 0
          0 0 0 0 0 0
          0 0 0 0 0 0
          0 0 0 0 0 0
          0 0 0 0 0 0
          0 0 0 0 0 0
          0 0 0 0 0 0
          0 0 0 0 0 0
          0 0 0 0 0 0
          0 0 0 0 0 0
          0 0 0 0 0 0
          0 0 0 0 0 0
          0 0 0 0 0 0
          0 0 0 0 0 0
          0 0 0 0 0 0
          0 0 0 0 0 0
          0 0 0 0 0 0
          0 0 0 0 0 0
          0 0 0 0 0 0
          0 0 0 0 0 0
          0 0 0 0 0 0
          0 0 0 0 0 0
          0 0 0 0 0 0
          0 0 0 0 0 0
          0 0 0 0 0 0
          0 0 0 0 0 0
          0 0 0 0 0 0
          0 0 0 0 0 0
          0 0 0 0 0 0
          0 0 0 0 0 0
          0 0 0 0 0 0
          0 0 0 0 0 0
          0 0 0 0 0 0
          0 0 0 0 0 0
          0 0 0 0 0 0
          0 0 0 0 0 0
          0 0 0 0 0 0
          0 0 0 0 0 0
          0 0 0 0 0 0
          0 0 0 0 0 0
          0 0 0 0 0 0
          0 0 0 0 0 0
          0 0 0 0 0 0
          0 0 0 0 0 0
          0 0 0 0 0 0
          0 0 0 0 0 0
          0 0 0 0 0 0
          0 0 0 0 0 0
          0 0 0 0 0 0
          0 0 0 0 0 0
          0 0 0 0 0 0
          0 0 0 0 0 0
          0 0 0 0 0 0
          0 0 0 0 0 0
          0 0 0 0 0 0
          0 0 0 0 0 0
          0 0 0 0 0 0
          0 0 0 0 0 0
          0 0 0 0 0 0
          0 0 0 0 0 0
          0 0 0 0 0 0
          0 0 0 0 0 0
          0 0 0 0 0 0
          0 0 0 0 0 0
          0 0 0 0 0 0
          0 0 0 0 0 0
          0 0 0 0 0 0
          0 0 0 0 0 0
          0 0 0 0 0 0
          0 0 0 0 0 0
          0 0 0 0 0 0
          0 0 0 0 0 0
          0 0 0 0 0 0
          0 0 0 0 0 0
          0 0 0 0 0 0
          0 0 0 0 0 0
          0 0 0 0 0 0
          0 0 0 0 0 0
          0 0 0 0 0 0
          0 0 0 0 0 0
          0 0 0 0 0 0
          0 0 0 0 0 0
          0 0 0 0 0 0
          0 0 0 0 0 0
          0 0 0 0 0 0
          0 0 0 0 0 0
          0 0 0 0 0 0
          0 0 0 0 0 0
          0 0 0 0 0 0
          0 0 0 0 0 0
          0 0 0 0 0 0
          0 0 0 0 0 0
          0 0 0 0 0 0
          0 0 0 0 0 0
          0 0 0 0 0 0
          0 0 0 0 0 0
          0 0 0 0 0 0
          0 0 0 0 0 0
          0 0 0 0 0 0
          0 0 0 0 0 0
          0 0 0 0 0 0
          0 0 0 0 0 0
          0 0 0 0 0 0
          0 0 0 0 0 0
          0 0 0 0 0 0
          0 0 0 0 0 0
          0 0 0 0 0 0
          0 0 0 0 0 0
          0 0 0 0 0 0
          0 0 0 0 0 0
          0 0 0 0 0 0
          0 0 0 0 0 0
          0 0 0 0 0 0
          0 0 0 0 0 0
          0 0 0 0 0 0
          0 0 0 0 0 0
          0 0 0 0 0 0
          0 0 0 0 0 0
          0 0 0 0 0 0
          0 0 0 0 0 0
          0 0 0 0 0 0
          0 0 0 0 0 0
          0 0 0 0 0 0
          0 0 0 0 0 0
          0 0 0 0 0 0
          0 0 0 0 0 0
          0 0 0 0 0 0
          0 0 0 0 0 0
          0 0 0 0 0 0
          0 0 0 0 0 0
          0 0 0 0 0 0
          0 0 0 0 0 0
          0 0 0 0 0 0
          0 0 0 0 0 0
          0 0 0 0 0 0
          0 0 0 0 0 0
          0 0 0 0 0 0
          0 0 0 0 0 0
          0 0 0 0 0 0
          0 0 0 0 0 0
          0 0 0 0 0 0
          0 0 0 0 0 0
          0 0 0 0 0 0
          0 0 0 0 0 0
          0 0 0 0 0 0
          0 0 0 0 0 0
          0 0 0 0 0 0
          0 0 0 0 0 0
          0 0 0 0 0 0
          0 0 0 0 0 0
          0 0 0 0 0 0
          0 0 0 0 0 0
          0 0 0 0 0 0
          0 0 0 0 0 0
          0 0 0 0 0 0
          0 0 0 0 0 0
          0 0 0 0 0 0
          0 0 0 0 0 0
          0 0 0 0 0 0
          0 0 0 0 0 0
          0 0 0 0 0 0
          0 0 0 0 0 0
          0 0 0 0 0 0
          0 0 0 0 0 0
          0 0 0 0 0 0
          0 0 0 0 0 0
          0 0 0 0 0 0
          0 0 0 0 0 0
          0 0 0 0 0 0
          0 0 0 0 0 0
          0 0 0 0 0 0
          0 0 0 0 0 0
          0 0 0 0 0 0
          0 0 0 0 0 0
          0 0 0 0 0 0
          0 0 0 0 0 0
          0 0 0 0 0 0
          0 0 0 0 0 0
          0 0 0 0 0 0
          0 0 0 0 0 0
          0 0 0 0 0 0
          0 0 0 0 0 0
          0 0 0 0 0 0
          0 0 0 0 0 0
          0 0 0 0 0 0
          0 0 0 0 0 0
          0 0 0 0 0 0
          0 0 0 0 0 0
          0 0 0 0 0 0
          0 0 0 0 0 0
          0 0 0 0 0 0
          0 0 0 0 0 0
          0 0 0 0 0 0
          0 0 0 0 0 0
          0 0 0 0 0 0
          0 0 0 0 0 0
          0 0 0 0 0 0
          0 0 0 0 0 0
          0 0 0 0 0 0
          0 0 0 0 0 0
          0 0 0 0 0 0
          0 0 0 0 0 0
          0 0 0 0 0 0
          0 0 0 0 0 0
          0 0 0 0 0 0
          0 0 0 0 0 0
          0 0 0 0 0 0
          <InformationKey name="L2_NORM_RANGE" location="vtkDataArray" length="2">
            <Value index="0">
              0
            </Value>
            <Value index="1">
              1
            </Value>
          </InformationKey>
        </DataArray>
        <DataArray type="Float64" Name="nsi_FIXNO" NumberOfComponents="3" format="ascii" RangeMin="1.4142135623730951" RangeMax="1.4142135623730951">
          1 1 0 -1 -1 0
          -1 -1 0 -1 -1 0
          1 1 0 1 1 0
          -1 -1 0 -1 -1 0
          -1 -1 0 -1 -1 0
          -1 -1 0 -1 -1 0
          -1 -1 0 -1 -1 0
          -1 -1 0 1 1 0
          -1 -1 0 -1 -1 0
          -1 -1 0 -1 -1 0
          -1 -1 0 -1 -1 0
          -1 -1 0 -1 -1 0
          -1 -1 0 -1 -1 0
          -1 -1 0 -1 -1 0
          -1 -1 0 -1 -1 0
          -1 -1 0 -1 -1 0
          1 1 0 -1 -1 0
          -1 -1 0 -1 -1 0
          1 1 0 -1 -1 0
          -1 -1 0 -1 -1 0
          -1 -1 0 -1 -1 0
          1 1 0 -1 -1 0
          -1 -1 0 -1 -1 0
          -1 -1 0 -1 -1 0
          -1 -1 0 -1 -1 0
          -1 -1 0 -1 -1 0
          -1 -1 0 -1 -1 0
          -1 -1 0 -1 -1 0
          -1 -1 0 -1 -1 0
          -1 -1 0 -1 -1 0
          1 1 0 -1 -1 0
          -1 -1 0 -1 -1 0
          -1 -1 0 -1 -1 0
          -1 -1 0 -1 -1 0
          -1 -1 0 1 1 0
          -1 -1 0 -1 -1 0
          -1 -1 0 -1 -1 0
          -1 -1 0 -1 -1 0
          -1 -1 0 -1 -1 0
          -1 -1 0 -1 -1 0
          -1 -1 0 -1 -1 0
          -1 -1 0 -1 -1 0
          -1 -1 0 -1 -1 0
          -1 -1 0 -1 -1 0
          1 1 0 -1 -1 0
          -1 -1 0 -1 -1 0
          -1 -1 0 -1 -1 0
          -1 -1 0 -1 -1 0
          -1 -1 0 -1 -1 0
          -1 -1 0 -1 -1 0
          -1 -1 0 -1 -1 0
          -1 -1 0 -1 -1 0
          -1 -1 0 -1 -1 0
          -1 -1 0 -1 -1 0
          -1 -1 0 -1 -1 0
          -1 -1 0 -1 -1 0
          -1 -1 0 -1 -1 0
          -1 -1 0 -1 -1 0
          -1 -1 0 -1 -1 0
          -1 -1 0 -1 -1 0
          -1 -1 0 1 1 0
          -1 -1 0 -1 -1 0
          -1 -1 0 -1 -1 0
          -1 -1 0 -1 -1 0
          -1 -1 0 -1 -1 0
          -1 -1 0 -1 -1 0
          -1 -1 0 -1 -1 0
          -1 -1 0 -1 -1 0
          -1 -1 0 -1 -1 0
          -1 -1 0 -1 -1 0
          -1 -1 0 -1 -1 0
          -1 -1 0 -1 -1 0
          -1 -1 0 -1 -1 0
          -1 -1 0 -1 -1 0
          1 1 0 -1 -1 0
          -1 -1 0 -1 -1 0
          -1 -1 0 -1 -1 0
          -1 -1 0 -1 -1 0
          -1 -1 0 -1 -1 0
          -1 -1 0 1 1 0
          -1 -1 0 -1 -1 0
          1 1 0 -1 -1 0
          1 1 0 -1 -1 0
          -1 -1 0 -1 -1 0
          -1 -1 0 1 1 0
          -1 -1 0 -1 -1 0
          -1 -1 0 -1 -1 0
          1 1 0 -1 -1 0
          1 1 0 -1 -1 0
          -1 -1 0 -1 -1 0
          -1 -1 0 -1 -1 0
          -1 -1 0 -1 -1 0
          1 1 0 -1 -1 0
          -1 -1 0 1 1 0
          1 1 0 -1 -1 0
          -1 -1 0 -1 -1 0
          -1 -1 0 -1 -1 0
          -1 -1 0 1 1 0
          -1 -1 0 -1 -1 0
          -1 -1 0 -1 -1 0
          -1 -1 0 -1 -1 0
          1 1 0 1 1 0
          -1 -1 0 1 1 0
          -1 -1 0 -1 -1 0
          -1 -1 0 -1 -1 0
          1 1 0 -1 -1 0
          -1 -1 0 -1 -1 0
          -1 -1 0 -1 -1 0
          1 1 0 -1 -1 0
          -1 -1 0 -1 -1 0
          1 1 0 -1 -1 0
          -1 -1 0 1 1 0
          1 1 0 -1 -1 0
          -1 -1 0 -1 -1 0
          -1 -1 0 -1 -1 0
          -1 -1 0 -1 -1 0
          -1 -1 0 1 1 0
          1 1 0 -1 -1 0
          1 1 0 1 1 0
          -1 -1 0 -1 -1 0
          1 1 0 -1 -1 0
          -1 -1 0 -1 -1 0
          -1 -1 0 1 1 0
          -1 -1 0 -1 -1 0
          -1 -1 0 1 1 0
          -1 -1 0 1 1 0
          -1 -1 0 -1 -1 0
          -1 -1 0 -1 -1 0
          -1 -1 0 -1 -1 0
          -1 -1 0 1 1 0
          1 1 0 -1 -1 0
          1 1 0 -1 -1 0
          1 1 0 -1 -1 0
          -1 -1 0 -1 -1 0
          1 1 0 -1 -1 0
          -1 -1 0 -1 -1 0
          -1 -1 0 -1 -1 0
          1 1 0 1 1 0
          -1 -1 0 -1 -1 0
          -1 -1 0 -1 -1 0
          -1 -1 0 -1 -1 0
          1 1 0 -1 -1 0
          -1 -1 0 -1 -1 0
          1 1 0 -1 -1 0
          1 1 0 1 1 0
          -1 -1 0 -1 -1 0
          -1 -1 0 -1 -1 0
          -1 -1 0 1 1 0
          1 1 0 -1 -1 0
          -1 -1 0 -1 -1 0
          -1 -1 0 1 1 0
          -1 -1 0 1 1 0
          -1 -1 0 -1 -1 0
          1 1 0 -1 -1 0
          -1 -1 0 1 1 0
          -1 -1 0 -1 -1 0
          1 1 0 -1 -1 0
          1 1 0 -1 -1 0
          -1 -1 0 1 1 0
          -1 -1 0 -1 -1 0
          -1 -1 0 -1 -1 0
          -1 -1 0 1 1 0
          -1 -1 0 -1 -1 0
          -1 -1 0 -1 -1 0
          -1 -1 0 -1 -1 0
          1 1 0 -1 -1 0
          -1 -1 0 -1 -1 0
          -1 -1 0 -1 -1 0
          -1 -1 0 1 1 0
          -1 -1 0 -1 -1 0
          -1 -1 0 -1 -1 0
          1 1 0 -1 -1 0
          -1 -1 0 -1 -1 0
          -1 -1 0 -1 -1 0
          -1 -1 0 1 1 0
          -1 -1 0 -1 -1 0
          -1 -1 0 -1 -1 0
          -1 -1 0 -1 -1 0
          1 1 0 -1 -1 0
          -1 -1 0 -1 -1 0
          -1 -1 0 -1 -1 0
          -1 -1 0 -1 -1 0
          -1 -1 0 -1 -1 0
          1 1 0 -1 -1 0
          -1 -1 0 -1 -1 0
          -1 -1 0 -1 -1 0
          -1 -1 0 -1 -1 0
          1 1 0 -1 -1 0
          -1 -1 0 -1 -1 0
          -1 -1 0 -1 -1 0
          -1 -1 0 -1 -1 0
          -1 -1 0 -1 -1 0
          1 1 0 -1 -1 0
          -1 -1 0 -1 -1 0
          -1 -1 0 -1 -1 0
          -1 -1 0 -1 -1 0
          -1 -1 0 -1 -1 0
          1 1 0 -1 -1 0
          -1 -1 0 -1 -1 0
          1 1 0 -1 -1 0
          -1 -1 0 -1 -1 0
          -1 -1 0 -1 -1 0
          -1 -1 0 -1 -1 0
          1 1 0 -1 -1 0
          -1 -1 0 -1 -1 0
          -1 -1 0 -1 -1 0
          -1 -1 0 -1 -1 0
          1 1 0 -1 -1 0
          -1 -1 0 1 1 0
          <InformationKey name="L2_NORM_RANGE" location="vtkDataArray" length="2">
            <Value index="0">
              1.4142135624
            </Value>
            <Value index="1">
              1.4142135624
            </Value>
          </InformationKey>
        </DataArray>
        <DataArray type="Float64" Name="Velocity" NumberOfComponents="3" format="ascii" RangeMin="0" RangeMax="1.419755172866113">
          0 0 0 0.3211165281184235 0.025526723716526988 0
          0.7321318021621552 0.10676241673130218 0 0.5240554208734148 0.046873891094883276 0
          0 0 0 1 0 0
          0.7091902199532985 0.03652208881639878 0 0.3847922611702262 0.02897713531633406 0
          0.6448400453064859 0.04784837161529319 0 0.3312449152699678 0.006500619002737865 0
          0.6602153902773263 0.022154840556631347 0 0.5763025748800359 0.03978344453128209 0
          0.7017665322388328 -0.09672512109351974 0 0.6906094695006011 0.03335084052414794 0
          0.6689431207672298 0.05191100465182153 0 0 0 0
          0.5322791599421622 0.026634033413823647 0 0.68859389229376 0.057692445757820794 0
          0.6081946933931002 -0.015338616841837953 0 0.6386272987028419 0.029256697981979093 0
          0.6619308607586564 0.05807557723599906 0 0.656347354542288 0.05170605653785213 0
          0.44773626129473065 0.036023363760549855 0 0.34678466459883756 -0.028561623289603856 0
          0.6964133956839019 0.09407453755803714 0 0.6571796657755733 0.07600062021117833 0
          0.725569236649763 0.11279314197538402 0 0.6681211000810087 0.09068409144681655 0
          0.33858090387520473 0.011241025921920196 0 0.5703143110557893 0.03447195955269906 0
          0.4559129466610672 -0.00982910413558571 0 0.6215525617117742 0.08693245706993251 0
          0 0 0 0.6024832364708699 0.07181344893135436 0
          0.683326611876417 0.14816559749618008 0 0.7540117568867345 0.1472162613845221 0
          0 0 0 0.7495483597361358 0.18277303822978525 0
          0.6180020050234357 0.13002394450244767 0 0.34488534886376826 0.0043896850034690175 0
          0.5860161472092033 0.08152982057949273 0 0.2131754943519126 0.0033857105154739406 0
          0 0 0 0.48321112686924594 0.04387352184985192 0
          0.7715846062297864 0.17514200361474255 0 0.7098551006059347 0.21536765602074304 0
          0.8080626831642969 0.23536050194656288 0 0.6345295499399362 0.20267839877590565 0
          0.5207604786964781 0.09107516505521127 0 0.7734059118711059 0.27334044792816475 0
          0.33659237908587414 0.022818873916858013 0 0.474385281796238 0.022770734926863878 0
          0.8071896939954392 0.1450606807395203 0 0.867693077385414 0.265032396891278 0
          0.5403758882972317 0.16545752469348868 0 0.6479965282178254 0.287393505744529 0
          0.84044462243818 0.33228004574056924 0 0.3809570648758505 0.04741169827413513 0
          0.7612459466533882 0.36432189232292905 0 0.5617250681422147 0.2555538868410355 0
          0 0 0 0.9289107241485336 0.353595744970913 0
          0.6684558241521319 0.3737720361464025 0 0.2082571976719728 0.011067081368402856 0
          0.9875258051575642 0.22584102861700897 0 0.3979130331688023 0.0952453925089188 0
          0.45679988541228667 0.1968902049197858 0 0.8433453265112903 0.41922187449192194 0
          0.5618297031628728 0.34006306519593793 0 0 0 0
          0.756752056005384 0.09590628125256959 0 0.4578730522564692 0.279260165551661 0
          0.7100607507664957 0.4676226760779537 0 1.043755859637467 0.34942522993172914 0
          0.9438685403075258 0.4586006369577755 0 0.3497940471559019 0.13464299604345908 0
          0.2457928786379072 0.03683953063677229 0 0.5419596418635602 0.4268431032594299 0
          0.8248272738969217 0.5161260488128528 0 1.116870009637667 0.2756564858656629 0
          0.4495122804812633 0.3610628037480531 0 0.7009841898774931 0.5239481521825147 0
          0.3522699572818161 0.2052433152250459 0 0.27590414538943653 0.06958110561248987 0
          1.0395949586169946 0.18407066131427346 0 0.5855226880049215 0.5120668161542101 0
          0.9438859265118611 0.5255689158426206 0 0.3424480024729121 0.28220621903739085 0
          0 0 0 0.8375151070467086 0.07903761762158064 0
          1.185087173119409 0.37531721008836233 0 0.7709570169821933 0.574400184265097 0
          0.42355906589109804 0.445537815646089 0 0.6233750489417157 0.5700159360697924 0
          1.2263555169857443 0.26664457972336847 0 0.25628896729133493 0.1344202344308565 0
          0.30971265926567887 0.3353348450642488 0 0.14685143819766086 0.018089451229480455 0
          0.25698356461318317 0.20696923809845857 0 0.4777427743210711 0.009444812898296902 0
          0.921512406749129 0.5700110376395803 0 0.40928494994233205 0.5029257813430911 0
          1.1410463191775286 0.4707506957479374 0 0.24940329998225258 0.2755130012531712 0
          0.6839533227862866 0.6007065584038946 0 0.27348095215411594 0.3770594005813329 0
          1.171638783820327 0.13290570211152375 0 1.2936722095875488 0.32322566851163625 0
          0.1682687137885497 0.050516779492335975 0 0.5102249608291735 0.5764203145148737 0
          0.7978107441602009 0.5792942007360865 0 0.20219989674276362 0.2990824103684366 0
          0.31701611057077045 0.47768273316258797 0 1.0765767944118185 0.4873829412455373 0
          0.9162625854710058 0.024413424100088274 0 0.16066293255556974 0.08376924162580884 0
          0.5490497203759189 0.5702135487418212 0 0.21225984846036033 0.37531517485821003 0
          1.2704431333673412 0.35359713105953755 0 1.3511905532214241 0.18520305510406793 0
          0.15720292056184157 0.14671885549069094 0 0 0 0
          0.15814792244616038 0.22155856154011497 0 0.320185883408938 0.4970049008159356 0
          1.3582414074726228 0.25122879072616444 0 0.16586239507328696 0.30805697804339827 0
          0.0737118483323771 0.009789591140184668 0 0.6511888156256638 0.513523794026202 0
          0.15177930245693702 0.3480432486812398 0 0.984568359347516 0.4247896323408414 0
          0.35961892153567176 0.46459323543277325 0 0.11168832971357451 0.22438567943104 0
          1.1804205803626093 0.33706421980140777 0 0.09865688240711268 0.037383653150503536 0
          0.11273477569971987 0.15407491818275695 0 1.2495953878160468 0.05001604395899343 0
          1.3182834328624202 0.2487161945247095 0 0.1596767499466776 0.3542527587938761 0
          0.08361777303276467 0.214399768583977 0 1.4069122043470357 0.14376371223693973 0
          0.42624737503344756 0.3612283577601481 0 0.09747520359883298 0.11531018635454753 0
          0.07227537712570001 0.25263900019429636 0 0.08901245558695249 0.05361684651117478 0
          0.7629141300175585 0.3084216406315848 0 0.0832047419198298 0.1529240364017219 0
          0.0667647979239867 0.22396679982797904 0 0.06964498642590432 0.22160991739669583 0
          0 0 0 0.08350411997644064 0.22152053762976331 0
          0.9948793145592133 0.25210150222548444 0 1.4019108162605427 0.06908395455100477 0
          1.1975994764998148 0.20567682060887363 0 0.0403207883719997 0.16075156773493302 0
          0.07175255808597797 0.07180538924527866 0 0.04846116412037763 0.14058748380771402 0
          0.9188298216509673 0.0022631180685008176 0 0.031945762682257385 0.15238208577343867 0
          0.02118989561859035 0.12799301712927685 0 0 0 0
          0.061188932958923845 0.10508163924170816 0 0.39955759391656154 0.06993854669123849 0
          0 0 0 0.7054582562918534 0.11106186709387895 0
          0 0 0 0.017245108770644293 0.09919920865390297 0
          0.029258668631692186 0.1218317517114447 0 0.05079025381427319 0.017072982607180424 0
          1.3361953677373812 0.058402235048447854 0 0 0 0
          0.0109604620530119 0.07580552560447275 0 0.049492704007389275 0.07092100336907158 0
          0.9302454939311593 0.07131744671848515 0 0.03517224822316997 0.09187426774305482 0
          0 0 0 0.019222287723642952 0.08918981569117353 0
          0 0 0 1.4197514101748903 -0.0032686673885891308 0
          0.3530515687292168 0.02739591337530823 0 0.006621039780617202 0.06261640555424478 0
          1.1365911336343144 0.020355909919303364 0 0.01879541880280414 0.08010528788545251 0
          0.6747991067815162 0.03733965663046455 0 0.042102960621934006 0.02858717860150635 0
          0 0 0 0.006952191534836366 0.05024280141869932 0
          1.4049710343928508 -0.04008740742001269 0 0 0 0
          0 0 0 0.014788500142421718 0.05753177749344548 0
          0.03215961769886315 0.03449034338510225 0 0.005042598822481667 0.04130078687636983 0
          0.022384986131471985 0.05223407070466888 0 0.33535498689739435 -0.0010300715501791334 0
          0.013978513567535572 0.05045359253510349 0 0 0 0
          1.245652997348957 -0.05525701764322776 0 0.6625555734978648 -0.027206416640903144 0
          0.9479030081270853 -0.0646062727121981 0 0.004661961491183998 0.032873248493585985 0
          1.163113320585919 -0.10994193829690964 0 0.023448442157094202 0.007641399264178746 0
          0 0 0 0 0 0
          0.01837395348955992 0.031791839229504175 0 0 0 0
          1.3217391680217643 -0.13312251733841615 0 0.009665628577308787 0.0342055241726207 0
          0.004079145570893596 0.025808285745056368 0 0.3433912486772777 -0.02878088007729264 0
          0 0 0 1.3944723656286295 -0.14293336349387895 0
          0.00935362744635588 0.02714052807879506 0 0.6809669606873825 -0.13303386809888304 0
          0.016580495654353933 0.013559750160168782 0 0.003326542773730381 0.01941061570222981 0
          0 0 0 0.93588257370228 -0.18635937003725883 0
          0.006389695144881696 0.021466664366619526 0 1.3673067331445419 -0.13913713383802168 0
          0 0 0 0.0030742713350833052 0.014576947062121507 0
          1.1390573616791941 -0.2194618206823465 0 0 0 0
          0 0 0 0.39676877573170904 -0.1828590032943071 0
          0.008815645261726207 0.012066959225879165 0 0.0062799863698516116 0.01461374370669494 0
          0.9283263575864659 -0.053008932363407514 0 0.0019383025652564227 0.010160272056922763 0
          1.2849111081466018 -0.23113863015626174 0 1.1956057691525679 -0.10514496837200984 0
          0.008977017441530644 0.0030115458540018337 0 0 0 0
          0 0 0 0.6791738213571421 -0.25865357532576605 0
          0 0 0 0 0 0
          0.001241674879197039 0.0073093619031217895 0 0.04764296106728074 -0.0893981567026811 0
          0 0 0 0.0038568411605793738 0.008582801080558882 0
          1.3530581113731508 -0.2296824371916687 0 0.9088621230644301 -0.3000377460354493 0
          0.005481836091012346 0.004107133482866165 0 0 0 0
          0.026592609740586467 -0.04738527308446284 0 0.0014167363378626268 0.004615518473803464 0
          0.0033621203070033153 0.005439319229934793 0 0 0 0
          0.015260704357218057 -0.02149794415697861 0 0 0 0
          0.31549413668925747 -0.23927521040097027 0 1.3084339628008228 -0.19611827744291238 0
          0.0018304195936708176 0.0032739619045508584 0 1.0636219737867938 -0.3390050336933977 0
          0.006454697313216653 -0.0039031019337919283 0 0.0030276075742651995 0.0008708210214560931 0
          0.0011440410923096833 0.002815494160999861 0 0 0 0
          0 0 0 0.10404480322959278 -0.13743393615673058 0
          0 0 0 0.0022373326594884255 0.001965882965922936 0
          0 0 0 1.2241247406356404 -0.3273985353154555 0
          0.06558004085630263 -0.08749538328357674 0 0.0017952835611524086 0.0014480279030490214 0
          0 0 0 0.0005970349783566095 0.0013148623392987863 0
          0.2496965336295066 -0.007745971796752683 0 0.5461686297345917 -0.3263143778607655 0
          0.001444951427501763 0.005505413279351717 0 1.1400598408172626 -0.15262755391219687 0
          0 0 0 0 0 0
          0.0013887569051734532 0.0072212234577207195 0 0.00041345379219851993 0.0006028111199313914 0
          0.2949595125494834 -0.2572520810629871 0 0.017578482419339438 -0.031393954751106665 0
          0.053248990407366276 -0.07242387583602093 0 0.7778258070091928 -0.3771414527551959 0
          0 0 0 1.277125471298663 -0.29028965077212304 0
          0.14124877402215302 -0.16392515673065652 0 0.0005603285386101265 0.008974436237602272 0
          0 0 0 0.010963775299312067 -0.015745935600297287 0
          0 0 0 0 0 0
          0.0055937024938678935 -0.0022683608783853246 0 0.00022538151162738643 -0.00008457959035598097 0
          -0.00004180429030519078 0.009474516250153818 0 0.005301397350538957 0.003080431726560105 0
          0.7725414159619446 -0.09435842943080511 0 0 0 0
          0 0 0 0.4850131400586862 -0.3432129496123216 0
          0.00024148452274995572 0.009899284101652344 0 0.9384177406451254 -0.39725972628713135 0
          1.22012745451926 -0.24430941951954324 0 0 0 0
          0.03622882406532571 -0.056566986400661295 0 0 0 0
          0.3099584924768814 -0.2783096969734952 0 0.0021784239753114974 0.00713363890340925 0
          0 0 0 0.00006954708498628304 0.009994717456640153 0
          0.01596886492992812 -0.016288126135142505 0 0 0 0
          0.0019421551109581883 0.01064110541913473 0 0.16144455949477446 -0.18051485053870706 0
          0 0 0 -0.00036914701664135264 0.009717012267900347 0
          0 0 0 0.0009972203604812183 0.012112891938514059 0
          0.658108610280602 -0.3940958201396091 0 0 0 0
          -0.0006799605331615971 0.008776390438695441 0 0.00013999779958874428 0.012818196220905074 0
          1.0606239772871633 -0.16875478547528736 0 0.4694389914200751 -0.34928733670342393 0
          0.009826485166439415 -0.003115753356882838 0 0 0 0
          -0.0005831906451305551 0.007874032059684141 0 1.1840671107219416 -0.3308199478817105 0
          0.05716911224707724 -0.07690443357881127 0 -0.0016538407439656469 0.013090566847500323 0
          1.0240772305365697 -0.4118829669669217 0 0.30248395341049394 -0.2769958475651524 0
          0 0 0 -0.0006255978684738892 0.006955100017583771 0
          0.0027449999899564273 0.008404814041988342 0 0.14262366010431754 -0.16612587728747819 0
          -0.001608533361795185 0.01248669855233025 0 0.0389704933956771 -0.04856724380626706 0
          0.8062333403088684 -0.42100581950844923 0 0 0 0
          -0.0008636405454071191 0.005596269026916659 0 -0.0014756464589021404 0.01093097838162836 0
          0.6196384277878565 -0.38622044697700214 0 0.6871146430794343 -0.08114157700951297 0
          0 0 0 -0.0009498093019133745 0.0040585034866447555 0
          -0.001523430852384574 0.01123156361558483 0 -0.002613441138171847 0.009909226571215998 0
          0.018880965655943424 -0.017782403657436135 0 0.4530168768606549 -0.3365684830471499 0
          0.08879393238050673 -0.11213053268437656 0 0 0 0
          -0.001022509111092346 0.002369324450787634 0 1.072783167811214 -0.38210283159439323 0
          -0.002970288820827482 0.007815789249211103 0 -0.0029703796635217137 0.011207773190910751 0
          0.30403757066265397 -0.26947013621151744 0 1.1120779702002677 -0.3061621538034454 0
          0 0 0 0.927184829966721 -0.4047638289137338 0
          -0.0032753220343444836 0.005417022305525769 0 -0.0004861513869457234 0.0006927510805073794 0
          0.06403613290344196 -0.06928720430110247 0 -0.005230386252968271 0.009201772124051953 0
          0.17106917735834995 -0.18044328281195277 0 -0.002776362020582966 0.0030385809330424527 0
          0.65971465328208 -0.38012884900159455 0 0.010667354304875556 -0.01436577125267344 0
          0 0 0 0.9784338983699248 -0.20374827690861605 0
          0.3079446614161524 -0.017098481004810717 0 -0.005999058774783517 0.005189140600751512 0
          0.00030359978923794295 -0.002570491752641182 0 -0.0038719601688664684 0.003406486775023145 0
          0.1270025703375274 -0.13074472775604118 0 0.4285535262522845 -0.3133965277503722 0
          0 0 0 -0.0031146627086923325 0.001372579235324284 0
          0.9987611263312871 -0.338119131847956 0 0.03683985419546682 -0.05481944550853212 0
          -0.00884965621219296 0.0035636238249862175 0 0.012339471716098472 -0.023156643804725558 0
          0.7922357696694077 -0.35799587935108756 0 0.227283408306248 -0.20323905850513668 0
          0.5363298808698793 -0.07126750496193476 0 0.0003147803962266477 -0.007722018183347211 0
          0 0 0 -0.006697267076703613 0.0013081045239248812 0
          0.5547235545449005 -0.3235190263149826 0 1.0375786811887422 -0.26181026620121883 0
          0.0950726260815157 -0.10052709770998665 0 0.36359706744776443 -0.2619141811762531 0
          0.04211863984660356 -0.05198752750600218 0 0.015517201541038975 -0.02282166736585188 0
          -0.008794845362408115 -0.000010653190576136241 0 0.9266600896084833 -0.31319741949553626 0
          0 0 0 0.00024577810950167524 -0.0074408850924578395 0
          0.7161629981670172 -0.3331010780909762 0 0.48790005557793825 -0.2931938312614707 0
          0 0 0 0.18783790384257024 -0.15290226542019253 0
          0.09185317324393773 -0.0845728156651698 0 0.9357613676164909 -0.08923421325260306 0
          0.047582751134439626 -0.04416698187996809 0 -0.004112209408136167 -0.0029230128541949604 0
          0.016682505633500298 -0.01722148045341912 0 0.3211277454510355 -0.22792079567077245 0
          0 0 0 0.9342731363097196 -0.3611606862179835 0
          0.004072347295217841 -0.0016490757767360404 0 0.17062478429314157 -0.14095617244875822 0
          0.09048629638945707 -0.06647739297135323 0 0.5589886980007672 -0.3879108148938796 0
          0.029747927462746838 -0.018314831288698707 0 0.3050409139325346 -0.2663988053826955 0
          0 0 0 0.07840608506893147 -0.03780040246517008 0
          0.1654573690729212 -0.11611180348432923 0 0 0 0
          <InformationKey name="L2_NORM_RANGE" location="vtkDataArray" length="2">
            <Value index="0">
              0
            </Value>
            <Value index="1">
              1.4197551729
            </Value>
          </InformationKey>
        </DataArray>
        <DataArray type="Float64" Name="Pressure" format="ascii" RangeMin="-8.86966313643739" RangeMax="36.858764729838796">
          36.20474564108285 36.433460407105656 36.658077198812435 36.22541515185456 36.14247551028905 36.609634986543476
          36.04973476488293 35.65178593293703 35.4321517903089 34.75952193709857 36.086320301981544 34.52414709460895
          36.81107747776781 35.33080586237606 34.487723650773994 33.78971157698762 33.631816248281154 34.57931744484418
          36.47023099541757 35.5964639798846 33.44209505426551 34.82599841183297 32.5059616498634 36.858764729838796
          33.57926078965753 32.315764890338436 32.404921128198836 33.981597259612975 31.505598626172734 35.02852542012587
          36.050714203843775 30.92661035196234 36.60795191721108 34.26368863796979 33.115828652500234 31.217251404200336
          30.35684632129327 31.605520645855957 33.561434228373805 35.33184399962032 29.48542537766752 35.77090990118178
          36.807499586877015 34.485436123166615 29.67035770062112 32.15887015289274 30.176543096435246 32.808384619569644
          33.92544879026584 30.758048313498186 34.6563911536129 27.435072404365492 27.80508583036091 28.508571524430113
          33.42892979630953 32.051834526361105 29.333367551312435 34.11810130235961 30.16586442612352 32.76675763216529
          34.90893674933273 27.504200204727876 31.118174619908018 34.249095134723 25.785148993869445 33.85894438373297