<?xml version="1.0"?>
<VTKFile type="UnstructuredGrid" version="0.1" byte_order="LittleEndian" header_type="UInt32" compressor="vtkZLibDataCompressor">
  <UnstructuredGrid>
    <Piece NumberOfPoints="418" NumberOfCells="757">
      <PointData>
        <DataArray type="Float64" Name="nsi_BC" NumberOfComponents="3" format="ascii" RangeMin="0" RangeMax="1">
          0 0 0 0 0 0
          0 0 0 0 0 0
          0 0 0 1 0 0
          0 0 0 0 0 0
          0 0 0 0 0 0
          0 0 0 0 0 0
          0 0 0 0 0 0
          0 0 0 0 0 0
          0 0 0 0 0 0
          0 0 0 0 0 0
          0 0 0 0 0 0
          0 0 0 0 0 0
          0 0 0 0 0 0
          0 0 0 0 0 0
          0 0 0 0 0 0
          0 0 0 0 0 0
          0 0 0 0 0 0
          0 0 0 0 0 0
          0 0 0 0 0 0
          0 0 0 0 0 0
          0 0 0 0 0 0
          0 0 0 0 0 0
          0 0 0 0 0 0
          0 0 0 0 0 0
          0 0 0 0 0 0
          0 0 0 0 0 0
          0 0 0 0 0 0
          0 0 0 0 0 0
          0 0 0 0 0 0
          0 0 0 0 0 0
          0 0 0 0 0 0
          0 0 0 0 0 0
          0 0 0 0 0 0
          0 0 0 0 0 0
          0 0 0 0 0 0
          0 0 0 0 0 0
          0 0 0 0 0 0
          0 0 0 0 0 0
          0 0 0 0 0 0
          0 0 0 0 0 0
          0 0 0 0 0 0
          0 0 0 0 0 0
          0 0 0 0 0 0
          0 0 0 0 0 0
          0 0 0 0 0 0
          0 0 0 0 0 0
          0 0 0 0 0 0
          0 0 0 0 0 0
          0 0 0 0 0 0
          0 0 0 0 0 0
          0 0 0 0 0 0
          0 0 0 0 0 0
          0 0 0 0 0 0
          0 0 0 0 0 0
          0 0 0 0 0 0
          0 0 0 0 0 0
          0 0 0 0 0 0
          0 0 0 0 0 0
          0 0 0 0 0 0
          0 0 0 0 0 0
          0 0 0 0 0 0
          0 0 0 0 0 0
          0 0 0 0 0 0
          0 0 0 0 0 0
          0 0 0 0 0 0
          0 0 0 0 0 0
          0 0 0 0 0 0
          0 0 0 0 0 0
          0 0 0 0 0 0
          0 0 0 0 0 0
          0 0 0 0 0 0
          0 0 0 0 0 0
          0 0 0 0 0 0
          0 0 0 0 0 0
          0 0 0 0 0 0
          0 0 0 0 0 0
          0 0 0 0 0 0
          0 0 0 0 0 0
          0 0 0 0 0 0
          0 0 0 0 0 0
          0 0 0 0 0 0
          0 0 0 0 0 0
          0 0 0 0 0 0
          0 0 0 0 0 0
          0 0 0 0 0 0
          0 0 0 0 0 0
          0 0 0 0 0 0
          0 0 0 0 0 0
          0 0 0 0 0 0
          0 0 0 0 0 0
          0 0 0 0 0 0
          0 0 0 0 0 0
          0 0 0 0 0 0
          0 0 0 0 0 0
          0 0 0 0 0 0
          0 0 0 0 0 0
          0 0 0 0 0 0
          0 0 0 0 0 0
          0 0 0 0 0 0
          0 0 0 0 0 0
          0 0 0 0 0 0
          0 0 0 0 0 0
          0 0 0 0 0 0
          0 0 0 0 0 0
          0 0 0 0 0 0
          0 0 0 0 0 0
          0 0 0 0 0 0
          0 0 0 0 0 0
          0 0 0 0 0 0
          0 0 0 0 0 0
          0 0 0 0 0 0
          0 0 0 0 0 0
          0 0 0 0 0 0
          0 0 0 0 0 0
          0 0 0 0 0 0
          0 0 0 0 0 0
          0 0 0 0 0 0
          0 0 0 0 0 0
          0 0 0 0 0 0
          0 0 0 0 0 0
          0 0 0 0 0 0
          0 0 0 0 0 0
          0 0 0 0 0 0
          0 0 0 0 0 0
          0 0 0 0 0 0
          0 0 0 0 0 0
          0 0 0 0 0 0
          0 0 0 0 0 0
          0 0 0 0 0 0
          0 0 0 0 0 0
          0 0 0 0 0 0
          0 0 0 0 0 0
          0 0 0 0 0 0
          0 0 0 0 0 0
          0 0 0 0 0 0
          0 0 0 0 0 0
          0 0 0 0 0 0
          0 0 0 0 0 0
          0 0 0 0 0 0
          0 0 0 0 0 0
          0 0 0 0 0 0
          0 0 0 0 0 0
          0 0 0 0 0 0
          0 0 0 0 0 0
          0 0 0 0 0 0
          0 0 0 0 0 0
          0 0 0 0 0 0
          0 0 0 0 0 0
          0 0 0 0 0 0
          0 0 0 0 0 0
          0 0 0 0 0 0
          0 0 0 0 0 0
          0 0 0 0 0 0
          0 0 0 0 0 0
          0 0 0 0 0 0
          0 0 0 0 0 0
          0 0 0 0 0 0
          0 0 0 0 0 0
          0 0 0 0 0 0
          0 0 0 0 0 0
          0 0 0 0 0 0
          0 0 0 0 0 0
          0 0 0 0 0 0
          0 0 0 0 0 0
          0 0 0 0 0 0
          0 0 0 0 0 0
          0 0 0 0 0 0
          0 0 0 0 0 0
          0 0 0 0 0 0
          0 0 0 0 0 0
          0 0 0 0 0 0
          0 0 0 0 0 0
          0 0 0 0 0 0
          0 0 0 0 0 0
          0 0 0 0 0 0
          0 0 0 0 0 0
          0 0 0 0 0 0
          0 0 0 0 0 0
          0 0 0 0 0 0
          0 0 0 0 0 0
          0 0 0 0 0 0
          0 0 0 0 0 0
          0 0 0 0 0 0
          0 0 0 0 0 0
          0 0 0 0 0 0
          0 0 0 0 0 0
          0 0 0 0 0 0
          0 0 0 0 0 0
          0 0 0 0 0 0
          0 0 0 0 0 0
          0 0 0 0 0 0
          0 0 0 0 0 0
          0 0 0 0 0 0
          0 0 0 0 0 0
          0 0 0 0 0 0
          0 0 0 0 0 0
          0 0 0 0 0 0
          0 0 0 0 0 0
          0 0 0 0 0 0
          0 0 0 0 0 0
          0 0 0 0 0 0
          0 0 0 0 0 0
          0 0 0 0 0 0
          0 0 0 0 0 0
          0 0 0 0 0 0
          0 0 0 0 0 0
          0 0 0 0 0 0
          0 0 0 0 0 0
          0 0 0 0 0 0
          <InformationKey name="L2_NORM_RANGE" location="vtkDataArray" length="2">
            <Value index="0">
              0
            </Value>
            <Value index="1">
              1
            </Value>
          </InformationKey>
        </DataArray>
        <DataArray type="Float64" Name="nsi_FIXNO" NumberOfComponents="3" format="ascii" RangeMin="1.4142135623730951" RangeMax="1.4142135623730951">
          1 1 0 -1 -1 0
          -1 -1 0 -1 -1 0
          1 1 0 1 1 0
          -1 -1 0 -1 -1 0
          -1 -1 0 -1 -1 0
          -1 -1 0 -1 -1 0
          -1 -1 0 -1 -1 0
          -1 -1 0 1 1 0
          -1 -1 0 -1 -1 0
          -1 -1 0 -1 -1 0
          -1 -1 0 -1 -1 0
          -1 -1 0 -1 -1 0
          -1 -1 0 -1 -1 0
          -1 -1 0 -1 -1 0
          -1 -1 0 -1 -1 0
          -1 -1 0 -1 -1 0
          1 1 0 -1 -1 0
          -1 -1 0 -1 -1 0
          1 1 0 -1 -1 0
          -1 -1 0 -1 -1 0
          -1 -1 0 -1 -1 0
          1 1 0 -1 -1 0
          -1 -1 0 -1 -1 0
          -1 -1 0 -1 -1 0
          -1 -1 0 -1 -1 0
          -1 -1 0 -1 -1 0
          -1 -1 0 -1 -1 0
          -1 -1 0 -1 -1 0
          -1 -1 0 -1 -1 0
          -1 -1 0 -1 -1 0
          1 1 0 -1 -1 0
          -1 -1 0 -1 -1 0
          -1 -1 0 -1 -1 0
          -1 -1 0 -1 -1 0
          -1 -1 0 1 1 0
          -1 -1 0 -1 -1 0
          -1 -1 0 -1 -1 0
          -1 -1 0 -1 -1 0
          -1 -1 0 -1 -1 0
          -1 -1 0 -1 -1 0
          -1 -1 0 -1 -1 0
          -1 -1 0 -1 -1 0
          -1 -1 0 -1 -1 0
          -1 -1 0 -1 -1 0
          1 1 0 -1 -1 0
          -1 -1 0 -1 -1 0
          -1 -1 0 -1 -1 0
          -1 -1 0 -1 -1 0
          -1 -1 0 -1 -1 0
          -1 -1 0 -1 -1 0
          -1 -1 0 -1 -1 0
          -1 -1 0 -1 -1 0
          -1 -1 0 -1 -1 0
          -1 -1 0 -1 -1 0
          -1 -1 0 -1 -1 0
          -1 -1 0 -1 -1 0
          -1 -1 0 -1 -1 0
          -1 -1 0 -1 -1 0
          -1 -1 0 -1 -1 0
          -1 -1 0 -1 -1 0
          -1 -1 0 1 1 0
          -1 -1 0 -1 -1 0
          -1 -1 0 -1 -1 0
          -1 -1 0 -1 -1 0
          -1 -1 0 -1 -1 0
          -1 -1 0 -1 -1 0
          -1 -1 0 -1 -1 0
          -1 -1 0 -1 -1 0
          -1 -1 0 -1 -1 0
          -1 -1 0 -1 -1 0
          -1 -1 0 -1 -1 0
          -1 -1 0 -1 -1 0
          -1 -1 0 -1 -1 0
          -1 -1 0 -1 -1 0
          1 1 0 -1 -1 0
          -1 -1 0 -1 -1 0
          -1 -1 0 -1 -1 0
          -1 -1 0 -1 -1 0
          -1 -1 0 -1 -1 0
          -1 -1 0 1 1 0
          -1 -1 0 -1 -1 0
          1 1 0 -1 -1 0
          1 1 0 -1 -1 0
          -1 -1 0 -1 -1 0
          -1 -1 0 1 1 0
          -1 -1 0 -1 -1 0
          -1 -1 0 -1 -1 0
          1 1 0 -1 -1 0
          1 1 0 -1 -1 0
          -1 -1 0 -1 -1 0
          -1 -1 0 -1 -1 0
          -1 -1 0 -1 -1 0
          1 1 0 -1 -1 0
          -1 -1 0 1 1 0
          1 1 0 -1 -1 0
          -1 -1 0 -1 -1 0
          -1 -1 0 -1 -1 0
          -1 -1 0 1 1 0
          -1 -1 0 -1 -1 0
          -1 -1 0 -1 -1 0
          -1 -1 0 -1 -1 0
          1 1 0 1 1 0
          -1 -1 0 1 1 0
          -1 -1 0 -1 -1 0
          -1 -1 0 -1 -1 0
          1 1 0 -1 -1 0
          -1 -1 0 -1 -1 0
          -1 -1 0 -1 -1 0
          1 1 0 -1 -1 0
          -1 -1 0 -1 -1 0
          1 1 0 -1 -1 0
          -1 -1 0 1 1 0
          1 1 0 -1 -1 0
          -1 -1 0 -1 -1 0
          -1 -1 0 -1 -1 0
          -1 -1 0 -1 -1 0
          -1 -1 0 1 1 0
          1 1 0 -1 -1 0
          1 1 0 1 1 0
          -1 -1 0 -1 -1 0
          1 1 0 -1 -1 0
          -1 -1 0 -1 -1 0
          -1 -1 0 1 1 0
          -1 -1 0 -1 -1 0
          -1 -1 0 1 1 0
          -1 -1 0 1 1 0
          -1 -1 0 -1 -1 0
          -1 -1 0 -1 -1 0
          -1 -1 0 -1 -1 0
          -1 -1 0 1 1 0
          1 1 0 -1 -1 0
          1 1 0 -1 -1 0
          1 1 0 -1 -1 0
          -1 -1 0 -1 -1 0
          1 1 0 -1 -1 0
          -1 -1 0 -1 -1 0
          -1 -1 0 -1 -1 0
          1 1 0 1 1 0
          -1 -1 0 -1 -1 0
          -1 -1 0 -1 -1 0
          -1 -1 0 -1 -1 0
          1 1 0 -1 -1 0
          -1 -1 0 -1 -1 0
          1 1 0 -1 -1 0
          1 1 0 1 1 0
          -1 -1 0 -1 -1 0
          -1 -1 0 -1 -1 0
          -1 -1 0 1 1 0
          1 1 0 -1 -1 0
          -1 -1 0 -1 -1 0
          -1 -1 0 1 1 0
          -1 -1 0 1 1 0
          -1 -1 0 -1 -1 0
          1 1 0 -1 -1 0
          -1 -1 0 1 1 0
          -1 -1 0 -1 -1 0
          1 1 0 -1 -1 0
          1 1 0 -1 -1 0
          -1 -1 0 1 1 0
          -1 -1 0 -1 -1 0
          -1 -1 0 -1 -1 0
          -1 -1 0 1 1 0
          -1 -1 0 -1 -1 0
          -1 -1 0 -1 -1 0
          -1 -1 0 -1 -1 0
          1 1 0 -1 -1 0
          -1 -1 0 -1 -1 0
          -1 -1 0 -1 -1 0
          -1 -1 0 1 1 0
          -1 -1 0 -1 -1 0
          -1 -1 0 -1 -1 0
          1 1 0 -1 -1 0
          -1 -1 0 -1 -1 0
          -1 -1 0 -1 -1 0
          -1 -1 0 1 1 0
          -1 -1 0 -1 -1 0
          -1 -1 0 -1 -1 0
          -1 -1 0 -1 -1 0
          1 1 0 -1 -1 0
          -1 -1 0 -1 -1 0
          -1 -1 0 -1 -1 0
          -1 -1 0 -1 -1 0
          -1 -1 0 -1 -1 0
          1 1 0 -1 -1 0
          -1 -1 0 -1 -1 0
          -1 -1 0 -1 -1 0
          -1 -1 0 -1 -1 0
          1 1 0 -1 -1 0
          -1 -1 0 -1 -1 0
          -1 -1 0 -1 -1 0
          -1 -1 0 -1 -1 0
          -1 -1 0 -1 -1 0
          1 1 0 -1 -1 0
          -1 -1 0 -1 -1 0
          -1 -1 0 -1 -1 0
          -1 -1 0 -1 -1 0
          -1 -1 0 -1 -1 0
          1 1 0 -1 -1 0
          -1 -1 0 -1 -1 0
          1 1 0 -1 -1 0
          -1 -1 0 -1 -1 0
          -1 -1 0 -1 -1 0
          -1 -1 0 -1 -1 0
          1 1 0 -1 -1 0
          -1 -1 0 -1 -1 0
          -1 -1 0 -1 -1 0
          -1 -1 0 -1 -1 0
          1 1 0 -1 -1 0
          -1 -1 0 1 1 0
          <InformationKey name="L2_NORM_RANGE" location="vtkDataArray" length="2">
            <Value index="0">
              1.4142135624
            </Value>
            <Value index="1">
              1.4142135624
            </Value>
          </InformationKey>
        </DataArray>
        <DataArray type="Float64" Name="Velocity" NumberOfComponents="3" format="ascii" RangeMin="0" RangeMax="1.4146320070383938">
          0 0 0 0.3185126771957812 0.024340945553044325 0
          0.7323009481727158 0.10034497383465572 0 0.5147991401178553 0.03662901871736756 0
          0 0 0 1 0 0
          0.7174845946600401 0.02630281984617482 0 0.3693929630596514 0.021643881710503687 0
          0.6434895594046515 0.03785757866973006 0 0.31139618858880985 0.004839045360884728 0
          0.6664925387489467 0.02875663631473038 0 0.5614772709294359 0.03267570670380669 0
          0.7022618567527863 -0.09756626374297027 0 0.7198063309939277 0.0325952328206253 0
          0.6853419588963794 0.04691397866422294 0 0 0 0
          0.504652893457541 0.026615209848760722 0 0.7266573909474608 0.05974675663756842 0
          0.6053534219726722 -0.004625652428571271 0 0.6492658385086907 0.0430775478918274 0
          0.6598302768648167 0.05726432679920192 0 0.6873149237825897 0.06238126725176054 0
          0.42309476043117294 0.03642602050386848 0 0.3486615298110672 -0.028462844122684967 0
          0.7322820609586113 0.09793012264707704 0 0.6413543758776664 0.0799452649481619 0
          0.7417377674946819 0.11872543834867784 0 0.714287814776697 0.0988970061035827 0
          0.3201832857464943 0.012137475590353598 0 0.5701544974557775 0.04836340450379254 0
          0.44467170299985864 0.0033558167281016113 0 0.599978495987732 0.09039637925636412 0
          0 0 0 0.6205497717423772 0.08170332441400227 0
          0.7343423478528042 0.15645193841414262 0 0.7564460519099837 0.15520026330015865 0
          0 0 0 0.7771639066431645 0.19120326597662238 0
          0.6527722979399706 0.1375000045294957 0 0.3217158174005442 0.009817709458415206 0
          0.5641099228213119 0.08541150686429866 0 0.20062315832156116 0.0052763914806723345 0
          0 0 0 0.4651495951098917 0.05172029286146541 0
          0.7644618301117247 0.1835055738124618 0 0.7562867239522426 0.2258800310011603 0
          0.8262606156039184 0.2466378646100666 0 0.6782873090880644 0.20949603703792055 0
          0.516691655282258 0.09605222380871742 0 0.8113492581809149 0.2847570001855948 0
          0.30747489907087977 0.02560923489925534 0 0.46047356763814395 0.024770853295758857 0
          0.794207595820326 0.15369775204746683 0 0.8761023045521669 0.27651205994866435 0
          0.5546596083368971 0.16738065213098663 0 0.691155427607005 0.2917790771237806 0
          0.8694803170041209 0.34361732291742714 0 0.3480072220709386 0.048789498537103744 0
          0.7983805900323427 0.3717075389879464 0 0.5894872760316021 0.255149516951305 0
          0 0 0 0.9476520472263726 0.36496729080064316 0
          0.7057755329061103 0.37422746337982965 0 0.18445616698307749 0.011227472709922458 0
          0.983093306732721 0.23792563006657388 0 0.3701108575357338 0.09322668331663263 0
          0.4567914978797128 0.1914659628515831 0 0.8730525294565531 0.4249989601014309 0
          0.5912253172241082 0.3342145751023627 0 0 0 0
          0.747722488500643 0.10295452497595334 0 0.468308150982664 0.2685018769581083 0
          0.7422739159552295 0.4646789518469116 0 1.0530700250179625 0.35959873256979225 0
          0.9642993107833406 0.4638217595818011 0 0.32576953311780765 0.12649281718528432 0
          0.21346825714029796 0.036275456133405624 0 0.5663680211837832 0.4138103330904468 0
          0.8498401268899143 0.5138207343957834 0 1.116177318017608 0.2871285093501945 0
          0.4641176146631071 0.34381037972385436 0 0.726160360334862 0.5149678246480105 0
          0.3406760191703636 0.19073781978191856 0 0.2438882768248821 0.06476367803159455 0
          1.0349181430842458 0.1936946505274282 0 0.6074013095889665 0.49691333450247427 0
          0.9607607680363659 0.5238929686512056 0 0.3412473297361964 0.26153698229716466 0
          0 0 0 0.8331889408143915 0.08459257256149821 0
          1.1899792201060575 0.38328818895556094 0 0.7892782109359986 0.5650717174196567 0
          0.43784635804526745 0.42290484727515276 0 0.6407157540164293 0.5548917864376681 0
          1.2242294434829377 0.2766571342233931 0 0.2317155960745143 0.12078789710594248 0
          0.31269984900045283 0.30886371894233855 0 0.1221406679986643 0.016389937126136542 0
          0.24228821472647585 0.18539992762909255 0 0.47779057888057874 0.010979837018857628 0
          0.9323922761072323 0.564303821871816 0 0.42150655639201795 0.48002806234242196 0
          1.1474744195520792 0.47288614205363966 0 0.2445222841559568 0.24812430450345996 0
          0.6960546960492398 0.588029566904251 0 0.27846278523542917 0.348920915703093 0
          1.1691752608901604 0.14224694703839913 0 1.2940980506737088 0.33144973246592524 0
          0.14021437786786392 0.04433836643356657 0 0.5210647718298007 0.5594448538833007 0
          0.8054925041922416 0.5717870846393711 0 0.20130078935378506 0.26976103129450735 0
          0.3250187301286466 0.4566322114238804 0 1.0811389586965179 0.4860132638893827 0
          0.9184337556574006 0.028896795812175906 0 0.13553330273626618 0.07187648142084122 0
          0.5565863989550618 0.5587313815459346 0 0.21642933987197666 0.3494232372462917 0
          1.2704109108649917 0.35826223818575775 0 1.3479359828110926 0.19581306889510994 0
          0.14074809935069435 0.12500387916808467 0 0 0 0
          0.15199081914332807 0.19378656249988713 0 0.3263491339251278 0.4819713246962501 0
          1.3558463093528645 0.259630612068951 0 0.16734762388425448 0.2810160616415105 0
          0.059192270803783864 0.008282072370438827 0 0.6562688064518271 0.5077724766115707 0
          0.15531830136007624 0.32929762525455447 0 0.9877633170894522 0.42395975929485996 0
          0.3637503485125375 0.4563951059597515 0 0.10957634629342122 0.19777568850345315 0
          1.1804825936797845 0.340092251172687 0 0.07840117769626115 0.031209021915253425 0
          0.10197610556039526 0.1303358012303302 0 1.2503506874112646 0.05932634287559862 0
          1.3153604558758931 0.25586331158608927 0 0.1624914423779945 0.3437867148582318 0
          0.0836898658139586 0.19195200922266709 0 1.4023656660558574 0.15596787595011247 0
          0.4291387589987978 0.3585558634775352 0 0.08537403940631817 0.09544702959726914 0
          0.07382943683279854 0.24130360887551902 0 0.07054935556170866 0.04410069470108086 0
          0.7661671717371432 0.3085349809659146 0 0.07754769496139025 0.12891993722822342 0
          0.0677771005399051 0.20684391980113018 0 0.07085692603753464 0.20808370432072198 0
          0 0 0 0.08459355731333118 0.2170101498228933 0
          0.9960428224884336 0.25478049299574224 0 1.3998235195177025 0.08247604284621356 0
          1.1953711708725085 0.21203571232159552 0 0.041001831478618675 0.15501901552092487 0
          0.05865353833405805 0.057180837246335846 0 0.04677853623481947 0.12028125374394058 0
          0.9259318045889199 0.007463034660654496 0 0.03217877961751195 0.13777242847750923 0
          0.021606834070140166 0.12149530179959832 0 0 0 0
          0.053901578352886684 0.08543698280286212 0 0.4021738452939285 0.07074642159545962 0
          0 0 0 0.7075135918247437 0.11314560983185079 0
          0 0 0 0.01752229539731121 0.09217107466143108 0
          0.02903721779827486 0.10722064802230795 0 0.03873297364692227 0.013769683294512782 0
          1.3296713545585075 0.07234151293329036 0 0 0 0
          0.011064258490046792 0.06842784641025917 0 0.041017240836815905 0.0555435483315813 0
          0.9289148673842103 0.0768370334611018 0 0.03204849675094906 0.07476972682110625 0
          0 0 0 0.018532828884086517 0.07622395476471819 0
          0 0 0 1.4145583545237062 0.014435268776818794 0
          0.35484099758055193 0.028088801698225255 0 0.006617064591049961 0.05516754017934278 0
          1.1312079375733801 0.03167342191203355 0 0.017910350933077888 0.06665668677711083 0
          0.6748889167309781 0.04041490455838091 0 0.03147028842205237 0.02227376407314722 0
          0 0 0 0.006816501660315106 0.04292768449935908 0
          1.4062116816424426 -0.02274047124743024 0 0 0 0
          0 0 0 0.013446058942932005 0.04628029041739587 0
          0.02447557767258597 0.02586086078631014 0 0.004817731314497321 0.034336842094366014 0
          0.018614809097792638 0.039823619044745615 0 0.33586719796415054 0.00031319898134442715 0
          0.012468956276161935 0.0393887907130296 0 0 0 0
          1.2543285651293141 -0.0424964353661651 0 0.6600011651343878 -0.021567495303915895 0
          0.9415308335726215 -0.05229842013335064 0 0.004354514523359062 0.026354707180819458 0
          1.1539577148600493 -0.08942884972296113 0 0.01703761616848166 0.005773359637662252 0
          0 0 0 0 0 0
          0.01430932087333914 0.02301473876292276 0 0 0 0
          1.314505832787611 -0.10849667904175776 0 0.008036355073145277 0.025690591395901397 0
          0.003655423674529881 0.019960911786569276 0 0.3416370314260057 -0.025985244307109197 0
          0 0 0 1.3927777196121771 -0.11773138643547117 0
          0.007642282108066405 0.019786437759144626 0 0.6739990438983721 -0.11971557690677104 0
          0.011524204382195298 0.009859340772010722 0 0.0028707389016549996 0.014302884407933437 0
          0 0 0 0.9261359434636545 -0.16378040549305758 0
          0.004820226858906674 0.01508612176502574 0 1.3746120043593908 -0.11771959959972347 0
          0 0 0 0.0025045612993790005 0.010315989038633141 0
          1.1293410121526972 -0.1898428790103557 0 0 0 0
          0 0 0 0.38948984966944716 -0.16737411400615135 0
          0.006165521347551747 0.007958940340569085 0 0.004747831343029582 0.009791193878223596 0
          0.9451268042901387 -0.04583739279086485 0 0.0014830778047894336 0.0067664093277390895 0
          1.2798732171655502 -0.19841216123745173 0 1.2109578781186632 -0.09104126312276366 0
          0.006145963585765077 0.0020590069352259244 0 0 0 0
          0 0 0 0.6689567173159366 -0.23159657448040974 0
          0 0 0 0 0 0
          0.0008871217320079097 0.004661349560378171 0 0.04583092221851945 -0.07292193194250522 0
          0 0 0 0.002681011154023666 0.0054291652621500834 0
          1.3564778764828802 -0.199156419002804 0 0.8981742913796202 -0.2635526463648367 0
          0.0034437204525038295 0.0026106332931064313 0 0 0 0
          0.025804546785344957 -0.03224685831027173 0 0.001030292515956755 0.0026818970554153263 0
          0.0022740297561325527 0.0032499546858633815 0 0 0 0
          0.01482439090418502 -0.007180004789348568 0 0 0 0
          0.3082976084996821 -0.20575484544926592 0 1.3232747740846384 -0.17356920402083384 0
          0.0010443727348677283 0.0018374227493571458 0 1.0566585681095784 -0.2953488118904884 0
          0.006218698104674753 0.009825106694133025 0 0.0019243067369228305 0.0004706830426406122 0
          0.0007680140447486752 0.0014773174297315736 0 0 0 0
          0 0 0 0.10123515224087769 -0.10500140393739835 0
          0 0 0 0.0021191960397795606 0.015361480510973845 0
          0 0 0 1.226157588588499 -0.28660629949740474 0
          0.06381828630022605 -0.05610709684837744 0 0.001031572944366709 0.0007506660429740245 0
          0 0 0 0.00035301392420581214 0.0005154988555879178 0
          0.25626357806649847 -0.007598006911588434 0 0.5369794194105334 -0.27825774009666865 0
          0.00123831831734644 0.018576632470438614 0 1.1631327747442004 -0.14138788361792545 0
          0 0 0 0 0 0
          0.000989146721593609 0.019754026701088587 0 0.00020425937302521687 0.00016684465817275063 0
          0.2890460264865376 -0.20777784101250543 0 0.016751956947736426 -0.001779374684560945 0
          0.05171196313868212 -0.035631737831347564 0 0.7702042478978505 -0.32217897255918115 0
          0 0 0 1.2908251944823472 -0.2585461138809174 0
          0.13820933789209203 -0.1163147560400894 0 0.000049534475946329796 0.02081471189001493 0
          0 0 0 0.01017353941229319 0.01291417582004504 0
          0 0 0 0 0 0
          0.004401554163148367 0.022157404451220646 0 0.00010835423170205689 -0.00014718557113852586 0
          -0.0005924526071571268 0.02029775313904756 0 0.003863484090945362 0.026829423688401875 0
          0.7952050579869191 -0.09121152901657713 0 0 0 0
          0 0 0 0.4787660149228849 -0.2794923253647023 0
          -0.0004956022952531232 0.019536363088985445 0 0.9386987251544707 -0.3400475033985799 0
          1.2470275530289976 -0.22567650935307587 0 0 0 0
          0.03392660023550128 -0.010474279333771501 0 0 0 0
          0.3053244166256668 -0.21274737501705637 0 -0.00010509108782828928 0.031324162185647535 0
          0 0 0 -0.0008313950569595667 0.018248023030406627 0
          0.012766499102102574 0.022643257036802335 0 0 0 0
          -0.0006546848644195136 0.03238583280005822 0 0.15774058043360772 -0.11655882640512277 0
          0 0 0 -0.001154971954690169 0.01661560257289206 0
          0 0 0 -0.001822687337858038 0.029337734504785648 0
          0.6573855814616911 -0.32443183442181983 0 0 0 0
          -0.0014383610357245917 0.014244922536205106 0 -0.0025496577958206467 0.027460657468767066 0
          1.091801224121112 -0.16298877560606806 0 0.46676476283282403 -0.27416925309973655 0
          0.003373887470300504 0.033230050707555935 0 0 0 0
          -0.0016100070150277448 0.011709169563000202 0 1.2130916410129613 -0.30365035716204025 0
          0.05076819153916943 -0.018392538154182264 0 -0.004737254873352524 0.02644479117916264 0
          1.0423503336332391 -0.3627570955903744 0 0.2986755493982784 -0.20002136441549886 0
          0 0 0 -0.0014050622670319808 0.009294331669981087 0
          -0.004024223983464478 0.03555601758354517 0 0.13524016385651516 -0.09301017247105811 0
          -0.005186305930086 0.022499066344784588 0 0.028430623230415935 0.005226240200368856 0
          0.8172971037946531 -0.35715905552619515 0 0 0 0
          -0.0013638752116240872 0.006835294645847294 0 -0.004579501453747047 0.017300682420696507 0
          0.6255192530575773 -0.3141396653452496 0 0.712495641499887 -0.08190078477979876 0
          0 0 0 -0.0013474708108458377 0.004530299735706883 0
          -0.010307030657794425 0.02907685366352159 0 -0.005026036894661083 0.014245619732760718 0
          0.004600304053759344 0.025833202204741543 0 0.45293066914553964 -0.25825460464373146 0
          0.07393774571527706 -0.045333004930253294 0 0 0 0
          -0.0011728130302231649 0.0024080508227672143 0 1.1090844065447965 -0.3538940310424622 0
          -0.004753543923687459 0.010200501723825275 0 -0.010725375159378724 0.02240571006529801 0
          0.2971793616949663 -0.18990525950989437 0 1.1554802509666324 -0.29649885843099016 0
          0 0 0 0.9560801185082208 -0.3613633953884678 0
          -0.004377794436830274 0.006706520268120933 0 -0.00047999931746058315 0.0006077921656398659 0
          0.04272892157410002 -0.01219074647353572 0 -0.010471405135619446 0.015439567191981729 0
          0.1534537108264181 -0.1069753572601735 0 -0.0032209247810765164 0.0035124659879416514 0
          0.6737857813100094 -0.31809495607233085 0 -0.01158643052839106 0.02025974811279038 0
          0 0 0 1.0167235252254188 -0.20643116426375424 0
          0.32111852031814797 -0.01762831980951834 0 -0.008230201018588599 0.007339129669612032 0
          -0.01795843608653686 0.019053724839819885 0 -0.016294423899795688 0.01619867680276561 0
          0.10040862268283529 -0.06533755115015144 0 0.4263530457901248 -0.2473176277690889 0
          0 0 0 -0.0037514749852287253 0.0017190211335386995 0
          1.0457226958171546 -0.3242716931035942 0 0.0008791089862352393 -0.010352481796902575 0
          -0.01591617679312625 0.00898610231437503 0 -0.01824292284678323 0.005744398163060179 0
          0.8249109563309784 -0.3285470420434357 0 0.19993586967019122 -0.14115657008261348 0
          0.5590570755795377 -0.07357193776198558 0 -0.02219735088368092 0.009142819983482302 0
          0 0 0 -0.0095076711896065 0.002620156922811634 0
          0.5649657358894467 -0.2876848919649001 0 1.093044542217526 -0.27056220532897396 0
          0.0466529748562018 -0.05784301422097589 0 0.34450661920027537 -0.21908861670983515 0
          -0.004162058151645405 -0.020440509684093115 0 -0.020003728204650045 -0.0037016327153860116 0
          -0.016459845016180173 0.002096047976500069 0 0.9801059314920127 -0.3166528061356749 0
          0 0 0 -0.021067939164458812 0.002137613887839284 0
          0.7475871949274268 -0.33415126958728725 0 0.485448738749008 -0.2826076648968839 0
          0 0 0 0.13167669274796728 -0.12558055702294568 0
          0.0313973149462179 -0.06077410232119603 0 0.9730231551307313 -0.09629082749806216 0
          -0.003127891815211272 -0.028207712019877484 0 -0.015746827124925623 0.0006579794364266724 0
          -0.015476519774477913 -0.008609929507297219 0 0.27715959857871225 -0.22021999114793417 0
          0 0 0 0.995268689999506 -0.38203212400724706 0
          -0.01204377278716447 -0.00021140642101906336 0 0.10126209580056972 -0.13388223797971419 0
          0.028619370449163857 -0.05969293980901074 0 0.5641138283232903 -0.42044602672580517 0
          0.0016841161057476151 -0.017393622770022082 0 0.24566523213703614 -0.28724042513476516 0
          0 0 0 0.03181172861726904 -0.037023742505588625 0
          0.10141812065197287 -0.11354215620810082 0 0 0 0
          <InformationKey name="L2_NORM_RANGE" location="vtkDataArray" length="2">
            <Value index="0">
              0
            </Value>
            <Value index="1">
              1.414632007
            </Value>
          </InformationKey>
        </DataArray>
        <DataArray type="Float64" Name="Pressure" format="ascii" RangeMin="-8.404607891444341" RangeMax="36.907924592245244">
          36.24600769508794 36.404622270482264 36.73099541625309 36.181400825671744 35.99893156583839 36.77306328014342
          36.043449788159556 35.491700426609235 35.351436473593445 34.5870618201061 36.09510620171852 34.37386859330496
          36.907924592245244 35.30187578416963 34.383939539784066 33.58391981557478 33.43199983134891 34.4943322238636
          36.48282930800143 35.536928156404755 33.29710358927807 34.752617187825486 32.367324628911746 36.873934549261016
          33.49361478849304 32.20196491802444 32.31889286290298 33.92087943702824 31.440122860827262 34.92227623573702
          35.8996989009299 30.883869781393923 36.69395328372005 34.1918180965624 33.086377710295615 31.16477252282643
          30.357843261678347 31.57698030262112 33.54001583381191 35.18429112807951 29.50722926597855 35.59673491219928
          36.716005139344105 34.362144527118105 29.669315200330463 32.14966102080157 30.16012132783459 32.81936166644671
          33.869165109697235 30.78311372194427 34.48144296044052 27.551222462781215 27.87898438748224 28.525510830672975
          33.422946671260284 32.09144016973384 29.362302904489624 34.00164248599753 30.239277767573796 32.804493824090045
          34.71449334127245 27.53400533803127 31.192713591748653 34.09279136658451 25.86624661285441 33.77525314102669