<?xml version="1.0"?>
<VTKFile type="UnstructuredGrid" version="0.1" byte_order="LittleEndian" header_type="UInt32" compressor="vtkZLibDataCompressor">
  <UnstructuredGrid>
    <Piece NumberOfPoints="418" NumberOfCells="757">
      <PointData>
        <DataArray type="Float64" Name="nsi_BC" NumberOfComponents="3" format="ascii" RangeMin="0" RangeMax="1">
          0 0 0 0 0 0
          0 0 0 0 0 0
          0 0 0 1 0 0
          0 0 0 0 0 0
          0 0 0 0 0 0
          0 0 0 0 0 0
          0 0 0 0 0 0
          0 0 0 0 0 0
          0 0 0 0 0 0
          0 0 0 0 0 0
          0 0 0 0 0 0
          0 0 0 0 0 0
          0 0 0 0 0 0
          0 0 0 0 0 0
          0 0 0 0 0 0
          0 0 0 0 0 0
          0 0 0 0 0 0
          0 0 0 0 0 0
          0 0 0 0 0 0
          0 0 0 0 0 0
          0 0 0 0 0 0
          0 0 0 0 0 0
          0 0 0 0 0 0
          0 0 0 0 0 0
          0 0 0 0 0 0
          0 0 0 0 0 0
          0 0 0 0 0 0
          0 0 0 0 0 0
          0 0 0 0 0 0
          0 0 0 0 0 0
          0 0 0 0 0 0
          0 0 0 0 0 0
          0 0 0 0 0 0
          0 0 0 0 0 0
          0 0 0 0 0 0
          0 0 0 0 0 0
          0 0 0 0 0 0
          0 0 0 0 0 0
          0 0 0 0 0 0
          0 0 0 0 0 0
          0 0 0 0 0 0
          0 0 0 0 0 0
          0 0 0 0 0 0
          0 0 0 0 0 0
          0 0 0 0 0 0
          0 0 0 0 0 0
          0 0 0 0 0 0
          0 0 0 0 0 0
          0 0 0 0 0 0
          0 0 0 0 0 0
          0 0 0 0 0 0
          0 0 0 0 0 0
          0 0 0 0 0 0
          0 0 0 0 0 0
          0 0 0 0 0 0
          0 0 0 0 0 0
          0 0 0 0 0 0
          0 0 0 0 0 0
          0 0 0 0 0 0
          0 0 0 0 0 0
          0 0 0 0 0 0
          0 0 0 0 0 0
          0 0 0 0 0 0
          0 0 0 0 0 0
          0 0 0 0 0 0
          0 0 0 0 0 0
          0 0 0 0 0 0
          0 0 0 0 0 0
          0 0 0 0 0 0
          0 0 0 0 0 0
          0 0 0 0 0 0
          0 0 0 0 0 0
          0 0 0 0 0 0
          0 0 0 0 0 0
          0 0 0 0 0 0
          0 0 0 0 0 0
          0 0 0 0 0 0
          0 0 0 0 0 0
          0 0 0 0 0 0
          0 0 0 0 0 0
          0 0 0 0 0 0
          0 0 0 0 0 0
          0 0 0 0 0 0
          0 0 0 0 0 0
          0 0 0 0 0 0
          0 0 0 0 0 0
          0 0 0 0 0 0
          0 0 0 0 0 0
          0 0 0 0 0 0
          0 0 0 0 0 0
          0 0 0 0 0 0
          0 0 0 0 0 0
          0 0 0 0 0 0
          0 0 0 0 0 0
          0 0 0 0 0 0
          0 0 0 0 0 0
          0 0 0 0 0 0
          0 0 0 0 0 0
          0 0 0 0 0 0
          0 0 0 0 0 0
          0 0 0 0 0 0
          0 0 0 0 0 0
          0 0 0 0 0 0
          0 0 0 0 0 0
          0 0 0 0 0 0
          0 0 0 0 0 0
          0 0 0 0 0 0
          0 0 0 0 0 0
          0 0 0 0 0 0
          0 0 0 0 0 0
          0 0 0 0 0 0
          0 0 0 0 0 0
          0 0 0 0 0 0
          0 0 0 0 0 0
          0 0 0 0 0 0
          0 0 0 0 0 0
          0 0 0 0 0 0
          0 0 0 0 0 0
          0 0 0 0 0 0
          0 0 0 0 0 0
          0 0 0 0 0 0
          0 0 0 0 0 0
          0 0 0 0 0 0
          0 0 0 0 0 0
          0 0 0 0 0 0
          0 0 0 0 0 0
          0 0 0 0 0 0
          0 0 0 0 0 0
          0 0 0 0 0 0
          0 0 0 0 0 0
          0 0 0 0 0 0
          0 0 0 0 0 0
          0 0 0 0 0 0
          0 0 0 0 0 0
          0 0 0 0 0 0
          0 0 0 0 0 0
          0 0 0 0 0 0
          0 0 0 0 0 0
          0 0 0 0 0 0
          0 0 0 0 0 0
          0 0 0 0 0 0
          0 0 0 0 0 0
          0 0 0 0 0 0
          0 0 0 0 0 0
          0 0 0 0 0 0
          0 0 0 0 0 0
          0 0 0 0 0 0
          0 0 0 0 0 0
          0 0 0 0 0 0
          0 0 0 0 0 0
          0 0 0 0 0 0
          0 0 0 0 0 0
          0 0 0 0 0 0
          0 0 0 0 0 0
          0 0 0 0 0 0
          0 0 0 0 0 0
          0 0 0 0 0 0
          0 0 0 0 0 0
          0 0 0 0 0 0
          0 0 0 0 0 0
          0 0 0 0 0 0
          0 0 0 0 0 0
          0 0 0 0 0 0
          0 0 0 0 0 0
          0 0 0 0 0 0
          0 0 0 0 0 0
          0 0 0 0 0 0
          0 0 0 0 0 0
          0 0 0 0 0 0
          0 0 0 0 0 0
          0 0 0 0 0 0
          0 0 0 0 0 0
          0 0 0 0 0 0
          0 0 0 0 0 0
          0 0 0 0 0 0
          0 0 0 0 0 0
          0 0 0 0 0 0
          0 0 0 0 0 0
          0 0 0 0 0 0
          0 0 0 0 0 0
          0 0 0 0 0 0
          0 0 0 0 0 0
          0 0 0 0 0 0
          0 0 0 0 0 0
          0 0 0 0 0 0
          0 0 0 0 0 0
          0 0 0 0 0 0
          0 0 0 0 0 0
          0 0 0 0 0 0
          0 0 0 0 0 0
          0 0 0 0 0 0
          0 0 0 0 0 0
          0 0 0 0 0 0
          0 0 0 0 0 0
          0 0 0 0 0 0
          0 0 0 0 0 0
          0 0 0 0 0 0
          0 0 0 0 0 0
          0 0 0 0 0 0
          0 0 0 0 0 0
          0 0 0 0 0 0
          0 0 0 0 0 0
          0 0 0 0 0 0
          0 0 0 0 0 0
          0 0 0 0 0 0
          0 0 0 0 0 0
          0 0 0 0 0 0
          0 0 0 0 0 0
          0 0 0 0 0 0
          <InformationKey name="L2_NORM_RANGE" location="vtkDataArray" length="2">
            <Value index="0">
              0
            </Value>
            <Value index="1">
              1
            </Value>
          </InformationKey>
        </DataArray>
        <DataArray type="Float64" Name="nsi_FIXNO" NumberOfComponents="3" format="ascii" RangeMin="1.4142135623730951" RangeMax="1.4142135623730951">
          1 1 0 -1 -1 0
          -1 -1 0 -1 -1 0
          1 1 0 1 1 0
          -1 -1 0 -1 -1 0
          -1 -1 0 -1 -1 0
          -1 -1 0 -1 -1 0
          -1 -1 0 -1 -1 0
          -1 -1 0 1 1 0
          -1 -1 0 -1 -1 0
          -1 -1 0 -1 -1 0
          -1 -1 0 -1 -1 0
          -1 -1 0 -1 -1 0
          -1 -1 0 -1 -1 0
          -1 -1 0 -1 -1 0
          -1 -1 0 -1 -1 0
          -1 -1 0 -1 -1 0
          1 1 0 -1 -1 0
          -1 -1 0 -1 -1 0
          1 1 0 -1 -1 0
          -1 -1 0 -1 -1 0
          -1 -1 0 -1 -1 0
          1 1 0 -1 -1 0
          -1 -1 0 -1 -1 0
          -1 -1 0 -1 -1 0
          -1 -1 0 -1 -1 0
          -1 -1 0 -1 -1 0
          -1 -1 0 -1 -1 0
          -1 -1 0 -1 -1 0
          -1 -1 0 -1 -1 0
          -1 -1 0 -1 -1 0
          1 1 0 -1 -1 0
          -1 -1 0 -1 -1 0
          -1 -1 0 -1 -1 0
          -1 -1 0 -1 -1 0
          -1 -1 0 1 1 0
          -1 -1 0 -1 -1 0
          -1 -1 0 -1 -1 0
          -1 -1 0 -1 -1 0
          -1 -1 0 -1 -1 0
          -1 -1 0 -1 -1 0
          -1 -1 0 -1 -1 0
          -1 -1 0 -1 -1 0
          -1 -1 0 -1 -1 0
          -1 -1 0 -1 -1 0
          1 1 0 -1 -1 0
          -1 -1 0 -1 -1 0
          -1 -1 0 -1 -1 0
          -1 -1 0 -1 -1 0
          -1 -1 0 -1 -1 0
          -1 -1 0 -1 -1 0
          -1 -1 0 -1 -1 0
          -1 -1 0 -1 -1 0
          -1 -1 0 -1 -1 0
          -1 -1 0 -1 -1 0
          -1 -1 0 -1 -1 0
          -1 -1 0 -1 -1 0
          -1 -1 0 -1 -1 0
          -1 -1 0 -1 -1 0
          -1 -1 0 -1 -1 0
          -1 -1 0 -1 -1 0
          -1 -1 0 1 1 0
          -1 -1 0 -1 -1 0
          -1 -1 0 -1 -1 0
          -1 -1 0 -1 -1 0
          -1 -1 0 -1 -1 0
          -1 -1 0 -1 -1 0
          -1 -1 0 -1 -1 0
          -1 -1 0 -1 -1 0
          -1 -1 0 -1 -1 0
          -1 -1 0 -1 -1 0
          -1 -1 0 -1 -1 0
          -1 -1 0 -1 -1 0
          -1 -1 0 -1 -1 0
          -1 -1 0 -1 -1 0
          1 1 0 -1 -1 0
          -1 -1 0 -1 -1 0
          -1 -1 0 -1 -1 0
          -1 -1 0 -1 -1 0
          -1 -1 0 -1 -1 0
          -1 -1 0 1 1 0
          -1 -1 0 -1 -1 0
          1 1 0 -1 -1 0
          1 1 0 -1 -1 0
          -1 -1 0 -1 -1 0
          -1 -1 0 1 1 0
          -1 -1 0 -1 -1 0
          -1 -1 0 -1 -1 0
          1 1 0 -1 -1 0
          1 1 0 -1 -1 0
          -1 -1 0 -1 -1 0
          -1 -1 0 -1 -1 0
          -1 -1 0 -1 -1 0
          1 1 0 -1 -1 0
          -1 -1 0 1 1 0
          1 1 0 -1 -1 0
          -1 -1 0 -1 -1 0
          -1 -1 0 -1 -1 0
          -1 -1 0 1 1 0
          -1 -1 0 -1 -1 0
          -1 -1 0 -1 -1 0
          -1 -1 0 -1 -1 0
          1 1 0 1 1 0
          -1 -1 0 1 1 0
          -1 -1 0 -1 -1 0
          -1 -1 0 -1 -1 0
          1 1 0 -1 -1 0
          -1 -1 0 -1 -1 0
          -1 -1 0 -1 -1 0
          1 1 0 -1 -1 0
          -1 -1 0 -1 -1 0
          1 1 0 -1 -1 0
          -1 -1 0 1 1 0
          1 1 0 -1 -1 0
          -1 -1 0 -1 -1 0
          -1 -1 0 -1 -1 0
          -1 -1 0 -1 -1 0
          -1 -1 0 1 1 0
          1 1 0 -1 -1 0
          1 1 0 1 1 0
          -1 -1 0 -1 -1 0
          1 1 0 -1 -1 0
          -1 -1 0 -1 -1 0
          -1 -1 0 1 1 0
          -1 -1 0 -1 -1 0
          -1 -1 0 1 1 0
          -1 -1 0 1 1 0
          -1 -1 0 -1 -1 0
          -1 -1 0 -1 -1 0
          -1 -1 0 -1 -1 0
          -1 -1 0 1 1 0
          1 1 0 -1 -1 0
          1 1 0 -1 -1 0
          1 1 0 -1 -1 0
          -1 -1 0 -1 -1 0
          1 1 0 -1 -1 0
          -1 -1 0 -1 -1 0
          -1 -1 0 -1 -1 0
          1 1 0 1 1 0
          -1 -1 0 -1 -1 0
          -1 -1 0 -1 -1 0
          -1 -1 0 -1 -1 0
          1 1 0 -1 -1 0
          -1 -1 0 -1 -1 0
          1 1 0 -1 -1 0
          1 1 0 1 1 0
          -1 -1 0 -1 -1 0
          -1 -1 0 -1 -1 0
          -1 -1 0 1 1 0
          1 1 0 -1 -1 0
          -1 -1 0 -1 -1 0
          -1 -1 0 1 1 0
          -1 -1 0 1 1 0
          -1 -1 0 -1 -1 0
          1 1 0 -1 -1 0
          -1 -1 0 1 1 0
          -1 -1 0 -1 -1 0
          1 1 0 -1 -1 0
          1 1 0 -1 -1 0
          -1 -1 0 1 1 0
          -1 -1 0 -1 -1 0
          -1 -1 0 -1 -1 0
          -1 -1 0 1 1 0
          -1 -1 0 -1 -1 0
          -1 -1 0 -1 -1 0
          -1 -1 0 -1 -1 0
          1 1 0 -1 -1 0
          -1 -1 0 -1 -1 0
          -1 -1 0 -1 -1 0
          -1 -1 0 1 1 0
          -1 -1 0 -1 -1 0
          -1 -1 0 -1 -1 0
          1 1 0 -1 -1 0
          -1 -1 0 -1 -1 0
          -1 -1 0 -1 -1 0
          -1 -1 0 1 1 0
          -1 -1 0 -1 -1 0
          -1 -1 0 -1 -1 0
          -1 -1 0 -1 -1 0
          1 1 0 -1 -1 0
          -1 -1 0 -1 -1 0
          -1 -1 0 -1 -1 0
          -1 -1 0 -1 -1 0
          -1 -1 0 -1 -1 0
          1 1 0 -1 -1 0
          -1 -1 0 -1 -1 0
          -1 -1 0 -1 -1 0
          -1 -1 0 -1 -1 0
          1 1 0 -1 -1 0
          -1 -1 0 -1 -1 0
          -1 -1 0 -1 -1 0
          -1 -1 0 -1 -1 0
          -1 -1 0 -1 -1 0
          1 1 0 -1 -1 0
          -1 -1 0 -1 -1 0
          -1 -1 0 -1 -1 0
          -1 -1 0 -1 -1 0
          -1 -1 0 -1 -1 0
          1 1 0 -1 -1 0
          -1 -1 0 -1 -1 0
          1 1 0 -1 -1 0
          -1 -1 0 -1 -1 0
          -1 -1 0 -1 -1 0
          -1 -1 0 -1 -1 0
          1 1 0 -1 -1 0
          -1 -1 0 -1 -1 0
          -1 -1 0 -1 -1 0
          -1 -1 0 -1 -1 0
          1 1 0 -1 -1 0
          -1 -1 0 1 1 0
          <InformationKey name="L2_NORM_RANGE" location="vtkDataArray" length="2">
            <Value index="0">
              1.4142135624
            </Value>
            <Value index="1">
              1.4142135624
            </Value>
          </InformationKey>
        </DataArray>
        <DataArray type="Float64" Name="Velocity" NumberOfComponents="3" format="ascii" RangeMin="0" RangeMax="1.363056505812162">
          0 0 0 0.33380549384962954 0.04230242834760967 0
          0.7129081079873839 0.14571072584237182 0 0.5415148701428177 0.0716593157947784 0
          0 0 0 1 0 0
          0.6619914322156328 0.04878250881999118 0 0.42144281774291004 0.04140822655274796 0
          0.6156214668124002 0.0544086767225352 0 0.3867553954642502 0.0022458008073547283 0
          0.5996592818827825 0.012145114861086553 0 0.5807495502440194 0.042618341408975254 0
          0.683722655594145 -0.11961573456613579 0 0.6119340441072098 0.032768626112296306 0
          0.6143222601402518 0.051678729064644456 0 0 0 0
          0.5845061059232086 0.0169285443531707 0 0.6122046120396106 0.05750097830402904 0
          0.6045206935066723 -0.032456721473034224 0 0.5854923223375007 0.02607378723490861 0
          0.6364521309421941 0.05149329523668506 0 0.5886572965254575 0.053206313158967726 0
          0.498390801412968 0.03839281588820543 0 0.34617685539293025 -0.04206174258261324 0
          0.6282733665899649 0.0855226505777294 0 0.6666895243132928 0.0684584799482025 0
          0.6751628725441862 0.10185793219275116 0 0.5941847684060386 0.08540614217738618 0
          0.39222790829382187 0.005442877813438509 0 0.5450909925137772 0.03902411594707194 0
          0.48103858969581353 -0.017511234409440777 0 0.6555235930297287 0.08013927348736839 0
          0 0 0 0.5544361106553282 0.07029269739951369 0
          0.6090118810685996 0.13567513546644983 0 0.7219972626685642 0.12902570578003414 0
          0 0 0 0.6879486078033458 0.16161788135881092 0
          0.5589972528780105 0.12313125929378002 0 0.3986304716894237 0.011007247313648666 0
          0.6414258089414517 0.07412900653530884 0 0.253464013719811 0.01139009667555883 0
          0 0 0 0.48862446893482153 0.043058728262050046 0
          0.7581911514102316 0.15333902351729597 0 0.6387539289870682 0.19132297405863463 0
          0.7498170748391715 0.20371784228776932 0 0.5728013044013832 0.185412445608822 0
          0.49959056795337525 0.09080744306096036 0 0.7030675492217371 0.2386374092249589 0
          0.38768067234243725 0.021017119004067095 0 0.5242486110431167 0.016267710999963336 0
          0.8128773692883038 0.1227699361677769 0 0.8165022732563059 0.2265246003528613 0
          0.5031140780238803 0.15802066404589438 0 0.5890954214717817 0.26093136478999995 0
          0.7704865625070519 0.28830228892714305 0 0.4164116703359727 0.050026875279604865 0
          0.696097587248143 0.3225470386190786 0 0.518928083849174 0.2385344756808183 0
          0 0 0 0.860075338569398 0.3076975508533891 0
          0.6161255747847139 0.3427758226383373 0 0.2561174301043072 0.013349105021794401 0
          0.9502629393689794 0.1882391186367809 0 0.41446505966643704 0.09914992423944892 0
          0.44031238311363063 0.19332860698018145 0 0.7785296593950982 0.37599739978826097 0
          0.5237517647178058 0.31979239958409206 0 0 0 0
          0.7887567752739622 0.07672155567368251 0 0.43805996495356925 0.27170154204368957 0
          0.6630464448916825 0.4351011942750799 0 0.9783791182245511 0.3039434655964787 0
          0.8795861901940575 0.4143218067489635 0 0.36685379351984687 0.14029364051072207 0
          0.30191410139920344 0.04056796971878573 0 0.5145530681002826 0.41324347668433437 0
          0.7761566845989408 0.4831546638106812 0 1.0578966849573708 0.23707334886958575 0
          0.433122406105298 0.35710211025876004 0 0.6689457018343248 0.5053952435831747 0
          0.35639343011875724 0.2103648852914601 0 0.3190106602958676 0.07919200882945135 0
          1.014136639190587 0.15682385366207566 0 0.5632236070187028 0.5077879644203926 0
          0.9014725974847277 0.4988622465499652 0 0.34153977776649297 0.2901092682242715 0
          0 0 0 0.8591993950190526 0.07170454750428303 0
          1.117500222027744 0.3340463238752501 0 0.7495637354498965 0.5693202756504653 0
          0.41665342414229684 0.4593460131557831 0 0.6137891587215033 0.5812607626313899 0
          1.1598636910377556 0.22794163546354593 0 0.2869337598252265 0.1478024794875536 0
          0.3107294130556396 0.3562229811281049 0 0.1963193863857632 0.02373438861468899 0
          0.2743478604459442 0.2257873010615489 0 0.49472311176026285 0.006272149824596239 0
          0.9146320865176144 0.5718574236239168 0 0.40890484046780584 0.5368863159103491 0
          1.1045960075213594 0.4455298230089102 0 0.25873309694504704 0.30245658354170224 0
          0.690519333415052 0.6285925829290063 0 0.2783524217964853 0.4149099644925546 0
          1.1264954967085528 0.10766019624909318 0 1.2305199423620314 0.2854454479226017 0
          0.21869237880036252 0.06104904347256775 0 0.5189491060996718 0.6208096520424539 0
          0.8224061981429471 0.6123522308126581 0 0.21137988064032004 0.34272178304934475 0
          0.32507254432792604 0.5338105977207036 0 1.08910613434253 0.4888472564088126 0
          0.9249273209012042 0.01099328486150333 0 0.20391353632646317 0.1001229295751018 0
          0.5751413693663239 0.6264760837034986 0 0.22033780461511493 0.4331896911810085 0
          1.246943710737121 0.33186794751409754 0 1.2768261270512131 0.15484412291756375 0
          0.185335114556841 0.17705346987526105 0 0 0 0
          0.17369054826811584 0.26578617334620974 0 0.3346477634283134 0.5633421498125486 0
          1.298952376188576 0.2226898592493971 0 0.1743613836617016 0.36586686300343657 0
          0.10588184355870588 0.013737495545294997 0 0.698499546235367 0.565783127909436 0
          0.1591967763473319 0.4130171346278977 0 1.037455122613393 0.44476732688730836 0
          0.3880984886333416 0.5301748295167138 0 0.123000235866392 0.2818612156479123 0
          1.210670897692224 0.3342168843072969 0 0.14368654784752194 0.047594939133458386 0
          0.13454954540418 0.1956416787978515 0 1.1961760164057267 0.03241710054059196 0
          1.3052739250490129 0.22893548438843622 0 0.16936199716724074 0.41672288192019546 0
          0.09184486513121183 0.2754172912871056 0 1.3509988043087404 0.11329667387975965 0
          0.4710046713879674 0.4082779404792152 0 0.12189622920660308 0.15228320067405507 0
          0.0767348869771503 0.3090846203071151 0 0.1290649183828833 0.0708987528674117 0
          0.8352517795314688 0.33575423455355696 0 0.09768294332710538 0.20531216093093135 0
          0.07237417036719586 0.2866096453838457 0 0.07624237408865071 0.27854925695722865 0
          0 0 0 0.09047475481402803 0.2606111092408305 0
          1.0662589389427972 0.2584482708754136 0 1.322133853112671 0.043074554656077756 0
          1.240346404552449 0.19336148611765336 0 0.043515137261706804 0.1971276618589168 0
          0.10245676331566106 0.10038407031035848 0 0.0561976032343164 0.19602214738712917 0
          0.9209971809815356 0.0011474038432058955 0 0.03422466500638564 0.20421857749592767 0
          0.022921515853039847 0.16252284387900057 0 0 0 0
          0.07795197179611396 0.1507553132058807 0 0.44830361793872014 0.07570494013283383 0
          0 0 0 0.7833359648191607 0.11336951281831084 0
          0 0 0 0.01885675284958622 0.1309488921498942 0
          0.033900273937575505 0.17052674329971593 0 0.08223293093144991 0.02373571337197775 0
          1.3394669893148936 0.02817735884819177 0 0 0 0
          0.012225067650099446 0.10534821515888394 0 0.07002129955726934 0.10808543532693991 0
          1.0139291296946076 0.05799998622715409 0 0.043638420135792375 0.13977551067440902 0
          0 0 0 0.02264550976038002 0.1315470118006988 0
          0 0 0 1.3627581088601783 -0.028519726027624898 0
          0.40172472082660465 0.027286790286668652 0 0.007467781999551284 0.09079186631547215 0
          1.1952594685570195 -0.00856545018210498 0 0.02302835520608835 0.12224198469385958 0
          0.7574467739664024 0.029681406890575458 0 0.07064238501972368 0.04318598724736934 0
          0 0 0 0.008428938932438738 0.0761300295851535 0
          1.3161861371844237 -0.05449700061822665 0 0 0 0
          0 0 0 0.01860643273730879 0.09342476235274953 0
          0.0543519882114255 0.05667968421297588 0 0.006011125806897715 0.06530102867120037 0
          0.03212278049841934 0.08969878404895706 0 0.3870409900446749 -0.005514783878173246 0
          0.018517407752044576 0.08565181923866119 0 0 0 0
          1.1809975778571524 -0.05749124342468406 0 0.7522859346176544 -0.04579611892053942 0
          1.0396178617194336 -0.10018119000106145 0 0.006006925569955592 0.054762431371870535 0
          1.2121549407741852 -0.15338349728896186 0 0.0428278110429787 0.01243207221225019 0
          0 0 0 0 0 0
          0.03050846353482443 0.05917178750158055 0 0 0 0
          1.3064092771699254 -0.1690061608213627 0 0.013907216147118102 0.06249337349700342 0
          0.005229966510138357 0.045663128138273355 0 0.40123700762172865 -0.040692986983879555 0
          0 0 0 1.3208478907163042 -0.164189376942251 0
          0.014047367790655981 0.05241209162609976 0 0.7804123048909672 -0.18441700481846104 0
          0.03305620070675365 0.024242249682471777 0 0.004709230348795722 0.0370092069132308 0
          0 0 0 1.02212486998592 -0.2501525841930728 0
          0.011348050560199783 0.044085768981235486 0 1.2694247651007828 -0.14439272859839222 0
          0 0 0 0.004575005535710742 0.029873998459083086 0
          1.1740954300064543 -0.27545583757491077 0 0 0 0
          0 0 0 0.4720555897620547 -0.2546674784710712 0
          0.018237309683758328 0.02686381295496484 0 0.011497079822762596 0.03258411731021535 0
          0.9200794230522191 -0.054102113803565874 0 0.003304797441051822 0.022994961266593922 0
          1.2542394405933115 -0.2659969593768923 0 1.1317557496962616 -0.10404521465802793 0
          0.018744565585421712 0.006057086424647411 0 0 0 0
          0 0 0 0.7694980659177622 -0.3512716693028114 0
          0 0 0 0 0 0
          0.002534662320788748 0.01772642481556775 0 0.060516058407117046 -0.15541889949081794 0
          0 0 0 0.008116420140756267 0.020876946253364868 0
          1.2669188704117678 -0.24029365756055102 0 0.9725396186171973 -0.38341577514058206 0
          0.013187579354056268 0.009918793469969513 0 0 0 0
          0.03322356596717137 -0.10494794525973088 0 0.0028242929630779763 0.012520798026077005 0
          0.007432289079546546 0.014297044604043444 0 0 0 0
          0.019009766256457346 -0.07252043962040289 0 0 0 0
          0.3742236252674295 -0.3575954710688203 0 1.2068125623877681 -0.18992176857157017 0
          0.005165185365267773 0.009205912653971431 0 1.073655782757903 -0.4001060177125853 0
          0.00894195254797527 -0.04973970338823314 0 0.007153758619710986 0.0026233628077199926 0
          0.002557988703195436 0.0084768459967236 0 0 0 0
          0 0 0 0.12533181386377137 -0.24579286715140702 0
          0 0 0 0.003750663230724434 -0.040906241104792754 0
          0 0 0 1.166938412181 -0.3492809362268577 0
          0.08099418523789653 -0.18811147539124454 0 0.004810580061895706 0.004456398751899071 0
          0 0 0 0.001611306276674283 0.0048589600528733705 0
          0.25810962245055663 -0.007301219695156764 0 0.6094556473048791 -0.45035773140805846 0
          0.0034714170622357223 -0.03388450581501036 0 1.0808662403749432 -0.14363656742922562 0
          0 0 0 0 0 0
          0.003421041748246163 -0.0290204093780735 0 0.0013220027341222427 0.0025181394219318245 0
          0.34073817166026554 -0.3916984918669297 0 0.02361116583486325 -0.11773644179228263 0
          0.06675364834410864 -0.18093479709956964 0 0.8145858765470372 -0.4730703640038767 0
          0 0 0 1.1776085021831766 -0.27995904649096154 0
          0.16574529368578292 -0.29060753300341047 0 0.0024524640634439616 -0.023750811998043988 0
          0 0 0 0.01829969454948112 -0.09567723645684409 0
          0 0 0 0 0 0
          0.011480698075847713 -0.06881684061561816 0 0.0006544351144370116 0.00024708906708537895 0
          0.001856112928816043 -0.01983162677968595 0 0.012154093143032882 -0.05930300451474059 0
          0.7780533860083694 -0.08827655287929298 0 0 0 0
          0 0 0 0.5291590136816884 -0.46596923202812324 0
          0.002378169748373344 -0.01566858118530082 0 0.9224910993893081 -0.4448244869473177 0
          1.1220951978860225 -0.22017528543008652 0 0 0 0
          0.05178270662634707 -0.16661023162603542 0 0 0 0
          0.3468629342097288 -0.41028938765538997 0 0.009341688353941361 -0.05341225476068841 0
          0 0 0 0.0021533591793723612 -0.012294120832259982 0
          0.030243027684766468 -0.10734411847666325 0 0 0 0
          0.009908438466048997 -0.043004272832822356 0 0.18914177433434345 -0.3092607763000832 0
          0 0 0 0.00142813032942239 -0.009332097888167528 0
          0 0 0 0.007318184993922692 -0.030960827504383476 0
          0.6710604566433948 -0.4737657914343789 0 0 0 0
          0.0010979061898343326 -0.007021238817758434 0 0.006438322440469246 -0.02457945314353759 0
          1.0155778826280022 -0.14706921765421252 0 0.4959607958867961 -0.4488980648807433 0
          0.027880342619235828 -0.08145698606861806 0 0 0 0
          0.0016040148616737815 -0.0044375367617971164 0 1.0744102864742597 -0.2995665877453634 0
          0.08402446878622642 -0.18425416148870194 0 0.005276728338834303 -0.02141595407755419 0
          0.9492174442163882 -0.4058239266212764 0 0.3322204566019118 -0.3876384630879561 0
          0 0 0 0.0011462387828246113 -0.0021397966698560064 0
          0.017668321930270844 -0.051419581322768276 0 0.17615016160642746 -0.28127816305468606 0
          0.0059506740406538 -0.015350690659233581 0 0.06857780054974828 -0.14400876431847484 0
          0.7717207503844002 -0.44433419630497734 0 0 0 0
          0.0005905838881762012 -0.0006279576015787558 0 0.005047580742360348 -0.009031484213237009 0
          0.6151593694160876 -0.4321447200702065 0 0.7022418148216776 -0.06716898153139038 0
          0 0 0 0.00046100667651816524 0.00030488898172882655 0
          0.01613558074308225 -0.03145679593507569 0 0.0035176248779193835 -0.00579945504718194 0
          0.050048218794065666 -0.0956981404297638 0 0.46742519650289505 -0.40128992415521825 0
          0.1283761108620764 -0.20873369207756995 0 0 0 0
          0.000011191843892646057 0.0006945989663812661 0 0.9670373931960531 -0.33587815579651775 0
          0.0024042334480969016 -0.0027181998916953466 0 0.013176890777575419 -0.018908482038889552 0
          0.33397042051860826 -0.34480358967402647 0 1.0108395405581683 -0.256029184468734 0
          0 0 0 0.8473886221004799 -0.3728176177275352 0
          0.001330140514606951 -0.0011919473803455951 0 -0.00019057031895699077 0.00044500301616199933 0
          0.10871348266761181 -0.14971854400296095 0 0.008295102037502248 -0.01010644412386596 0
          0.2134284592663779 -0.2564800541273989 0 0.00012620379721922724 -0.0001414360477603018 0
          0.6329269506469675 -0.3833716012179934 0 0.05032653823436083 -0.07364843082460003 0
          0 0 0 0.9516067582187392 -0.17785061150631648 0
          0.3353680445516632 -0.02222557200496911 0 0.0029839354713477578 -0.003040832604147393 0
          0.03444726592065021 -0.04340728140126391 0 0.022218160560159187 -0.02437574886747634 0
          0.17839985565504032 -0.19530896607039777 0 0.4404868593827432 -0.3309886728853366 0
          0 0 0 0.0004300490691775981 -0.0003362706932749812 0
          0.8934147646426943 -0.2691603153660876 0 0.0925844210562714 -0.10796950244591341 0
          0.011762972253282312 -0.009708428161338042 0 0.06361678255360123 -0.06394214966757716 0
          0.721634801890441 -0.30296955943185633 0 0.273710513578917 -0.23405370617968002 0
          0.5649816639254455 -0.08880451497307855 0 0.04314486376287939 -0.034988607522678815 0
          0 0 0 0.003939799519116595 -0.002200414873509957 0
          0.5371036780740082 -0.2836474757766187 0 0.9457595848007262 -0.18707603577964882 0
          0.16014062826004827 -0.1302600632228738 0 0.38839850533216497 -0.24406297580882746 0
          0.10791617542032304 -0.08130329136734339 0 0.07380104437810103 -0.044731197211882956 0
          0.012972822726878216 -0.003920109811223364 0 0.8236382682262752 -0.22960670437252537 0
          0 0 0 0.04228110651300297 -0.020398313413857696 0
          0.654249750361273 -0.24586597475610086 0 0.4847945513879946 -0.2274774721894711 0
          0 0 0 0.2485577021975454 -0.142594286359287 0
          0.16465199387463622 -0.09042145386122476 0 0.9773375593951896 -0.10282859712846669 0
          0.11694155572818726 -0.051428912745929894 0 0.021829662255369534 -0.007861510393142984 0
          0.06937359313423697 -0.024184128198270868 0 0.3568584660812263 -0.1733929353385432 0
          0 0 0 0.8307198632280739 -0.26648236252337004 0
          0.03382881415376744 -0.003300904120609069 0 0.23537465931134222 -0.11034671801357286 0
          0.1627693264781628 -0.054895752328672553 0 0.5382734482569832 -0.26638578339716934 0
          0.0694453779491824 -0.012060771254156506 0 0.3380524159970999 -0.18520872885857212 0
          0 0 0 0.13116393216891173 -0.026548808199105964 0
          0.2180061074901968 -0.08590541696826487 0 0 0 0
          <InformationKey name="L2_NORM_RANGE" location="vtkDataArray" length="2">
            <Value index="0">
              0
            </Value>
            <Value index="1">
              1.3630565058
            </Value>
          </InformationKey>
        </DataArray>
        <DataArray type="Float64" Name="Pressure" format="ascii" RangeMin="-9.228217679405612" RangeMax="56.899837202880704">
          56.61281004679843 55.21074049279184 55.981947920158966 54.04700933954081 53.1826236910292 56.899837202880704
          53.70330816387694 51.72187257558216 51.425005611004906 49.332815703653395 53.92344030856866 48.788836696363276
          56.2035374969008 51.03986859470415 48.69671531416723 46.68333106044885 46.58822051233811 48.807746372285315
          53.93952384221313 51.40561848430115 46.33190019896438 49.06284887799598 44.12780827468862 55.53908694041527
          46.41917837568735 43.906020207176304 44.12663670932394 46.952256266471814 42.20590072218651 49.17759677159924
          51.56797992410156 41.30201478530398 56.68625831197732 47.24454447416194 45.0195187868319 41.87646939830514
          39.99461457821101 42.44049790767822 45.58105204807209 49.43615796924334 38.908771050373716 50.77685016715849
          54.248407534220966 47.367890955411475 39.36704325351449 43.141682890516385 40.18571605003255 44.015229875963186
          45.970940268987974 40.95379751420677 47.48461810262534 35.6786988309605 36.53059743206517 37.76072727809899
          44.761317944496014 42.61439776019682 38.85288283497746 46.08855657382831 39.89881713546149 43.502361127803184
          48.096558290743594 36.34000187604976 41.12496565143939 46.432736954338296 33.79311678769265 45.20086972305864
          44.31870450417802 37.66158963258986 42.334535473546396 31.309914806706267 31.514821090619364 43.47273994577457