<?xml version="1.0"?>
<VTKFile type="UnstructuredGrid" version="0.1" byte_order="LittleEndian" header_type="UInt32" compressor="vtkZLibDataCompressor">
  <UnstructuredGrid>
    <Piece NumberOfPoints="418" NumberOfCells="757">
      <PointData>
        <DataArray type="Float64" Name="nsi_BC" NumberOfComponents="3" format="ascii" RangeMin="0" RangeMax="1">
          0 0 0 0 0 0
          0 0 0 0 0 0
          0 0 0 1 0 0
          0 0 0 0 0 0
          0 0 0 0 0 0
          0 0 0 0 0 0
          0 0 0 0 0 0
          0 0 0 0 0 0
          0 0 0 0 0 0
          0 0 0 0 0 0
          0 0 0 0 0 0
          0 0 0 0 0 0
          0 0 0 0 0 0
          0 0 0 0 0 0
          0 0 0 0 0 0
          0 0 0 0 0 0
          0 0 0 0 0 0
          0 0 0 0 0 0
          0 0 0 0 0 0
          0 0 0 0 0 0
          0 0 0 0 0 0
          0 0 0 0 0 0
          0 0 0 0 0 0
          0 0 0 0 0 0
          0 0 0 0 0 0
          0 0 0 0 0 0
          0 0 0 0 0 0
          0 0 0 0 0 0
          0 0 0 0 0 0
          0 0 0 0 0 0
          0 0 0 0 0 0
          0 0 0 0 0 0
          0 0 0 0 0 0
          0 0 0 0 0 0
          0 0 0 0 0 0
          0 0 0 0 0 0
          0 0 0 0 0 0
          0 0 0 0 0 0
          0 0 0 0 0 0
          0 0 0 0 0 0
          0 0 0 0 0 0
          0 0 0 0 0 0
          0 0 0 0 0 0
          0 0 0 0 0 0
          0 0 0 0 0 0
          0 0 0 0 0 0
          0 0 0 0 0 0
          0 0 0 0 0 0
          0 0 0 0 0 0
          0 0 0 0 0 0
          0 0 0 0 0 0
          0 0 0 0 0 0
          0 0 0 0 0 0
          0 0 0 0 0 0
          0 0 0 0 0 0
          0 0 0 0 0 0
          0 0 0 0 0 0
          0 0 0 0 0 0
          0 0 0 0 0 0
          0 0 0 0 0 0
          0 0 0 0 0 0
          0 0 0 0 0 0
          0 0 0 0 0 0
          0 0 0 0 0 0
          0 0 0 0 0 0
          0 0 0 0 0 0
          0 0 0 0 0 0
          0 0 0 0 0 0
          0 0 0 0 0 0
          0 0 0 0 0 0
          0 0 0 0 0 0
          0 0 0 0 0 0
          0 0 0 0 0 0
          0 0 0 0 0 0
          0 0 0 0 0 0
          0 0 0 0 0 0
          0 0 0 0 0 0
          0 0 0 0 0 0
          0 0 0 0 0 0
          0 0 0 0 0 0
          0 0 0 0 0 0
          0 0 0 0 0 0
          0 0 0 0 0 0
          0 0 0 0 0 0
          0 0 0 0 0 0
          0 0 0 0 0 0
          0 0 0 0 0 0
          0 0 0 0 0 0
          0 0 0 0 0 0
          0 0 0 0 0 0
          0 0 0 0 0 0
          0 0 0 0 0 0
          0 0 0 0 0 0
          0 0 0 0 0 0
          0 0 0 0 0 0
          0 0 0 0 0 0
          0 0 0 0 0 0
          0 0 0 0 0 0
          0 0 0 0 0 0
          0 0 0 0 0 0
          0 0 0 0 0 0
          0 0 0 0 0 0
          0 0 0 0 0 0
          0 0 0 0 0 0
          0 0 0 0 0 0
          0 0 0 0 0 0
          0 0 0 0 0 0
          0 0 0 0 0 0
          0 0 0 0 0 0
          0 0 0 0 0 0
          0 0 0 0 0 0
          0 0 0 0 0 0
          0 0 0 0 0 0
          0 0 0 0 0 0
          0 0 0 0 0 0
          0 0 0 0 0 0
          0 0 0 0 0 0
          0 0 0 0 0 0
          0 0 0 0 0 0
          0 0 0 0 0 0
          0 0 0 0 0 0
          0 0 0 0 0 0
          0 0 0 0 0 0
          0 0 0 0 0 0
          0 0 0 0 0 0
          0 0 0 0 0 0
          0 0 0 0 0 0
          0 0 0 0 0 0
          0 0 0 0 0 0
          0 0 0 0 0 0
          0 0 0 0 0 0
          0 0 0 0 0 0
          0 0 0 0 0 0
          0 0 0 0 0 0
          0 0 0 0 0 0
          0 0 0 0 0 0
          0 0 0 0 0 0
          0 0 0 0 0 0
          0 0 0 0 0 0
          0 0 0 0 0 0
          0 0 0 0 0 0
          0 0 0 0 0 0
          0 0 0 0 0 0
          0 0 0 0 0 0
          0 0 0 0 0 0
          0 0 0 0 0 0
          0 0 0 0 0 0
          0 0 0 0 0 0
          0 0 0 0 0 0
          0 0 0 0 0 0
          0 0 0 0 0 0
          0 0 0 0 0 0
          0 0 0 0 0 0
          0 0 0 0 0 0
          0 0 0 0 0 0
          0 0 0 0 0 0
          0 0 0 0 0 0
          0 0 0 0 0 0
          0 0 0 0 0 0
          0 0 0 0 0 0
          0 0 0 0 0 0
          0 0 0 0 0 0
          0 0 0 0 0 0
          0 0 0 0 0 0
          0 0 0 0 0 0
          0 0 0 0 0 0
          0 0 0 0 0 0
          0 0 0 0 0 0
          0 0 0 0 0 0
          0 0 0 0 0 0
          0 0 0 0 0 0
          0 0 0 0 0 0
          0 0 0 0 0 0
          0 0 0 0 0 0
          0 0 0 0 0 0
          0 0 0 0 0 0
          0 0 0 0 0 0
          0 0 0 0 0 0
          0 0 0 0 0 0
          0 0 0 0 0 0
          0 0 0 0 0 0
          0 0 0 0 0 0
          0 0 0 0 0 0
          0 0 0 0 0 0
          0 0 0 0 0 0
          0 0 0 0 0 0
          0 0 0 0 0 0
          0 0 0 0 0 0
          0 0 0 0 0 0
          0 0 0 0 0 0
          0 0 0 0 0 0
          0 0 0 0 0 0
          0 0 0 0 0 0
          0 0 0 0 0 0
          0 0 0 0 0 0
          0 0 0 0 0 0
          0 0 0 0 0 0
          0 0 0 0 0 0
          0 0 0 0 0 0
          0 0 0 0 0 0
          0 0 0 0 0 0
          0 0 0 0 0 0
          0 0 0 0 0 0
          0 0 0 0 0 0
          0 0 0 0 0 0
          0 0 0 0 0 0
          0 0 0 0 0 0
          0 0 0 0 0 0
          0 0 0 0 0 0
          <InformationKey name="L2_NORM_RANGE" location="vtkDataArray" length="2">
            <Value index="0">
              0
            </Value>
            <Value index="1">
              1
            </Value>
          </InformationKey>
        </DataArray>
        <DataArray type="Float64" Name="nsi_FIXNO" NumberOfComponents="3" format="ascii" RangeMin="1.4142135623730951" RangeMax="1.4142135623730951">
          1 1 0 -1 -1 0
          -1 -1 0 -1 -1 0
          1 1 0 1 1 0
          -1 -1 0 -1 -1 0
          -1 -1 0 -1 -1 0
          -1 -1 0 -1 -1 0
          -1 -1 0 -1 -1 0
          -1 -1 0 1 1 0
          -1 -1 0 -1 -1 0
          -1 -1 0 -1 -1 0
          -1 -1 0 -1 -1 0
          -1 -1 0 -1 -1 0
          -1 -1 0 -1 -1 0
          -1 -1 0 -1 -1 0
          -1 -1 0 -1 -1 0
          -1 -1 0 -1 -1 0
          1 1 0 -1 -1 0
          -1 -1 0 -1 -1 0
          1 1 0 -1 -1 0
          -1 -1 0 -1 -1 0
          -1 -1 0 -1 -1 0
          1 1 0 -1 -1 0
          -1 -1 0 -1 -1 0
          -1 -1 0 -1 -1 0
          -1 -1 0 -1 -1 0
          -1 -1 0 -1 -1 0
          -1 -1 0 -1 -1 0
          -1 -1 0 -1 -1 0
          -1 -1 0 -1 -1 0
          -1 -1 0 -1 -1 0
          1 1 0 -1 -1 0
          -1 -1 0 -1 -1 0
          -1 -1 0 -1 -1 0
          -1 -1 0 -1 -1 0
          -1 -1 0 1 1 0
          -1 -1 0 -1 -1 0
          -1 -1 0 -1 -1 0
          -1 -1 0 -1 -1 0
          -1 -1 0 -1 -1 0
          -1 -1 0 -1 -1 0
          -1 -1 0 -1 -1 0
          -1 -1 0 -1 -1 0
          -1 -1 0 -1 -1 0
          -1 -1 0 -1 -1 0
          1 1 0 -1 -1 0
          -1 -1 0 -1 -1 0
          -1 -1 0 -1 -1 0
          -1 -1 0 -1 -1 0
          -1 -1 0 -1 -1 0
          -1 -1 0 -1 -1 0
          -1 -1 0 -1 -1 0
          -1 -1 0 -1 -1 0
          -1 -1 0 -1 -1 0
          -1 -1 0 -1 -1 0
          -1 -1 0 -1 -1 0
          -1 -1 0 -1 -1 0
          -1 -1 0 -1 -1 0
          -1 -1 0 -1 -1 0
          -1 -1 0 -1 -1 0
          -1 -1 0 -1 -1 0
          -1 -1 0 1 1 0
          -1 -1 0 -1 -1 0
          -1 -1 0 -1 -1 0
          -1 -1 0 -1 -1 0
          -1 -1 0 -1 -1 0
          -1 -1 0 -1 -1 0
          -1 -1 0 -1 -1 0
          -1 -1 0 -1 -1 0
          -1 -1 0 -1 -1 0
          -1 -1 0 -1 -1 0
          -1 -1 0 -1 -1 0
          -1 -1 0 -1 -1 0
          -1 -1 0 -1 -1 0
          -1 -1 0 -1 -1 0
          1 1 0 -1 -1 0
          -1 -1 0 -1 -1 0
          -1 -1 0 -1 -1 0
          -1 -1 0 -1 -1 0
          -1 -1 0 -1 -1 0
          -1 -1 0 1 1 0
          -1 -1 0 -1 -1 0
          1 1 0 -1 -1 0
          1 1 0 -1 -1 0
          -1 -1 0 -1 -1 0
          -1 -1 0 1 1 0
          -1 -1 0 -1 -1 0
          -1 -1 0 -1 -1 0
          1 1 0 -1 -1 0
          1 1 0 -1 -1 0
          -1 -1 0 -1 -1 0
          -1 -1 0 -1 -1 0
          -1 -1 0 -1 -1 0
          1 1 0 -1 -1 0
          -1 -1 0 1 1 0
          1 1 0 -1 -1 0
          -1 -1 0 -1 -1 0
          -1 -1 0 -1 -1 0
          -1 -1 0 1 1 0
          -1 -1 0 -1 -1 0
          -1 -1 0 -1 -1 0
          -1 -1 0 -1 -1 0
          1 1 0 1 1 0
          -1 -1 0 1 1 0
          -1 -1 0 -1 -1 0
          -1 -1 0 -1 -1 0
          1 1 0 -1 -1 0
          -1 -1 0 -1 -1 0
          -1 -1 0 -1 -1 0
          1 1 0 -1 -1 0
          -1 -1 0 -1 -1 0
          1 1 0 -1 -1 0
          -1 -1 0 1 1 0
          1 1 0 -1 -1 0
          -1 -1 0 -1 -1 0
          -1 -1 0 -1 -1 0
          -1 -1 0 -1 -1 0
          -1 -1 0 1 1 0
          1 1 0 -1 -1 0
          1 1 0 1 1 0
          -1 -1 0 -1 -1 0
          1 1 0 -1 -1 0
          -1 -1 0 -1 -1 0
          -1 -1 0 1 1 0
          -1 -1 0 -1 -1 0
          -1 -1 0 1 1 0
          -1 -1 0 1 1 0
          -1 -1 0 -1 -1 0
          -1 -1 0 -1 -1 0
          -1 -1 0 -1 -1 0
          -1 -1 0 1 1 0
          1 1 0 -1 -1 0
          1 1 0 -1 -1 0
          1 1 0 -1 -1 0
          -1 -1 0 -1 -1 0
          1 1 0 -1 -1 0
          -1 -1 0 -1 -1 0
          -1 -1 0 -1 -1 0
          1 1 0 1 1 0
          -1 -1 0 -1 -1 0
          -1 -1 0 -1 -1 0
          -1 -1 0 -1 -1 0
          1 1 0 -1 -1 0
          -1 -1 0 -1 -1 0
          1 1 0 -1 -1 0
          1 1 0 1 1 0
          -1 -1 0 -1 -1 0
          -1 -1 0 -1 -1 0
          -1 -1 0 1 1 0
          1 1 0 -1 -1 0
          -1 -1 0 -1 -1 0
          -1 -1 0 1 1 0
          -1 -1 0 1 1 0
          -1 -1 0 -1 -1 0
          1 1 0 -1 -1 0
          -1 -1 0 1 1 0
          -1 -1 0 -1 -1 0
          1 1 0 -1 -1 0
          1 1 0 -1 -1 0
          -1 -1 0 1 1 0
          -1 -1 0 -1 -1 0
          -1 -1 0 -1 -1 0
          -1 -1 0 1 1 0
          -1 -1 0 -1 -1 0
          -1 -1 0 -1 -1 0
          -1 -1 0 -1 -1 0
          1 1 0 -1 -1 0
          -1 -1 0 -1 -1 0
          -1 -1 0 -1 -1 0
          -1 -1 0 1 1 0
          -1 -1 0 -1 -1 0
          -1 -1 0 -1 -1 0
          1 1 0 -1 -1 0
          -1 -1 0 -1 -1 0
          -1 -1 0 -1 -1 0
          -1 -1 0 1 1 0
          -1 -1 0 -1 -1 0
          -1 -1 0 -1 -1 0
          -1 -1 0 -1 -1 0
          1 1 0 -1 -1 0
          -1 -1 0 -1 -1 0
          -1 -1 0 -1 -1 0
          -1 -1 0 -1 -1 0
          -1 -1 0 -1 -1 0
          1 1 0 -1 -1 0
          -1 -1 0 -1 -1 0
          -1 -1 0 -1 -1 0
          -1 -1 0 -1 -1 0
          1 1 0 -1 -1 0
          -1 -1 0 -1 -1 0
          -1 -1 0 -1 -1 0
          -1 -1 0 -1 -1 0
          -1 -1 0 -1 -1 0
          1 1 0 -1 -1 0
          -1 -1 0 -1 -1 0
          -1 -1 0 -1 -1 0
          -1 -1 0 -1 -1 0
          -1 -1 0 -1 -1 0
          1 1 0 -1 -1 0
          -1 -1 0 -1 -1 0
          1 1 0 -1 -1 0
          -1 -1 0 -1 -1 0
          -1 -1 0 -1 -1 0
          -1 -1 0 -1 -1 0
          1 1 0 -1 -1 0
          -1 -1 0 -1 -1 0
          -1 -1 0 -1 -1 0
          -1 -1 0 -1 -1 0
          1 1 0 -1 -1 0
          -1 -1 0 1 1 0
          <InformationKey name="L2_NORM_RANGE" location="vtkDataArray" length="2">
            <Value index="0">
              1.4142135624
            </Value>
            <Value index="1">
              1.4142135624
            </Value>
          </InformationKey>
        </DataArray>
        <DataArray type="Float64" Name="Velocity" NumberOfComponents="3" format="ascii" RangeMin="0" RangeMax="1.4180347517069671">
          0 0 0 0.3191453663482416 0.02486981515279458 0
          0.732707276518265 0.10226522123226968 0 0.5180853946010493 0.04113263947287815 0
          0 0 0 0.9999999999999999 0 0
          0.7146288602234965 0.031102582354472167 0 0.37590265351407626 0.025493384635684423 0
          0.6440751735717409 0.04357874658869676 0 0.32055074960410496 0.006012843284125769 0
          0.6654304136998155 0.025793858461875468 0 0.5686939593347581 0.0372890196747297 0
          0.7022395986367521 -0.0960622725800249 0 0.7070817660066987 0.03283381580180483 0
          0.6769757938766373 0.05052289311534868 0 0 0 0
          0.5184208153954735 0.02750034418203106 0 0.7071120136406702 0.057998716790574716 0
          0.6056337223620827 -0.00943538802096575 0 0.6447575838417452 0.03467600186124993 0
          0.660814660274471 0.05858926094192501 0 0.6715728961401353 0.054013460407160874 0
          0.43577778849706506 0.03625237780415066 0 0.34713115893196794 -0.028313364239819692 0
          0.7120351523105743 0.09589384141283196 0 0.649187860726797 0.07797067191956177 0
          0.7324172708339343 0.1155209535538974 0 0.6884079084107082 0.09269546810474391 0
          0.3298579415817777 0.01151257150534857 0 0.5706507826274483 0.03786213399791911 0
          0.4490113647661494 -0.004208291826405778 0 0.6109344840637683 0.08826735669398174 0
          0 0 0 0.6112550966879209 0.07367528204184892 0
          0.7044391558671952 0.15135093138745412 0 0.7546220155889103 0.15085537303663096 0
          0 0 0 0.761133906839711 0.1868016940875196 0
          0.6330921114025313 0.13220100877662236 0 0.33328164687216083 0.005873879400724522 0
          0.5753433409074667 0.08310692885634462 0 0.2065107335474592 0.003929977848340307 0
          0 0 0 0.4762131456341667 0.04542846702545536 0
          0.7680581398407221 0.17915285677469842 0 0.7290328108171561 0.22051358790213588 0
          0.8161928232471805 0.24129618789627183 0 0.6524383495287621 0.20604628009637949 0
          0.5204850929209864 0.0921574952681604 0 0.7895672709377505 0.27978346423568073 0
          0.32374506674200243 0.023085131267864625 0 0.4675119106533721 0.02372784573521575 0
          0.8012452479474392 0.14943685487630837 0 0.8721094438470365 0.2715725945868551 0
          0.5474105163753019 0.1664904046298812 0 0.6654036244251695 0.2911034343552727 0
          0.8536655991179316 0.33948032734188793 0 0.3677870949740296 0.04750850182675867 0
          0.776974199264808 0.3701389512870367 0 0.5733178545909203 0.2570174462972434 0
          0 0 0 0.9384812557369289 0.36083696736883536 0
          0.6833877022545983 0.376467938647276 0 0.19849004243157162 0.011040340731938178 0
          0.986795185718133 0.2326594966207735 0 0.38757397599432086 0.09445282364665901 0
          0.4578556240951286 0.19581672009313883 0 0.8565163717660595 0.42425712796568277 0
          0.5734842430260062 0.3400145091433722 0 0 0 0
          0.7526825508834972 0.09968536648239545 0 0.4624909439211252 0.2768102404210961 0
          0.7228332065564569 0.46877217325050796 0 1.0496227233314204 0.35597092291592297 0
          0.9536390081016647 0.4630005927919564 0 0.3407181143961184 0.1321600522788388 0
          0.2327668552635627 0.03665206314286147 0 0.5512281165740497 0.4234582083671203 0
          0.8351563212868195 0.5169376718767277 0 1.118586078645347 0.28233168429974104 0
          0.45518508370660293 0.3558812112061928 0 0.7104352102574386 0.5215325629848486 0
          0.3481611425854438 0.20074940569822938 0 0.2632096194982029 0.0679216521666359 0
          1.0388762866865917 0.18945491401474004 0 0.5934813468609251 0.5067235785420439 0
          0.9507816264546471 0.5257897261400983 0 0.342154604463625 0.2752302701567678 0
          0 0 0 0.8360123113629315 0.08204783034834323 0
          1.1889020535477135 0.3801450065820537 0 0.7773405788945073 0.5705873323624551 0
          0.42854552748007546 0.43678893753424686 0 0.6290884285597621 0.5634233482838956 0
          1.2275856981857378 0.2722698623164266 0 0.24631532854411314 0.1297154956354455 0
          0.3107193581448179 0.3251825828045986 0 0.136838689192307 0.01750275493728951 0
          0.2510283380904555 0.19902893507991462 0 0.4782532447941481 0.010233467130410746 0
          0.9243935253065403 0.5669455400663027 0 0.4132481267431393 0.4927936877787475 0
          1.1434198679806862 0.4718342114113698 0 0.24737244361715088 0.2647652661465179 0
          0.6871278818713062 0.5941758902209247 0 0.27500645151059583 0.3652026601923104 0
          1.172293017261106 0.13776196314934536 0 1.2950776529442258 0.32754567261606304 0
          0.15673286648278645 0.04830956461314145 0 0.5131931768037102 0.567959776353921 0
          0.7987602423844088 0.5746024802236358 0 0.20162650521568537 0.28665107597510603 0
          0.31938829890615683 0.4676871533680787 0 1.0762836729154062 0.48580363357922346 0
          0.9180923441704177 0.026549153157061047 0 0.15005526183857867 0.07931697559564295 0
          0.5504470416043217 0.5637468047525956 0 0.21348346681993577 0.3636301942801963 0
          1.2694350958809801 0.355372404173706 0 1.3517490708628475 0.19034795190741918 0
          0.1501479192268209 0.13793380476766465 0 0 0 0
          0.1554377129609587 0.209745982758955 0 0.32172500136448734 0.489287827769459 0
          1.358008364008639 0.2550832317826887 0 0.16616068164271172 0.2960446410067891 0
          0.06773916429323171 0.009263562576876102 0 0.6512869684427545 0.509568480905666 0
          0.1528492388730517 0.3392879847816147 0 0.9831136873823356 0.42315760647631445 0
          0.36022065613052257 0.45985091442222614 0 0.1106882652874056 0.21263828802603804 0
          1.1777137901943433 0.3375424952955983 0 0.09012836552974253 0.03501891444848462 0
          0.10807950287778761 0.1439194622123419 0 1.2517792959556022 0.0541058919708903 0
          1.3155838671828606 0.25155782708730834 0 0.16035245731090864 0.3489452712246081 0
          0.08350681464212092 0.20443145887892636 0 1.4054401616394498 0.14926149785109016 0
          0.4262168203528131 0.3590951824736295 0 0.0921978243334139 0.1067974291790114 0
          0.07272922361791077 0.2472886469861916 0 0.08100350439207175 0.049757117174166594 0
          0.7620058347995673 0.3075037377497658 0 0.0807490197072286 0.14235374048844576 0
          0.06703804569852001 0.21621438742848018 0 0.06996233140323481 0.2154181251933097 0
          0 0 0 0.08370691015601511 0.21910010869421798 0
          0.9923954716743391 0.2525261458592129 0 1.4029039965511174 0.07494425206041917 0
          1.19365195636209 0.20802964841723445 0 0.04048793816355878 0.1580285571123395 0
          0.06594435061699047 0.06556025352542652 0 0.04772836753232592 0.13161020761440279 0
          0.9227433650945462 0.004240923041962686 0 0.032011414486499114 0.14589549938196333 0
          0.021307999304013125 0.1250450215281294 0 0 0 0
          0.05801131131003913 0.0963981066029196 0 0.3995740699776199 0.07005521023525094 0
          0 0 0 0.7041917388162802 0.11162455730508763 0
          0 0 0 0.017314719017756556 0.09610840615917629 0
          0.0291210712718156 0.11540852144603218 0 0.04560870147214483 0.01571801893763597 0
          1.3313880707268348 0.06460680671539955 0 0 0 0
          0.01099351080367736 0.07261771192903632 0 0.04572460517095114 0.06412754860338868 0
          0.9267130745837538 0.07365652606366303 0 0.03382959216503467 0.08430156472825293 0
          0 0 0 0.01892980055729693 0.08352211552387873 0
          0 0 0 1.4180285826769587 0.004182793303009507 0
          0.35286594422592643 0.02762553995501657 0 0.006618371777293813 0.05940565422015756 0
          1.1311636041511899 0.025549400754207936 0 0.018422152142534627 0.07421620260470072 0
          0.6727294236537139 0.0386581150518961 0 0.03741875617774877 0.025880391315110964 0
          0 0 0 0.006890670765384276 0.04710165937323754 0
          1.4078069814046934 -0.033510680779704566 0 0 0 0
          0 0 0 0.014217616043892484 0.05260692108593546 0
          0.028716892545064765 0.030710780424339883 0 0.004951032623036871 0.03830389007470022 0
          0.02072949459691071 0.04672081869536845 0 0.3346284234366516 -0.00038989881615650746 0
          0.01333277394554091 0.04559196366286774 0 0 0 0
          1.2509644936175874 -0.05098660711990313 0 0.659286886610371 -0.02445789493768527 0
          0.9420355330397107 -0.058676104123275286 0 0.004535184826748817 0.03006087906124137 0
          1.156307957295584 -0.10041530258333307 0 0.020686953230830918 0.006834751145892006 0
          0 0 0 0 0 0
          0.01655539567459869 0.02790983820314417 0 0 0 0
          1.3175404904692756 -0.12236312376724323 0 0.008953792771926138 0.030469285650200982 0
          0.003899512909883261 0.023277679005006467 0 0.3415589111376699 -0.027361273402780873 0
          0 0 0 1.3951504493721985 -0.13295105131499674 0
          0.008605892499704528 0.023913586023473234 0 0.6755921158584064 -0.1263628739288313 0
          0.014368752648056522 0.011949695568703097 0 0.0031320796676925756 0.017194497119656683 0
          0 0 0 0.9286897369101429 -0.17539185469988597 0
          0.005696550365400057 0.018666646507829412 0 1.3730029898860683 -0.1317629455056424 0
          0 0 0 0.002825995086760345 0.012728213267151511 0
          1.13252790720128 -0.20578806395557417 0 0 0 0
          0 0 0 0.39215782143323685 -0.17505545591213764 0
          0.00763691232894695 0.010282496573865655 0 0.005598058533959492 0.012512843447013122 0
          0.9354224869926584 -0.05094142117539203 0 0.00173917441559069 0.008689262373602524 0
          1.2824854202317721 -0.21738562291630253 0 1.2031319049032128 -0.10104144163602484 0
          0.007773264871492945 0.002595907412602637 0 0 0 0
          0 0 0 0.6723745897323502 -0.24531745504952104 0
          0 0 0 0 0 0
          0.0010864410865791406 0.006166725334448532 0 0.04662702906148658 -0.08152001851855113 0
          0 0 0 0.0033344059850068364 0.0072253601894771945 0
          1.3565926035920235 -0.21859585288182515 0 0.9017410061414739 -0.28279041413520567 0
          0.004611187197885567 0.003468647468141698 0 0 0 0
          0.026128392289397145 -0.040268733914079334 0 0.0012453883676295926 0.003789980388190129 0
          0.0028816306643653722 0.00451040009580611 0 0 0 0
          0.014997434784655875 -0.01486245685150829 0 0 0 0
          0.31110057479806696 -0.22317441406050065 0 1.3172736422908375 -0.18978326298463194 0
          0.0014996579986128946 0.002674152717736647 0 1.0593405958394364 -0.31984335763992083 0
          0.006332208721222726 0.0023889668985310874 0 0.0025674562229148195 0.0007024768686677957 0
          0.0009775463338193805 0.0022534784125544135 0 0 0 0
          0 0 0 0.10238919583554898 -0.12216893303839983 0
          0 0 0 0.002192129300411361 0.008105338651761903 0
          0 0 0 1.2261288395429086 -0.3118414365043626 0
          0.06450980782839465 -0.07286702926318925 0 0.0014781047652885674 0.0011631138368161367 0
          0 0 0 0.000492542169669723 0.0009890307532131673 0
          0.25264055049443895 -0.007816705437403699 0 0.5402579276682319 -0.30382575863152833 0
          0.001348417122409452 0.011489517455998676 0 1.1498005434548504 -0.15103421518593396 0
          0 0 0 0 0 0
          0.0012004299089545232 0.012953221909271223 0 0.0003284732924433596 0.00042824374946968485 0
          0.2912509518067703 -0.23423136359452898 0 0.017187876251458074 -0.01779779992692997 0
          0.052331404652578475 -0.055418433730982694 0 0.772736284086856 -0.3526715174537556 0
          0 0 0 1.2857084439990953 -0.2812103069346542 0
          0.139383297640414 -0.1420161004846419 0 0.00032935447831835266 0.014376651601757806 0
          0 0 0 0.010575920039623803 -0.0026467928694362797 0
          0 0 0 0 0 0
          0.0050305019831539495 0.008865598474748325 0 0.00017704087876873798 -0.00010705444176617791 0
          -0.0002925229921967008 0.014415666753525527 0 0.004613254706680658 0.013866313382416829 0
          0.7803251185926452 -0.09511391856385709 0 0 0 0
          0 0 0 0.4807733997842887 -0.3146983605034305 0
          -0.00009599577352591883 0.014291592920327754 0 0.9383615125258133 -0.3748609731395212 0
          1.2332678247492321 -0.2417837300147816 0 0 0 0
          0.035083169456908425 -0.035730154254005435 0 0 0 0
          0.30688720498768496 -0.24896269210554642 0 0.001147188465349786 0.018072797720882224 0
          0 0 0 -0.0003295099812202374 0.013773557622680541 0
          0.014428112885980162 0.0012385390096393916 0 0 0 0
          0.0007401372102481472 0.020451335955131874 0 0.1591964258697222 -0.1520614701736408 0
          0 0 0 -0.0007196457777861229 0.0128928714236936 0
          0 0 0 -0.00024754576462067147 0.019903835004853536 0
          0.6568910263326191 -0.3656306507591641 0 0 0 0
          -0.0010223144924669744 0.011314352360654251 0 -0.0010561482144854028 0.01946804635871265 0
          1.071575808145981 -0.1706151054676423 0 0.46724936694369684 -0.31791430752297817 0
          0.006864768890811771 0.013011097633376772 0 0 0 0
          -0.0010401085993056638 0.00968567214525471 0 1.1991144109166214 -0.32675069883004315 0
          0.054083655625953464 -0.05144474173730922 0 -0.0030306847149335096 0.019172919663842894 0
          1.0341848831822948 -0.39765880362898154 0 0.299983389426959 -0.24454186785906848 0
          0 0 0 -0.0009747980170644406 0.008103190715742689 0
          -0.00024178356298172824 0.02048571583960193 0 0.1387809086940243 -0.1348970429327099 0
          -0.003199909130463504 0.017099810494780977 0 0.03408927780271486 -0.025323523160221482 0
          0.8117849938313687 -0.39935602523595115 0 0 0 0
          -0.0010947636911811788 0.006243294015468032 0 -0.002848744116493571 0.013926541536151596 0
          0.6220353341332082 -0.3601873924085515 0 0.6941296322727499 -0.08334626632786414 0
          0 0 0 -0.001139942086629379 0.0043451963002781625 0
          -0.0053944581603852446 0.01927166494047797 0 -0.003708135137246075 0.012010110835830147 0
          0.012521591896046527 0.0009789587572899823 0 0.4524777105177334 -0.3071797973185263 0
          0.0819475539947214 -0.08435723596278306 0 0 0 0
          -0.0011077677323492738 0.0024334745969223424 0 1.0908680648065792 -0.379854705351955 0
          -0.0037978377579645046 0.009025734120174796 0 -0.006392421024319655 0.01636409787875177 0
          0.30036473896339266 -0.23902492792991017 0 1.1306403913801255 -0.3106013107655655 0
          0 0 0 0.9419707638980682 -0.39640520311879346 0
          -0.003822710713375644 0.006099483993787776 0 -0.0004917099914005386 0.0006702396269510236 0
          0.05445387179698702 -0.04594561162190688 0 -0.007610173331119374 0.012160896209907951 0
          0.1631167546541527 -0.15213917435020574 0 -0.003024881951301319 0.003313416131256599 0
          0.6665368935321181 -0.3622795685524964 0 0.0010792288601234009 0.00031382781967076516 0
          0 0 0 0.9885219841619909 -0.20929918318798482 0
          0.3103073438120296 -0.017344381321725246 0 -0.0070995831033233625 0.006264166125725413 0
          -0.00760043681082615 0.00675373693598849 0 -0.009318137684653264 0.009079008392139192 0
          0.11526403406480959 -0.10623251623759764 0 0.4276170100747462 -0.2933195046322993 0
          0 0 0 -0.0034601974034472274 0.0015599426269049114 0
          1.0206922512083303 -0.34438421380777834 0 0.02186514276063633 -0.03754374361015642 0
          -0.012125676476851619 0.0060485266506409875 0 -0.0006209444885885842 -0.011555610591281539 0
          0.8085856764544748 -0.3580951887800807 0 0.21571437661832105 -0.18354809731901597 0
          0.5395461664505831 -0.07244095521716742 0 -0.009375857808995268 -0.0007603712356258837 0
          0 0 0 -0.008082621520126752 0.001932726835882962 0
          0.5601626366519515 -0.3202289339395448 0 1.0587387961549501 -0.2756060645974126 0
          0.07561162027993225 -0.0866333895985862 0 0.35639511475522523 -0.25405118145890626 0
          0.02326526087844037 -0.04098152659259393 0 0.0007869346197040307 -0.015793312862476473 0
          -0.01232779983816555 0.0008591227574240022 0 0.9508291653473356 -0.32673767161411127 0
          0 0 0 -0.008818267252002724 -0.00372565103525506 0
          0.7318297097608487 -0.3467217525449849 0 0.4884902585419002 -0.3008136456658776 0
          0 0 0 0.16669637411139673 -0.14884131865790234 0
          0.06847666467928568 -0.07904113394529891 0 0.9376268930378923 -0.09431038661949653 0
          0.027753201171821663 -0.039894208040737025 0 -0.009099635049206828 -0.0016033642311166717 0
          0.0037463022605123656 -0.014651514973365047 0 0.3059604003971009 -0.23485937552061736 0
          0 0 0 0.9598998742558177 -0.37966638051546747 0
          -0.0023020499454660167 -0.0011355833894279026 0 0.14611197164178077 -0.1447884497877095 0
          0.06807940700370135 -0.06726880938037125 0 0.5639197610405113 -0.4137589607537614 0
          0.01970034514217007 -0.018790178113456162 0 0.2867371602464453 -0.2833581725659135 0
          0 0 0 0.06310831852746841 -0.038870315043386616 0
          0.14698921052477446 -0.1192946227582792 0 0 0 0
          <InformationKey name="L2_NORM_RANGE" location="vtkDataArray" length="2">
            <Value index="0">
              0
            </Value>
            <Value index="1">
              1.4180347517
            </Value>
          </InformationKey>
        </DataArray>
        <DataArray type="Float64" Name="Pressure" format="ascii" RangeMin="-8.700020860855249" RangeMax="36.96651331777294">
          36.297211725525614 36.478115294121096 36.787364551054075 36.25352882332522 36.10286493237721 36.824003688855214
          36.10133930274565 35.59087861097051 35.415847601987394 34.67843645306449 36.1531861187748 34.45353663020995
          36.96651331777294 35.34099132766757 34.439691848287374 33.670865084399125 33.51326685447752 34.53988187323629
          36.54185240445477 35.594232420468884 33.35454590423918 34.79268730336001 32.40001317139765 36.94302800342998
          33.51720371081075 32.22380794865205 32.32667828482337 33.932730867638895 31.420535852345775 34.98002705211617
          36.00239730901306 30.85108963170305 36.74604177424924 34.21155444022135 33.06388401882897 31.140572182447396
          30.286214756006355 31.54023207652343 33.514271166499974 35.27625040251644 29.426712927063736 35.71610482298397
          36.813412461765985 34.41217137351586 29.60503174024323 32.103087414087874 30.10507892223168 32.76141725445591
          33.8646976772223 30.70579316703786 34.55663939669307 27.4090521592847 27.7644734848028 28.44158029557436
          33.376586937802365 32.00315724937301 29.272576008909063 34.026121762028666 30.124157490304267 32.72120985831725
          34.82323505671035 27.43563770708182 31.073027684930448 34.142919705762296 25.738830516132687 33.769116545049044