<?xml version="1.0"?>
<VTKFile type="UnstructuredGrid" version="0.1" byte_order="LittleEndian" header_type="UInt32" compressor="vtkZLibDataCompressor">
  <UnstructuredGrid>
    <Piece NumberOfPoints="418" NumberOfCells="757">
      <PointData>
        <DataArray type="Float64" Name="nsi_BC" NumberOfComponents="3" format="ascii" RangeMin="0" RangeMax="1">
          0 0 0 0 0 0
          0 0 0 0 0 0
          0 0 0 1 0 0
          0 0 0 0 0 0
          0 0 0 0 0 0
          0 0 0 0 0 0
          0 0 0 0 0 0
          0 0 0 0 0 0
          0 0 0 0 0 0
          0 0 0 0 0 0
          0 0 0 0 0 0
          0 0 0 0 0 0
          0 0 0 0 0 0
          0 0 0 0 0 0
          0 0 0 0 0 0
          0 0 0 0 0 0
          0 0 0 0 0 0
          0 0 0 0 0 0
          0 0 0 0 0 0
          0 0 0 0 0 0
          0 0 0 0 0 0
          0 0 0 0 0 0
          0 0 0 0 0 0
          0 0 0 0 0 0
          0 0 0 0 0 0
          0 0 0 0 0 0
          0 0 0 0 0 0
          0 0 0 0 0 0
          0 0 0 0 0 0
          0 0 0 0 0 0
          0 0 0 0 0 0
          0 0 0 0 0 0
          0 0 0 0 0 0
          0 0 0 0 0 0
          0 0 0 0 0 0
          0 0 0 0 0 0
          0 0 0 0 0 0
          0 0 0 0 0 0
          0 0 0 0 0 0
          0 0 0 0 0 0
          0 0 0 0 0 0
          0 0 0 0 0 0
          0 0 0 0 0 0
          0 0 0 0 0 0
          0 0 0 0 0 0
          0 0 0 0 0 0
          0 0 0 0 0 0
          0 0 0 0 0 0
          0 0 0 0 0 0
          0 0 0 0 0 0
          0 0 0 0 0 0
          0 0 0 0 0 0
          0 0 0 0 0 0
          0 0 0 0 0 0
          0 0 0 0 0 0
          0 0 0 0 0 0
          0 0 0 0 0 0
          0 0 0 0 0 0
          0 0 0 0 0 0
          0 0 0 0 0 0
          0 0 0 0 0 0
          0 0 0 0 0 0
          0 0 0 0 0 0
          0 0 0 0 0 0
          0 0 0 0 0 0
          0 0 0 0 0 0
          0 0 0 0 0 0
          0 0 0 0 0 0
          0 0 0 0 0 0
          0 0 0 0 0 0
          0 0 0 0 0 0
          0 0 0 0 0 0
          0 0 0 0 0 0
          0 0 0 0 0 0
          0 0 0 0 0 0
          0 0 0 0 0 0
          0 0 0 0 0 0
          0 0 0 0 0 0
          0 0 0 0 0 0
          0 0 0 0 0 0
          0 0 0 0 0 0
          0 0 0 0 0 0
          0 0 0 0 0 0
          0 0 0 0 0 0
          0 0 0 0 0 0
          0 0 0 0 0 0
          0 0 0 0 0 0
          0 0 0 0 0 0
          0 0 0 0 0 0
          0 0 0 0 0 0
          0 0 0 0 0 0
          0 0 0 0 0 0
          0 0 0 0 0 0
          0 0 0 0 0 0
          0 0 0 0 0 0
          0 0 0 0 0 0
          0 0 0 0 0 0
          0 0 0 0 0 0
          0 0 0 0 0 0
          0 0 0 0 0 0
          0 0 0 0 0 0
          0 0 0 0 0 0
          0 0 0 0 0 0
          0 0 0 0 0 0
          0 0 0 0 0 0
          0 0 0 0 0 0
          0 0 0 0 0 0
          0 0 0 0 0 0
          0 0 0 0 0 0
          0 0 0 0 0 0
          0 0 0 0 0 0
          0 0 0 0 0 0
          0 0 0 0 0 0
          0 0 0 0 0 0
          0 0 0 0 0 0
          0 0 0 0 0 0
          0 0 0 0 0 0
          0 0 0 0 0 0
          0 0 0 0 0 0
          0 0 0 0 0 0
          0 0 0 0 0 0
          0 0 0 0 0 0
          0 0 0 0 0 0
          0 0 0 0 0 0
          0 0 0 0 0 0
          0 0 0 0 0 0
          0 0 0 0 0 0
          0 0 0 0 0 0
          0 0 0 0 0 0
          0 0 0 0 0 0
          0 0 0 0 0 0
          0 0 0 0 0 0
          0 0 0 0 0 0
          0 0 0 0 0 0
          0 0 0 0 0 0
          0 0 0 0 0 0
          0 0 0 0 0 0
          0 0 0 0 0 0
          0 0 0 0 0 0
          0 0 0 0 0 0
          0 0 0 0 0 0
          0 0 0 0 0 0
          0 0 0 0 0 0
          0 0 0 0 0 0
          0 0 0 0 0 0
          0 0 0 0 0 0
          0 0 0 0 0 0
          0 0 0 0 0 0
          0 0 0 0 0 0
          0 0 0 0 0 0
          0 0 0 0 0 0
          0 0 0 0 0 0
          0 0 0 0 0 0
          0 0 0 0 0 0
          0 0 0 0 0 0
          0 0 0 0 0 0
          0 0 0 0 0 0
          0 0 0 0 0 0
          0 0 0 0 0 0
          0 0 0 0 0 0
          0 0 0 0 0 0
          0 0 0 0 0 0
          0 0 0 0 0 0
          0 0 0 0 0 0
          0 0 0 0 0 0
          0 0 0 0 0 0
          0 0 0 0 0 0
          0 0 0 0 0 0
          0 0 0 0 0 0
          0 0 0 0 0 0
          0 0 0 0 0 0
          0 0 0 0 0 0
          0 0 0 0 0 0
          0 0 0 0 0 0
          0 0 0 0 0 0
          0 0 0 0 0 0
          0 0 0 0 0 0
          0 0 0 0 0 0
          0 0 0 0 0 0
          0 0 0 0 0 0
          0 0 0 0 0 0
          0 0 0 0 0 0
          0 0 0 0 0 0
          0 0 0 0 0 0
          0 0 0 0 0 0
          0 0 0 0 0 0
          0 0 0 0 0 0
          0 0 0 0 0 0
          0 0 0 0 0 0
          0 0 0 0 0 0
          0 0 0 0 0 0
          0 0 0 0 0 0
          0 0 0 0 0 0
          0 0 0 0 0 0
          0 0 0 0 0 0
          0 0 0 0 0 0
          0 0 0 0 0 0
          0 0 0 0 0 0
          0 0 0 0 0 0
          0 0 0 0 0 0
          0 0 0 0 0 0
          0 0 0 0 0 0
          0 0 0 0 0 0
          0 0 0 0 0 0
          0 0 0 0 0 0
          0 0 0 0 0 0
          0 0 0 0 0 0
          0 0 0 0 0 0
          0 0 0 0 0 0
          <InformationKey name="L2_NORM_RANGE" location="vtkDataArray" length="2">
            <Value index="0">
              0
            </Value>
            <Value index="1">
              1
            </Value>
          </InformationKey>
        </DataArray>
        <DataArray type="Float64" Name="nsi_FIXNO" NumberOfComponents="3" format="ascii" RangeMin="1.4142135623730951" RangeMax="1.4142135623730951">
          1 1 0 -1 -1 0
          -1 -1 0 -1 -1 0
          1 1 0 1 1 0
          -1 -1 0 -1 -1 0
          -1 -1 0 -1 -1 0
          -1 -1 0 -1 -1 0
          -1 -1 0 -1 -1 0
          -1 -1 0 1 1 0
          -1 -1 0 -1 -1 0
          -1 -1 0 -1 -1 0
          -1 -1 0 -1 -1 0
          -1 -1 0 -1 -1 0
          -1 -1 0 -1 -1 0
          -1 -1 0 -1 -1 0
          -1 -1 0 -1 -1 0
          -1 -1 0 -1 -1 0
          1 1 0 -1 -1 0
          -1 -1 0 -1 -1 0
          1 1 0 -1 -1 0
          -1 -1 0 -1 -1 0
          -1 -1 0 -1 -1 0
          1 1 0 -1 -1 0
          -1 -1 0 -1 -1 0
          -1 -1 0 -1 -1 0
          -1 -1 0 -1 -1 0
          -1 -1 0 -1 -1 0
          -1 -1 0 -1 -1 0
          -1 -1 0 -1 -1 0
          -1 -1 0 -1 -1 0
          -1 -1 0 -1 -1 0
          1 1 0 -1 -1 0
          -1 -1 0 -1 -1 0
          -1 -1 0 -1 -1 0
          -1 -1 0 -1 -1 0
          -1 -1 0 1 1 0
          -1 -1 0 -1 -1 0
          -1 -1 0 -1 -1 0
          -1 -1 0 -1 -1 0
          -1 -1 0 -1 -1 0
          -1 -1 0 -1 -1 0
          -1 -1 0 -1 -1 0
          -1 -1 0 -1 -1 0
          -1 -1 0 -1 -1 0
          -1 -1 0 -1 -1 0
          1 1 0 -1 -1 0
          -1 -1 0 -1 -1 0
          -1 -1 0 -1 -1 0
          -1 -1 0 -1 -1 0
          -1 -1 0 -1 -1 0
          -1 -1 0 -1 -1 0
          -1 -1 0 -1 -1 0
          -1 -1 0 -1 -1 0
          -1 -1 0 -1 -1 0
          -1 -1 0 -1 -1 0
          -1 -1 0 -1 -1 0
          -1 -1 0 -1 -1 0
          -1 -1 0 -1 -1 0
          -1 -1 0 -1 -1 0
          -1 -1 0 -1 -1 0
          -1 -1 0 -1 -1 0
          -1 -1 0 1 1 0
          -1 -1 0 -1 -1 0
          -1 -1 0 -1 -1 0
          -1 -1 0 -1 -1 0
          -1 -1 0 -1 -1 0
          -1 -1 0 -1 -1 0
          -1 -1 0 -1 -1 0
          -1 -1 0 -1 -1 0
          -1 -1 0 -1 -1 0
          -1 -1 0 -1 -1 0
          -1 -1 0 -1 -1 0
          -1 -1 0 -1 -1 0
          -1 -1 0 -1 -1 0
          -1 -1 0 -1 -1 0
          1 1 0 -1 -1 0
          -1 -1 0 -1 -1 0
          -1 -1 0 -1 -1 0
          -1 -1 0 -1 -1 0
          -1 -1 0 -1 -1 0
          -1 -1 0 1 1 0
          -1 -1 0 -1 -1 0
          1 1 0 -1 -1 0
          1 1 0 -1 -1 0
          -1 -1 0 -1 -1 0
          -1 -1 0 1 1 0
          -1 -1 0 -1 -1 0
          -1 -1 0 -1 -1 0
          1 1 0 -1 -1 0
          1 1 0 -1 -1 0
          -1 -1 0 -1 -1 0
          -1 -1 0 -1 -1 0
          -1 -1 0 -1 -1 0
          1 1 0 -1 -1 0
          -1 -1 0 1 1 0
          1 1 0 -1 -1 0
          -1 -1 0 -1 -1 0
          -1 -1 0 -1 -1 0
          -1 -1 0 1 1 0
          -1 -1 0 -1 -1 0
          -1 -1 0 -1 -1 0
          -1 -1 0 -1 -1 0
          1 1 0 1 1 0
          -1 -1 0 1 1 0
          -1 -1 0 -1 -1 0
          -1 -1 0 -1 -1 0
          1 1 0 -1 -1 0
          -1 -1 0 -1 -1 0
          -1 -1 0 -1 -1 0
          1 1 0 -1 -1 0
          -1 -1 0 -1 -1 0
          1 1 0 -1 -1 0
          -1 -1 0 1 1 0
          1 1 0 -1 -1 0
          -1 -1 0 -1 -1 0
          -1 -1 0 -1 -1 0
          -1 -1 0 -1 -1 0
          -1 -1 0 1 1 0
          1 1 0 -1 -1 0
          1 1 0 1 1 0
          -1 -1 0 -1 -1 0
          1 1 0 -1 -1 0
          -1 -1 0 -1 -1 0
          -1 -1 0 1 1 0
          -1 -1 0 -1 -1 0
          -1 -1 0 1 1 0
          -1 -1 0 1 1 0
          -1 -1 0 -1 -1 0
          -1 -1 0 -1 -1 0
          -1 -1 0 -1 -1 0
          -1 -1 0 1 1 0
          1 1 0 -1 -1 0
          1 1 0 -1 -1 0
          1 1 0 -1 -1 0
          -1 -1 0 -1 -1 0
          1 1 0 -1 -1 0
          -1 -1 0 -1 -1 0
          -1 -1 0 -1 -1 0
          1 1 0 1 1 0
          -1 -1 0 -1 -1 0
          -1 -1 0 -1 -1 0
          -1 -1 0 -1 -1 0
          1 1 0 -1 -1 0
          -1 -1 0 -1 -1 0
          1 1 0 -1 -1 0
          1 1 0 1 1 0
          -1 -1 0 -1 -1 0
          -1 -1 0 -1 -1 0
          -1 -1 0 1 1 0
          1 1 0 -1 -1 0
          -1 -1 0 -1 -1 0
          -1 -1 0 1 1 0
          -1 -1 0 1 1 0
          -1 -1 0 -1 -1 0
          1 1 0 -1 -1 0
          -1 -1 0 1 1 0
          -1 -1 0 -1 -1 0
          1 1 0 -1 -1 0
          1 1 0 -1 -1 0
          -1 -1 0 1 1 0
          -1 -1 0 -1 -1 0
          -1 -1 0 -1 -1 0
          -1 -1 0 1 1 0
          -1 -1 0 -1 -1 0
          -1 -1 0 -1 -1 0
          -1 -1 0 -1 -1 0
          1 1 0 -1 -1 0
          -1 -1 0 -1 -1 0
          -1 -1 0 -1 -1 0
          -1 -1 0 1 1 0
          -1 -1 0 -1 -1 0
          -1 -1 0 -1 -1 0
          1 1 0 -1 -1 0
          -1 -1 0 -1 -1 0
          -1 -1 0 -1 -1 0
          -1 -1 0 1 1 0
          -1 -1 0 -1 -1 0
          -1 -1 0 -1 -1 0
          -1 -1 0 -1 -1 0
          1 1 0 -1 -1 0
          -1 -1 0 -1 -1 0
          -1 -1 0 -1 -1 0
          -1 -1 0 -1 -1 0
          -1 -1 0 -1 -1 0
          1 1 0 -1 -1 0
          -1 -1 0 -1 -1 0
          -1 -1 0 -1 -1 0
          -1 -1 0 -1 -1 0
          1 1 0 -1 -1 0
          -1 -1 0 -1 -1 0
          -1 -1 0 -1 -1 0
          -1 -1 0 -1 -1 0
          -1 -1 0 -1 -1 0
          1 1 0 -1 -1 0
          -1 -1 0 -1 -1 0
          -1 -1 0 -1 -1 0
          -1 -1 0 -1 -1 0
          -1 -1 0 -1 -1 0
          1 1 0 -1 -1 0
          -1 -1 0 -1 -1 0
          1 1 0 -1 -1 0
          -1 -1 0 -1 -1 0
          -1 -1 0 -1 -1 0
          -1 -1 0 -1 -1 0
          1 1 0 -1 -1 0
          -1 -1 0 -1 -1 0
          -1 -1 0 -1 -1 0
          -1 -1 0 -1 -1 0
          1 1 0 -1 -1 0
          -1 -1 0 1 1 0
          <InformationKey name="L2_NORM_RANGE" location="vtkDataArray" length="2">
            <Value index="0">
              1.4142135624
            </Value>
            <Value index="1">
              1.4142135624
            </Value>
          </InformationKey>
        </DataArray>
        <DataArray type="Float64" Name="Velocity" NumberOfComponents="3" format="ascii" RangeMin="0" RangeMax="1.4147061578613165">
          0 0 0 0.31846799157577094 0.024469020540458835 0
          0.7324871610827627 0.1004423192300144 0 0.5149956041930772 0.03723182995422992 0
          0 0 0 1 0 0
          0.7173843284960131 0.026922766975500074 0 0.3701408146218034 0.022393873527376026 0
          0.6433317794986255 0.03891784457470173 0 0.3128369944850727 0.0051378099463565904 0
          0.6667130347998638 0.028445039181763686 0 0.5623501354533357 0.033900233468306756 0
          0.7023059782631971 -0.09712787194936846 0 0.7183317567698462 0.03229865012622485 0
          0.6834742970429626 0.04779722532532752 0 0 0 0
          0.5071368814976105 0.027164131736269494 0 0.7230003014844892 0.058798793484457074 0
          0.6050823202355595 -0.005283920350448258 0 0.6485398073537337 0.04113220927200384 0
          0.6593556037286533 0.05793849681750021 0 0.6845079329494244 0.059287427227598805 0
          0.4256455441998752 0.03656120644454173 0 0.34828214839934796 -0.028458910308031844 0
          0.7272930994762737 0.0972848309907766 0 0.6423959782287795 0.07978118830189596 0
          0.7386510342432336 0.11818207184697245 0 0.7085260573784263 0.096336091854432 0
          0.3223469008319753 0.012011714850099293 0 0.5702985189961981 0.044801504281950975 0
          0.4451147768358965 0.0016980701093513256 0 0.6020474479925993 0.09002571002600644 0
          0 0 0 0.618752713709136 0.07825322275210438 0
          0.7267605354996762 0.15481907569331874 0 0.755067818426563 0.15439844984591952 0
          0 0 0 0.7722950482815246 0.1903860440490182 0
          0.6481368433472039 0.13534956890006497 0 0.3241275045419973 0.008569382895027204 0
          0.5665713813680328 0.08496274329059443 0 0.20166271403643765 0.004974144040074236 0
          0 0 0 0.468152799293338 0.049005991104776526 0
          0.7646437357776777 0.1827546978128724 0 0.7490331185196217 0.22479918611892286 0
          0.8229401533084986 0.2458582260790697 0 0.6716299104693446 0.20869502973559356 0
          0.5182219973940079 0.09417558957705333 0 0.8052316848618059 0.28421570451747474 0
          0.31167168425439795 0.024331876336825934 0 0.4621969094450267 0.024560279337025138 0
          0.7956112721044599 0.15301326410345217 0 0.8745346084160162 0.27595769056987196 0
          0.553207740732177 0.16702445899275425 0 0.6843374071940191 0.2923346572804254 0
          0.8649671526234337 0.3435261290694503 0 0.35366704380568176 0.047964321363083595 0
          0.7924541223841071 0.37235505345556497 0 0.5853699321312594 0.2562408764833647 0
          0 0 0 0.9449669620062721 0.36485109125685566 0
          0.6997032135611669 0.37580240559635547 0 0.18851083814642208 0.01100694631530768 0
          0.9838510860578589 0.23726345332717966 0 0.3753747098525138 0.0934394832368168 0
          0.4575312584595831 0.1930719698272329 0 0.8684123894257334 0.4258063226536108 0
          0.586501696731769 0.3366494745477503 0 0 0 0
          0.7492977777097091 0.10247376240408806 0 0.4669759865817251 0.2714804859043313 0
          0.7368452729005286 0.4666851352888455 0 1.0519518757734447 0.359436103074597 0
          0.9612127233452946 0.4643818796979657 0 0.33024281501260006 0.12837258175673302 0
          0.21926909374275916 0.03634966529240931 0 0.5622084698999626 0.4171724835199521 0
          0.845622879810365 0.5153491262851237 0 1.1166536082680938 0.28655247051669 0
          0.46176654256865846 0.3477840628249326 0 0.7216589029340762 0.5173458709687988 0
          0.34301197691675245 0.19401946021331132 0 0.24970827717885538 0.06578265860151239 0
          1.03612331326997 0.19312288441634845 0 0.6034268829911724 0.5001028117130059 0
          0.9577233224005824 0.5248484118751742 0 0.3416658225228613 0.26583587772081024 0
          0 0 0 0.8344864673440823 0.0842497752776811 0
          1.189349662981627 0.3829127520305779 0 0.7857180723821506 0.5669060912916768 0
          0.4352374997839154 0.4271125020460914 0 0.637293675667242 0.5575094177612339 0
          1.2249100176185876 0.2759441427574323 0 0.2359770672965546 0.12364026494078982 0
          0.31222810964997905 0.3137228845528491 0 0.12659346801975951 0.016753400563105494 0
          0.24484598611475236 0.1895450910560753 0 0.4783939009423683 0.010857162740165096 0
          0.9298166965904459 0.5651531187187937 0 0.41910923180754994 0.4837702781838701 0
          1.1458767291553154 0.47273634917587876 0 0.2454102362435867 0.253018837279416 0
          0.6933318585758113 0.5898459454450649 0 0.277512319455217 0.35364583823727846 0
          1.1702178769049691 0.14138315066336346 0 1.2938380900429427 0.3305956794630942 0
          0.1451444608868569 0.045596852387003055 0 0.5187018013630296 0.5619333579567062 0
          0.8033500455097476 0.5725983027871743 0 0.20144524119542692 0.27462509951356223 0
          0.3233695812958937 0.4598587307071541 0 1.0793435630013608 0.48591356789667967 0
          0.9191421588709482 0.028376844466084527 0 0.13974885141046245 0.07417222946905615 0
          0.5547204270448256 0.560210157573515 0 0.2155934243255949 0.3535480868449753 0
          1.269490603585058 0.3574387515007212 0 1.3485331294225524 0.19451012920473587 0
          0.14344105257314124 0.12879090065041174 0 0 0 0
          0.15301169104218706 0.19837353480939143 0 0.32497028757589175 0.4841472478855517 0
          1.3557625271299432 0.25844403846367653 0 0.16703515173015762 0.2853628972792212 0
          0.06176308827779067 0.008595254057550931 0 0.6547455431303374 0.5083052590678035 0
          0.15460306834427584 0.3322626471860005 0 0.9861717677030795 0.4236683607502557 0
          0.36269980069457614 0.45745924080645806 0 0.10993284519905916 0.2020665418747404 0
          1.1791938540309999 0.3392834785620436 0 0.08188642004311504 0.032373096059444564 0
          0.1037355878033162 0.13424722712507234 0 1.2509500110087115 0.05800403872716031 0
          1.3146922274997621 0.2546055523998277 0 0.16185364771107033 0.3453636027132496 0
          0.08366056860857538 0.19561563574623142 0 1.402411713327538 0.1541356899131989 0
          0.4282873517771722 0.358741739668865 0 0.0873321449053705 0.09872644153914552 0
          0.0735090701058102 0.24312607563254898 0 0.07359072044419593 0.04578213742428253 0
          0.7648997253092661 0.3082176878713051 0 0.07848709609015223 0.13279836875815662 0
          0.06757326855242542 0.20964809350913463 0 0.07060496915168361 0.2102977214785306 0
          0 0 0 0.08433077517621078 0.21766661688850172 0
          0.994767490415366 0.25407357312683165 0 1.4001006805555047 0.0804360039564768 0
          1.1943645297587806 0.21082895281279865 0 0.04085033091905395 0.15595266090266163 0
          0.06076172251322856 0.05961362119243298 0 0.04707619303165756 0.12360473780923474 0
          0.9259087104947752 0.006636313868491313 0 0.03213724978650365 0.14020586658558035 0
          0.02152070803215733 0.1225878490331594 0 0 0 0
          0.0550892309032921 0.08861281140556598 0 0.40143681316128565 0.0705406869850515 0
          0 0 0 0.7065213999815488 0.11268296575284781 0
          0 0 0 0.017463824962226353 0.09337328386848188 0
          0.029074908198714635 0.10966443585330772 0 0.040773267285544396 0.014345549861475711 0
          1.3293603322531626 0.07017358513182947 0 0 0 0
          0.011047476660041635 0.06969880545486588 0 0.04237662051554416 0.05804130580815803 0
          0.9280995825032393 0.07590720176817002 0 0.032571828356982184 0.07756926071861459 0
          0 0 0 0.018658437445871343 0.07839933993155372 0
          0 0 0 1.4146586225913207 0.011597181500517409 0
          0.35430058649914353 0.02794890887898274 0 0.006620210736059588 0.056448030918064045 0
          1.130730862669994 0.029958869126138387 0 0.018071124889233958 0.06890028901953776 0
          0.6742415491288481 0.03990171223386646 0 0.033219396365664934 0.02333058791475136 0
          0 0 0 0.006842764175607349 0.04418262177605349 0
          1.4061583858991726 -0.025789641024493225 0 0 0 0
          0 0 0 0.01367392433163961 0.04816057087028967 0
          0.025722198763505736 0.027284718175071748 0 0.0048594490693315475 0.03552572848705511 0
          0.019228682844138558 0.04186398112067622 0 0.33554566705720856 0.00011562421864231983 0
          0.01272452211760086 0.041231597356596934 0 0 0 0
          1.2535293638812646 -0.044964437782085406 0 0.6597680466703775 -0.02236456726925832 0
          0.9414431195894483 -0.05403503375003189 0 0.004410578560115866 0.027461755669228073 0
          1.1540798759505488 -0.0923991011420442 0 0.018131056423729947 0.006083852989991889 0
          0 0 0 0 0 0
          0.014969480712485597 0.024472490409301845 0 0 0 0
          1.3145762759276693 -0.11227858974362527 0 0.008302850898012989 0.0271169252085391 0
          0.003727192960556035 0.020952255879476075 0 0.3416377166501787 -0.026356420152546217 0
          0 0 0 1.3926628418875007 -0.1220077479077809 0
          0.00792335626511056 0.021023777803857616 0 0.6743927813765856 -0.12148923127640021 0
          0.012377358024549747 0.010480329532140342 0 0.002947932167453544 0.015168342482176371 0
          0 0 0 0.9266094956104225 -0.16686786369364615 0
          0.005079153435351981 0.016165016003478742 0 1.3737529048577455 -0.12186604478711134 0
          0 0 0 0.0025979688279926245 0.011041734182644558 0
          1.1297254775567338 -0.1941033105354726 0 0 0 0
          0 0 0 0.3902232302170897 -0.1694128816113585 0
          0.006608037783218594 0.00866504974242568 0 0.005000937418875284 0.01061776397181729 0
          0.9430571298281394 -0.04743996777381457 0 0.0015583644737059241 0.007349090027028198 0
          1.2799341209377064 -0.20362952083381514 0 1.2087982728100426 -0.09419531127900484 0
          0.006640870039402849 0.0022194555894462374 0 0 0 0
          0 0 0 0.669833417028147 -0.23522760082484478 0
          0 0 0 0 0 0
          0.0009468664187815257 0.005120478948576793 0 0.046056240391317296 -0.07517231574638088 0
          0 0 0 0.0028777560297612976 0.005978830888984307 0
          1.355863869772716 -0.20480640618432083 0 0.8989370224942066 -0.2686583299484427 0
          0.0038008661652169542 0.0028746202156860676 0 0 0 0
          0.02590113915008284 -0.034319900578055874 0 0.001094845185606398 0.003022384651194485 0
          0.002457887020945336 0.0036383181579742944 0 0 0 0
          0.014879911883656205 -0.00914598155818487 0 0 0 0
          0.3090873586136897 -0.21037134452458464 0 1.3212709220580054 -0.1787965300279814 0
          0.0011852918488510374 0.0020969155203338277 0 1.0570585433975144 -0.30200008150468927 0
          0.0062596447111953725 0.00794159718681207 0 0.002121953071923361 0.0005431781995141572 0
          0.0008314026101547008 0.0017174681948090465 0 0 0 0
          0 0 0 0.10159048923444922 -0.10950314938640168 0
          0 0 0 0.0021500842128438858 0.013545022912436302 0
          0 0 0 1.2257403889523586 -0.29385423539352923 0
          0.06403755514195601 -0.060459337680119525 0 0.0011693349243766156 0.0008796420565075447 0
          0 0 0 0.0003959415486596507 0.0006635283144913261 0
          0.25564321527847683 -0.007697235922516286 0 0.5378759607135619 -0.2851203514122196 0
          0.0012746398894700787 0.016819749575249468 0 1.159214954219548 -0.14508647833679977 0
          0 0 0 0 0 0
          0.0010494452419943841 0.01808063539389973 0 0.00024297613544710291 0.0002487709298993751 0
          0.28972624589146273 -0.21483247499171382 0 0.016911784085498288 -0.005879502745345672 0
          0.05192079592567616 -0.04074744194005241 0 0.77080689058611 -0.33053987833513043 0
          0 0 0 1.2889969122128884 -0.2658869525801577 0
          0.1386157783040742 -0.12311063804342533 0 0.00012566797834646378 0.019241215761141787 0
          0 0 0 0.010312775522853595 0.008964048605254427 0
          0 0 0 0 0 0
          0.004583080760187014 0.01881712886275971 0 0.0001294040232695914 -0.00013414626515499122 0
          -0.0005145237903375443 0.018870942593269754 0 0.004070804718677558 0.023584621530261196 0
          0.7911694131090928 -0.09309462960735894 0 0 0 0
          0 0 0 0.47941511319484403 -0.28910399487835925 0
          -0.00039436942198582166 0.01827136532916243 0 0.938533139476325 -0.35022847195648493 0
          1.2428865295427227 -0.23188119839770252 0 0 0 0
          0.03431257474533935 -0.0170235360232164 0 0 0 0
          0.30590752428403906 -0.22255721769696735 0 0.00022727715577394486 0.028014196866081968 0
          0 0 0 -0.0007034378484171945 0.017180418044720362 0
          0.013231018888160815 0.017172810172552018 0 0 0 0
          -0.00029850818304437936 0.029416252664615693 0 0.15827189738369773 -0.1260810886318653 0
          0 0 0 -0.0010462721433593593 0.015737369994705493 0
          0 0 0 -0.0014155926376556243 0.027012163984071236 0
          0.6574349897996572 -0.3363075348224959 0 0 0 0
          -0.001337299845498883 0.013563304132938677 0 -0.0021705371527937123 0.025506549700381458 0
          1.085215263598343 -0.16689326612899708 0 0.4671691100134863 -0.2865766692960386 0
          0.0042825850694335294 0.028036849396023696 0 0 0 0
          -0.0014678071078026759 0.01125378668431879 0 1.2089778481420421 -0.3126265244431854 0
          0.0517436122255065 -0.027200256640239083 0 -0.004311990032049917 0.024672171289984137 0
          1.0403375922188378 -0.37447946172285357 0 0.2992956927108782 -0.2124852252785811 0
          0 0 0 -0.0012977046880874746 0.009048908949691592 0
          -0.0030473506717828 0.03172485210907986 0 0.13635138334209188 -0.1044680536123096 0
          -0.004689160341990933 0.021204675026817957 0 0.029946798887755723 -0.002905891344830371 0
          0.8161404024879071 -0.3706206009641856 0 0 0 0
          -0.0013007605310829619 0.006735052239053325 0 -0.004139128318623742 0.016521973567635042 0
          0.6250646108969251 -0.328437181599162 0 0.706673046760544 -0.08323552579725409 0
          0 0 0 -0.0013010934223706854 0.004523832364466252 0
          -0.00905459105545009 0.02661648725386435 0 -0.004703313464163026 0.013757682101470327 0
          0.006669286839302769 0.01922075640787466 0 0.4532844886239151 -0.2731156748791364 0
          0.07616615571910192 -0.0561682438996977 0 0 0 0
          -0.0011657558916341804 0.0024405900312178346 0 1.1041490505561264 -0.3647426180940786 0
          -0.0045269944503745 0.00997401415587416 0 -0.009614670089259997 0.020934015915363605 0
          0.29838584604896756 -0.20457344892605958 0 1.1477498558174046 -0.3041554002541782 0
          0 0 0 0.952723942387086 -0.37491136647423423 0
          -0.004262782398628835 0.006606636208320666 0 -0.0004874169871282161 0.0006327255709066335 0
          0.04582721064807334 -0.021672612577391413 0 -0.009761489931134931 0.014682880928333305 0
          0.15629969798953414 -0.12034273574843504 0 -0.0031970620968622752 0.0034961316326134724 0
          0.6725985740145524 -0.333546950952281 0 -0.00824933603639757 0.014850452109060783 0
          0 0 0 1.0061257352560673 -0.2097528980145184 0
          0.31724911713382536 -0.01765003747241953 0 -0.007990245461132566 0.007122334985102108 0
          -0.0152344697578363 0.015774459561297003 0 -0.014471355055596501 0.01436788154133944 0
          0.10449888948492178 -0.07768671799240039 0 0.4273926988044851 -0.26313276004004554 0
          0 0 0 -0.0037106182978259815 0.0016950569279450152 0
          1.0388200967104797 -0.3356975158943904 0 0.006623873416805658 -0.018351052947078002 0
          -0.014999781491291627 0.008274921606929761 0 -0.01349674172020921 0.0007849272305301334 0
          0.8215429700853685 -0.34256859436038034 0 0.20462885132105366 -0.15550028412013917 0
          0.5511760651857327 -0.07388719161624518 0 -0.01876266126898609 0.006383429349343267 0
          0 0 0 -0.00921282695090104 0.0024660197648473797 0
          0.5648000942052063 -0.3023182167841466 0 1.0816437712138667 -0.27818772864159885 0
          0.054902904930544665 -0.06756301412434312 0 0.3486556969208482 -0.23355606602651743 0
          0.0035212699822053228 -0.027076313444018434 0 -0.014199123630483392 -0.007458593002054405 0
          -0.015471000936640802 0.0017592827629372809 0 0.9721906695948513 -0.3264113440458988 0
          0 0 0 -0.017730387097716283 0.00040769643488532077 0
          0.7446944479285159 -0.3451089333497561 0 0.4877021391841155 -0.2942929522291108 0
          0 0 0 0.14233921815980538 -0.13588326024212413 0
          0.04233699835196508 -0.06811450622908635 0 0.9560097090239057 -0.09877723587140844 0
          0.006028153993452066 -0.03264262525641201 0 -0.013976144599377138 -0.00004660088163712285 0
          -0.009895544901608232 -0.010796199402021712 0 0.2867511255384631 -0.23012866053162395 0
          0 0 0 0.9848736203699056 -0.3877238902479486 0
          -0.00916698922437626 -0.0004963223741413505 0 0.11563273848984795 -0.1409172064006252 0
          0.04126212903088205 -0.06390810992950235 0 0.566131985531455 -0.4262822448903723 0
          0.007589565840118956 -0.018270306524727994 0 0.2602229562586008 -0.2915897108349565 0
          0 0 0 0.042793698716450924 -0.03835228833675193 0
          0.11878444354079662 -0.11772470380448834 0 0 0 0
          <InformationKey name="L2_NORM_RANGE" location="vtkDataArray" length="2">
            <Value index="0">
              0
            </Value>
            <Value index="1">
              1.4147061579
            </Value>
          </InformationKey>
        </DataArray>
        <DataArray type="Float64" Name="Pressure" format="ascii" RangeMin="-8.514306350518089" RangeMax="36.915938978289844">
          36.25391539934178 36.41478200949742 36.737730923280445 36.18937162743183 36.011644081932324 36.77989761356474
          36.04726185983725 35.50002656376666 35.353324164378186 34.592128965333366 36.099018067279616 34.37577443774329
          36.915938978289844 35.29864001531325 34.38095568030246 33.585186146125004 33.43187497293484 34.48808149914482
          36.488274080577845 35.53570645775355 33.29219146565103 34.74560802804683 32.35528474122223 36.88344645030726
          33.48038882872288 32.18758952753526 32.30032804305708 33.9057834173869 31.415146846016714 34.9177641896717
          35.906075811308675 30.855519851112543 36.703832311883126 34.179183850651036 33.0615299289051 31.137701111655634
          30.3191869946073 31.54526548690915 33.51568797616884 35.18915373503548 29.466898702993017 35.60946307049171
          36.72828179714321 34.357471361436716 29.631981935821134 32.11732982445646 30.123655883361927 32.78494202344428
          33.85190821691757 30.74129250421038 34.48335064225666 27.49466898625269 27.828703636373966 28.481200404139923
          33.39383782296971 32.046789901438146 29.31552217503805 33.99185508729694 30.186168550650052 32.76344391859075
          34.724541856692554 27.48293164916069 31.137940365647403 34.09009917868148 25.80994329062729 33.75726209161597