<?xml version="1.0"?>
<VTKFile type="UnstructuredGrid" version="0.1" byte_order="LittleEndian" header_type="UInt32" compressor="vtkZLibDataCompressor">
  <UnstructuredGrid>
    <Piece NumberOfPoints="64" NumberOfCells="27">
      <PointData>
        <DataArray type="Float64" Name="tem_BC" format="ascii" RangeMin="0" RangeMax="0">
          0 0 0 0 0 0
          0 0 0 0 0 0
          0 0 0 0 0 0
          0 0 0 0 0 0
          0 0 0 0 0 0
          0 0 0 0 0 0
          0 0 0 0 0 0
          0 0 0 0 0 0
          0 0 0 0 0 0
          0 0 0 0 0 0
          0 0 0 0
        </DataArray>
        <DataArray type="Float64" Name="tem_FIXNO" format="ascii" RangeMin="-1" RangeMax="1">
          1 1 1 1 1 1
          1 1 1 1 1 1
          -1 -1 1 -1 -1 1
          1 1 1 -1 -1 1
          -1 -1 1 1 1 1
          -1 -1 1 -1 -1 1
          1 1 1 1 -1 -1
          1 -1 -1 1 1 1
          -1 -1 1 -1 -1 1
          1 -1 -1 -1 -1 1
          1 -1 -1 -1
        </DataArray>
        <DataArray type="Float64" Name="Temperature" format="ascii" RangeMin="0" RangeMax="0.05483074322798895">
          0 0 0 0 0 0
          0 0 0 0 0 0
          0.03010845579597824 0.024158880698652598 0 0.03970890652134716 0.030108455796054933 0
          0 0 0 0.03970890652162445 0.030108455796218545 0
          0.05483074322764704 0.03970890652173991 0 0 0 0
          0.03970890652122619 0.03010845579593848 0 0.054830743227196777 0.039708906521422005 0
          0 0 0 0 0.030108455796105462 0.039708906521463944
          0 0.03970890652170261 0.05483074322798895 0 0 0
          0.03970890652118706 0.03010845579592298 0 0.05483074322719376 0.039708906521465255 0
          0 0.03970890652140769 0.05483074322770171 0.05483074322746896 0.03970890652169096 0
          0 0.039708906521381475 0.05483074322754515 0.0548307432274853
        </DataArray>
      </PointData>
      <CellData>
        <DataArray type="UInt8" Name="vtkGhostType" format="ascii" RangeMin="0" RangeMax="1">
          0 0 0 0 0 0
          0 0 0 0 0 0
          1 1 1 1 0 0
          0 0 1 1 0 0
          1 1 1
        </DataArray>
      </CellData>
      <Points>
        <DataArray type="Float32" Name="Points" NumberOfComponents="3" format="ascii" RangeMin="1.1102230246251565e-16" RangeMax="1.0392305258366357">
          0 0.4000000059604645 0 0 0.20000000298023224 0
          0 -1.1102230246251565e-16 0 0.20000000298023224 0.4000000059604645 0
          0.20000000298023224 0.20000000298023224 0 0.20000000298023224 -1.1102230246251565e-16 0
          0.4000000059604645 0.4000000059604645 0 0.4000000059604645 0.20000000298023224 0
          0.4000000059604645 -1.1102230246251565e-16 0 0 0.4000000059604645 0.20000000298023224
          0 0.20000000298023224 0.20000000298023224 0 -1.1102230246251565e-16 0.20000000298023224
          0.20000000298023224 0.4000000059604645 0.20000000298023224 0.20000000298023224 0.20000000298023224 0.20000000298023224
          0.20000000298023224 -1.1102230246251565e-16 0.20000000298023224 0.4000000059604645 0.4000000059604645 0.20000000298023224
          0.4000000059604645 0.20000000298023224 0.20000000298023224 0.4000000059604645 -1.1102230246251565e-16 0.20000000298023224
          0 0.4000000059604645 0.4000000059604645 0 0.20000000298023224 0.4000000059604645
          0 -1.1102230246251565e-16 0.4000000059604645 0.20000000298023224 0.4000000059604645 0.4000000059604645
          0.20000000298023224 0.20000000298023224 0.4000000059604645 0.20000000298023224 -1.1102230246251565e-16 0.4000000059604645
          0.4000000059604645 0.4000000059604645 0.4000000059604645 0.4000000059604645 0.20000000298023224 0.4000000059604645
          0.4000000059604645 -1.1102230246251565e-16 0.4000000059604645 0 0.4000000059604645 0.6000000238418579
          0 0.20000000298023224 0.6000000238418579 0 -1.1102230246251565e-16 0.6000000238418579
          0.20000000298023224 0.4000000059604645 0.6000000238418579 0.20000000298023224 0.20000000298023224 0.6000000238418579
          0.20000000298023224 -1.1102230246251565e-16 0.6000000238418579 0.4000000059604645 0.4000000059604645 0.6000000238418579
          0.4000000059604645 0.20000000298023224 0.6000000238418579 0.4000000059604645 -1.1102230246251565e-16 0.6000000238418579
          0 0.6000000238418579 0 0.20000000298023224 0.6000000238418579 0
          0.4000000059604645 0.6000000238418579 0 0 0.6000000238418579 0.20000000298023224
          0.20000000298023224 0.6000000238418579 0.20000000298023224 0.4000000059604645 0.6000000238418579 0.20000000298023224
          0 0.6000000238418579 0.4000000059604645 0.20000000298023224 0.6000000238418579 0.4000000059604645
          0.4000000059604645 0.6000000238418579 0.4000000059604645 0.6000000238418579 0.4000000059604645 0
          0.6000000238418579 0.20000000298023224 0 0.6000000238418579 -1.1102230246251565e-16 0
          0.6000000238418579 0.4000000059604645 0.20000000298023224 0.6000000238418579 0.20000000298023224 0.20000000298023224
          0.6000000238418579 -1.1102230246251565e-16 0.20000000298023224 0.6000000238418579 0.4000000059604645 0.4000000059604645
          0.6000000238418579 0.20000000298023224 0.4000000059604645 0.6000000238418579 -1.1102230246251565e-16 0.4000000059604645
          0.6000000238418579 0.6000000238418579 0 0.6000000238418579 0.6000000238418579 0.20000000298023224
          0.6000000238418579 0.6000000238418579 0.4000000059604645 0.6000000238418579 0.4000000059604645 0.6000000238418579
          0.6000000238418579 0.20000000298023224 0.6000000238418579 0.6000000238418579 -1.1102230246251565e-16 0.6000000238418579
          0 0.6000000238418579 0.6000000238418579 0.20000000298023224 0.6000000238418579 0.6000000238418579
          0.4000000059604645 0.6000000238418579 0.6000000238418579 0.6000000238418579 0.6000000238418579 0.6000000238418579
          <InformationKey name="L2_NORM_RANGE" location="vtkDataArray" length="2">
            <Value index="0">
              1.1102230246e-16
            </Value>
            <Value index="1">
              1.0392305258
            </Value>
          </InformationKey>
        </DataArray>
      </Points>
      <Cells>
        <DataArray type="Int64" Name="connectivity" format="ascii" RangeMin="0" RangeMax="63">
          10 13 4 1 9 12
          3 0 11 14 5 2
          10 13 4 1 13 16
          7 4 12 15 6 3
          14 17 8 5 13 16
          7 4 19 22 13 10
          18 21 12 9 20 23
          14 11 19 22 13 10
          22 25 16 13 21 24
          15 12 23 26 17 14
          22 25 16 13 28 31
          22 19 27 30 21 18
          29 32 23 20 28 31
          22 19 31 34 25 22
          30 33 24 21 32 35
          26 23 31 34 25 22
          9 12 3 0 39 40
          37 36 12 15 6 3
          40 41 38 37 18 21
          12 9 42 43 40 39
          21 24 15 12 43 44
          41 40 16 49 46 7
          15 48 45 6 17 50
          47 8 16 49 46 7
          25 52 49 16 24 51
          48 15 26 53 50 17
          25 52 49 16 15 48
          45 6 41 55 54 38
          24 51 48 15 44 56
          55 41 34 58 52 25
          33 57 51 24 35 59
          53 26 34 58 52 25
          27 30 21 18 60 61
          43 42 30 33 24 21
          61 62 44 43 33 57
          51 24 62 63 56 44
        </DataArray>
        <DataArray type="Int64" Name="offsets" format="ascii" RangeMin="8" RangeMax="216">
          8 16 24 32 40 48
          56 64 72 80 88 96
          104 112 120 128 136 144
          152 160 168 176 184 192
          200 208 216
        </DataArray>
        <DataArray type="UInt8" Name="types" format="ascii" RangeMin="12" RangeMax="12">
          12 12 12 12 12 12
          12 12 12 12 12 12
          12 12 12 12 12 12
          12 12 12 12 12 12
          12 12 12
        </DataArray>
      </Cells>
    </Piece>
  </UnstructuredGrid>
</VTKFile>
