<?xml version="1.0"?>
<VTKFile type="UnstructuredGrid" version="0.1" byte_order="LittleEndian" header_type="UInt32" compressor="vtkZLibDataCompressor">
  <UnstructuredGrid>
    <Piece NumberOfPoints="64" NumberOfCells="27">
      <PointData>
        <DataArray type="Float64" Name="tem_BC" format="ascii" RangeMin="0" RangeMax="0">
          0 0 0 0 0 0
          0 0 0 0 0 0
          0 0 0 0 0 0
          0 0 0 0 0 0
          0 0 0 0 0 0
          0 0 0 0 0 0
          0 0 0 0 0 0
          0 0 0 0 0 0
          0 0 0 0 0 0
          0 0 0 0 0 0
          0 0 0 0
        </DataArray>
        <DataArray type="Float64" Name="tem_FIXNO" format="ascii" RangeMin="-1" RangeMax="1">
          -1 -1 1 -1 -1 1
          1 1 1 -1 -1 1
          -1 -1 1 1 1 1
          1 1 1 1 1 1
          1 1 1 -1 -1 1
          -1 -1 1 1 1 1
          -1 -1 1 -1 -1 1
          1 1 1 -1 -1 1
          -1 -1 1 1 1 1
          -1 -1 1 -1 -1 1
          -1 -1 1 -1
        </DataArray>
      </PointData>
      <CellData>
        <DataArray type="UInt8" Name="vtkGhostType" format="ascii" RangeMin="0" RangeMax="1">
          0 0 0 0 0 0
          0 0 1 1 1 1
          1 1 1 1 1 1
          1 1 1 1 1 1
          1 1 1
        </DataArray>
      </CellData>
      <Points>
        <DataArray type="Float32" Name="Points" NumberOfComponents="3" format="ascii" RangeMin="0.5656854333786078" RangeMax="1.5362291588855583">
          0.6000000238418579 0.4000000059604645 0.6000000238418579 0.6000000238418579 0.20000000298023224 0.6000000238418579
          0.6000000238418579 -1.1102230246251565e-16 0.6000000238418579 0.800000011920929 0.4000000059604645 0.6000000238418579
          0.800000011920929 0.20000000298023224 0.6000000238418579 0.800000011920929 -1.1102230246251565e-16 0.6000000238418579
          1 0.4000000059604645 0.6000000238418579 1 0.20000000298023224 0.6000000238418579
          1 -1.1102230246251565e-16 0.6000000238418579 0.6000000238418579 0.4000000059604645 0.800000011920929
          0.6000000238418579 0.20000000298023224 0.800000011920929 0.6000000238418579 -1.1102230246251565e-16 0.800000011920929
          0.800000011920929 0.4000000059604645 0.800000011920929 0.800000011920929 0.20000000298023224 0.800000011920929
          0.800000011920929 -1.1102230246251565e-16 0.800000011920929 1 0.4000000059604645 0.800000011920929
          1 0.20000000298023224 0.800000011920929 1 -1.1102230246251565e-16 0.800000011920929
          0.6000000238418579 0.4000000059604645 1 0.6000000238418579 0.20000000298023224 1
          0.6000000238418579 -1.1102230246251565e-16 1 0.800000011920929 0.4000000059604645 1
          0.800000011920929 0.20000000298023224 1 0.800000011920929 -1.1102230246251565e-16 1
          1 0.4000000059604645 1 1 0.20000000298023224 1
          1 -1.1102230246251565e-16 1 0.6000000238418579 0.4000000059604645 0.4000000059604645
          0.6000000238418579 0.20000000298023224 0.4000000059604645 0.6000000238418579 -1.1102230246251565e-16 0.4000000059604645
          0.800000011920929 0.4000000059604645 0.4000000059604645 0.800000011920929 0.20000000298023224 0.4000000059604645
          0.800000011920929 -1.1102230246251565e-16 0.4000000059604645 1 0.4000000059604645 0.4000000059604645
          1 0.20000000298023224 0.4000000059604645 1 -1.1102230246251565e-16 0.4000000059604645
          0.6000000238418579 0.6000000238418579 0.6000000238418579 0.800000011920929 0.6000000238418579 0.6000000238418579
          1 0.6000000238418579 0.6000000238418579 0.6000000238418579 0.6000000238418579 0.800000011920929
          0.800000011920929 0.6000000238418579 0.800000011920929 1 0.6000000238418579 0.800000011920929
          0.6000000238418579 0.6000000238418579 1 0.800000011920929 0.6000000238418579 1
          1 0.6000000238418579 1 0.4000000059604645 0.4000000059604645 0.6000000238418579
          0.4000000059604645 0.20000000298023224 0.6000000238418579 0.4000000059604645 -1.1102230246251565e-16 0.6000000238418579
          0.4000000059604645 0.4000000059604645 0.800000011920929 0.4000000059604645 0.20000000298023224 0.800000011920929
          0.4000000059604645 -1.1102230246251565e-16 0.800000011920929 0.4000000059604645 0.4000000059604645 1
          0.4000000059604645 0.20000000298023224 1 0.4000000059604645 -1.1102230246251565e-16 1
          0.4000000059604645 0.6000000238418579 0.6000000238418579 0.4000000059604645 0.6000000238418579 0.800000011920929
          0.4000000059604645 0.6000000238418579 1 0.4000000059604645 0.4000000059604645 0.4000000059604645
          0.4000000059604645 0.20000000298023224 0.4000000059604645 0.4000000059604645 -1.1102230246251565e-16 0.4000000059604645
          0.6000000238418579 0.6000000238418579 0.4000000059604645 0.800000011920929 0.6000000238418579 0.4000000059604645
          1 0.6000000238418579 0.4000000059604645 0.4000000059604645 0.6000000238418579 0.4000000059604645
          <InformationKey name="L2_NORM_RANGE" location="vtkDataArray" length="2">
            <Value index="0">
              0.56568543338
            </Value>
            <Value index="1">
              1.5362291589
            </Value>
          </InformationKey>
        </DataArray>
      </Points>
      <Cells>
        <DataArray type="Int64" Name="connectivity" format="ascii" RangeMin="0" RangeMax="63">
          10 13 4 1 9 12
          3 0 11 14 5 2
          10 13 4 1 13 16
          7 4 12 15 6 3
          14 17 8 5 13 16
          7 4 19 22 13 10
          18 21 12 9 20 23
          14 11 19 22 13 10
          22 25 16 13 21 24
          15 12 23 26 17 14
          22 25 16 13 1 4
          31 28 0 3 30 27
          2 5 32 29 1 4
          31 28 4 7 34 31
          3 6 33 30 5 8
          35 32 4 7 34 31
          9 12 3 0 39 40
          37 36 12 15 6 3
          40 41 38 37 18 21
          12 9 42 43 40 39
          21 24 15 12 43 44
          41 40 49 10 1 46
          48 9 0 45 50 11
          2 47 49 10 1 46
          52 19 10 49 51 18
          9 48 53 20 11 50
          52 19 10 49 48 9
          0 45 55 39 36 54
          51 18 9 48 56 42
          39 55 46 1 28 58
          45 0 27 57 47 2
          29 59 46 1 28 58
          0 3 30 27 36 37
          61 60 3 6 33 30
          37 38 62 61 45 0
          27 57 54 36 60 63
        </DataArray>
        <DataArray type="Int64" Name="offsets" format="ascii" RangeMin="8" RangeMax="216">
          8 16 24 32 40 48
          56 64 72 80 88 96
          104 112 120 128 136 144
          152 160 168 176 184 192
          200 208 216
        </DataArray>
        <DataArray type="UInt8" Name="types" format="ascii" RangeMin="12" RangeMax="12">
          12 12 12 12 12 12
          12 12 12 12 12 12
          12 12 12 12 12 12
          12 12 12 12 12 12
          12 12 12
        </DataArray>
      </Cells>
    </Piece>
  </UnstructuredGrid>
</VTKFile>
