<?xml version="1.0"?>
<VTKFile type="UnstructuredGrid" version="0.1" byte_order="LittleEndian" header_type="UInt32" compressor="vtkZLibDataCompressor">
  <UnstructuredGrid>
    <Piece NumberOfPoints="15" NumberOfCells="16">
      <PointData>
        <DataArray type="Float64" Name="Velocity" NumberOfComponents="3" format="ascii" RangeMin="2.6677841329462924" RangeMax="2.900000082615684">
          2.6193 -0.5063 0 2.8999776356548885 -0.00009016200860427395 0
          2.900000000196499 0 0 2.6193 -0.5063 0
          2.899977619576066 -0.00009010342303163536 0 2.900000000196499 0 0
          2.6193 -0.5063 0 2.8999776309883707 -0.00009011936193689869 0
          2.900000033042119 0 0 2.9000000504054197 0 0
          2.899977497705691 -0.00008898924636230039 0 2.6193 -0.5063 0
          2.900000082615684 0 0 2.899977726783899 -0.00009018353870209975 0
          2.6193 -0.5063 0
          <InformationKey name="L2_NORM_RANGE" location="vtkDataArray" length="2">
            <Value index="0">
              2.6677841329
            </Value>
            <Value index="1">
              2.9000000826
            </Value>
          </InformationKey>
        </DataArray>
        <DataArray type="Float64" Name="Pressure" format="ascii" RangeMin="0.291995488840935" RangeMax="0.6247193999999999">
          0.6247193999999999 0.2920596865536648 0.2919955147068995 0.6247193999999999 0.2920596494323367 0.2919955147068995
          0.6247193999999999 0.29205966203443284 0.2919955408759292 0.29199562070073826 0.2920590036560019 0.6247193999999999
          0.291995488840935 0.2920597324846299 0.6247193999999999
        </DataArray>
        <DataArray type="Float64" Name="Temperature" format="ascii" RangeMin="0.9999954260869156" RangeMax="1.2585">
          1.2585 1.0000966869933496 0.9999955582352619 1.2585 1.0000966282850847 0.9999955582352619
          1.2585 1.000096643085361 0.9999955906362719 0.9999957009155945 1.0000955832025107 1.2585
          0.9999954260869156 1.000096691019699 1.2585
        </DataArray>
        <DataArray type="Float64" Name="Density" format="ascii" RangeMin="0.9999890811234289" RangeMax="1.7">
          1.7 1.0001077085983312 0.9999890811234289 1.7 1.0001076401916935 0.9999890811234289
          1.7 1.0001076685449473 0.99998913834299 0.9999893014382 1.0001064739354444 1.7
          0.9999891246884615 1.0001078618545556 1.7
        </DataArray>
        <DataArray type="Float64" Name="Momentum" NumberOfComponents="3" format="ascii" RangeMin="2.899968335454441" RangeMax="4.535233026008696">
          4.4528099999999995 -0.86071 0 2.9002899881812167 -0.00009017171982784344 0
          2.899968335454441 0 0 4.4528099999999995 -0.86071 0
          2.900289773722944 -0.00009011312178136273 0 2.899968335454441 0 0
          4.4528099999999995 -0.86071 0 2.9002898673602786 -0.00009012906495747 0
          2.899968534236431 0 0 2.89996902457566 0 0
          2.900286269722572 -0.00008899872139757281 0 4.4528099999999995 -0.86071 0
          2.899968544211324 0 0 2.9002905237596797 -0.00009019326606583453 0
          4.4528099999999995 -0.86071 0
          <InformationKey name="L2_NORM_RANGE" location="vtkDataArray" length="2">
            <Value index="0">
              2.8999683355
            </Value>
            <Value index="1">
              4.535233026
            </Value>
          </InformationKey>
        </DataArray>
        <DataArray type="Float64" Name="Energy" format="ascii" RangeMin="4.922943057788222" RangeMax="7.585636452999999">
          7.585636452999999 4.923534818896781 4.922943057788222 7.585636452999999 4.923534393334993 4.922943057788222
          7.585636452999999 4.923534576646357 4.922943457994875 4.922944390444832 4.9235275478423075 7.585636452999999
          4.922943416390298 4.923535840571646 7.585636452999999
        </DataArray>
      </PointData>
      <CellData>
        <DataArray type="UInt8" Name="vtkGhostType" format="ascii" RangeMin="0" RangeMax="1">
          1 1 1 1 0 0
          0 0 0 0 0 0
          0 0 0 0
        </DataArray>
      </CellData>
      <Points>
        <DataArray type="Float32" Name="Points" NumberOfComponents="3" format="ascii" RangeMin="1.024999976158142" RangeMax="3.2335159336633637">
          1.537500023841858 1 0 1.537500023841858 0.5 0
          1.537500023841858 0 0 2.049999952316284 1 0
          2.049999952316284 0.5 0 2.049999952316284 0 0
          2.5625 1 0 2.5625 0.5 0
          2.5625 0 0 1.024999976158142 0 0
          1.024999976158142 0.5 0 1.024999976158142 1 0
          3.075000047683716 0 0 3.075000047683716 0.5 0
          3.075000047683716 1 0
          <InformationKey name="L2_NORM_RANGE" location="vtkDataArray" length="2">
            <Value index="0">
              1.0249999762
            </Value>
            <Value index="1">
              3.2335159337
            </Value>
          </InformationKey>
        </DataArray>
      </Points>
      <Cells>
        <DataArray type="Int64" Name="connectivity" format="ascii" RangeMin="0" RangeMax="14">
          2 1 9 1 10 9
          1 0 10 0 11 10
          5 4 2 4 1 2
          8 7 5 7 4 5
          12 13 8 13 7 8
          4 3 1 3 0 1
          7 6 4 6 3 4
          13 14 7 14 6 7
        </DataArray>
        <DataArray type="Int64" Name="offsets" format="ascii" RangeMin="3" RangeMax="48">
          3 6 9 12 15 18
          21 24 27 30 33 36
          39 42 45 48
        </DataArray>
        <DataArray type="UInt8" Name="types" format="ascii" RangeMin="5" RangeMax="5">
          5 5 5 5 5 5
          5 5 5 5 5 5
          5 5 5 5
        </DataArray>
      </Cells>
    </Piece>
  </UnstructuredGrid>
</VTKFile>
