<?xml version="1.0"?>
<VTKFile type="UnstructuredGrid" version="0.1" byte_order="LittleEndian" header_type="UInt32" compressor="vtkZLibDataCompressor">
  <UnstructuredGrid>
    <Piece NumberOfPoints="12" NumberOfCells="12">
      <PointData>
        <DataArray type="Float64" Name="Velocity" NumberOfComponents="3" format="ascii" RangeMin="2.6677841329462924" RangeMax="2.900000951486425">
          2.6193 -0.5063 0 2.899977726783899 -0.00009018353870209975 0
          2.900000082615684 0 0 2.6193 -0.5063 0
          2.899978208764576 -0.00008918844647712407 0 2.9000000438486304 0 0
          2.6193 -0.5063 0 2.899984886641809 -0.00007343347402907226 0
          2.900000951378792 0.000024985421823862175 0 2.900000033042119 0 0
          2.8999776309883707 -0.00009011936193689869 0 2.6193 -0.5063 0
          <InformationKey name="L2_NORM_RANGE" location="vtkDataArray" length="2">
            <Value index="0">
              2.6677841329
            </Value>
            <Value index="1">
              2.9000009515
            </Value>
          </InformationKey>
        </DataArray>
        <DataArray type="Float64" Name="Pressure" format="ascii" RangeMin="0.29198500473442984" RangeMax="0.6247193999999999">
          0.6247193999999999 0.2920597324846299 0.291995488840935 0.6247193999999999 0.29205921857062933 0.29199390816138826
          0.6247193999999999 0.2920500432610776 0.29198500473442984 0.2919955408759292 0.29205966203443284 0.6247193999999999
        </DataArray>
        <DataArray type="Float64" Name="Temperature" format="ascii" RangeMin="0.9999773491770465" RangeMax="1.2585">
          1.2585 1.000096691019699 0.9999954260869156 1.2585 1.0000953843637745 0.9999923388291728
          1.2585 1.0000769930487163 0.9999773491770465 0.9999955906362719 1.000096643085361 1.2585
        </DataArray>
        <DataArray type="Float64" Name="Density" format="ascii" RangeMin="0.9999712965235832" RangeMax="1.7">
          1.7 1.0001078618545556 0.9999891246884615 1.7 1.0001074087151864 0.9999867986086899
          1.7 1.000094380715712 0.9999712965235832 0.99998913834299 1.0001076685449473 1.7
        </DataArray>
        <DataArray type="Float64" Name="Momentum" NumberOfComponents="3" format="ascii" RangeMin="2.8999177113775048" RangeMax="4.535233026008696">
          4.4528099999999995 -0.86071 0 2.9002905237596797 -0.00009019326606583453 0
          2.899968544211324 0 0 4.4528099999999995 -0.86071 0
          2.900289691698048 -0.00008919802609356966 0 2.899961759813252 0 0
          4.4528099999999995 -0.86071 0 2.900258589290965 -0.00007344040473290835 0
          2.8999177112698753 0.00002498470465539609 0 2.899968534236431 0 0
          2.9002898673602786 -0.00009012906495747 0 4.4528099999999995 -0.86071 0
          <InformationKey name="L2_NORM_RANGE" location="vtkDataArray" length="2">
            <Value index="0">
              2.8999177114
            </Value>
            <Value index="1">
              4.535233026
            </Value>
          </InformationKey>
        </DataArray>
        <DataArray type="Float64" Name="Energy" format="ascii" RangeMin="4.922845189193414" RangeMax="7.585636452999999">
          7.585636452999999 4.923535840571646 4.922943416390298 7.585636452999999 4.923534069278836 4.922929636061894
          7.585636452999999 4.92347609242526 4.922845189193414 4.922943457994875 4.923534576646357 7.585636452999999
        </DataArray>
      </PointData>
      <CellData>
        <DataArray type="UInt8" Name="vtkGhostType" format="ascii" RangeMin="0" RangeMax="1">
          1 1 1 1 0 0
          0 0 0 0 0 0
        </DataArray>
      </CellData>
      <Points>
        <DataArray type="Float32" Name="Points" NumberOfComponents="3" format="ascii" RangeMin="2.5625" RangeMax="4.2201894765504395">
          3.075000047683716 1 0 3.075000047683716 0.5 0
          3.075000047683716 0 0 3.5875000953674316 1 0
          3.5875000953674316 0.5 0 3.5875000953674316 0 0
          4.099999904632568 1 0 4.099999904632568 0.5 0
          4.099999904632568 0 0 2.5625 0 0
          2.5625 0.5 0 2.5625 1 0
          <InformationKey name="L2_NORM_RANGE" location="vtkDataArray" length="2">
            <Value index="0">
              2.5625
            </Value>
            <Value index="1">
              4.2201894766
            </Value>
          </InformationKey>
        </DataArray>
      </Points>
      <Cells>
        <DataArray type="Int64" Name="connectivity" format="ascii" RangeMin="0" RangeMax="11">
          2 1 9 1 10 9
          1 0 10 0 11 10
          5 4 2 4 1 2
          8 7 5 7 4 5
          4 3 1 3 0 1
          7 6 4 6 3 4
        </DataArray>
        <DataArray type="Int64" Name="offsets" format="ascii" RangeMin="3" RangeMax="36">
          3 6 9 12 15 18
          21 24 27 30 33 36
        </DataArray>
        <DataArray type="UInt8" Name="types" format="ascii" RangeMin="5" RangeMax="5">
          5 5 5 5 5 5
          5 5 5 5 5 5
        </DataArray>
      </Cells>
    </Piece>
  </UnstructuredGrid>
</VTKFile>
