<?xml version="1.0"?>
<VTKFile type="UnstructuredGrid" version="0.1" byte_order="LittleEndian" header_type="UInt32" compressor="vtkZLibDataCompressor">
  <UnstructuredGrid>
    <Piece NumberOfPoints="148" NumberOfCells="236">
      <PointData>
        <DataArray type="Float64" Name="Velocity" NumberOfComponents="3" format="ascii" RangeMin="2.661025076427461" RangeMax="2.9457349833171182">
          2.9 0 0 2.9 0 0
          2.6193 -0.5063 0 2.891489283065056 -0.016291430768206966 0
          2.9 0 0 2.6193 -0.5063 0
          2.9225999865920835 0 0 2.776970509811416 -0.25453093270657867 0
          2.9457349833171182 0 0 2.6193 -0.5063 0
          2.683740526781628 -0.4719584261297797 0 2.8863629536423323 0 0
          2.684284735466914 -0.5345039780736529 0 2.6941806568950377 -0.5214703375696453 0
          2.7596499999999997 -0.25315 0 2.9 0 0
          2.8969218920643423 -0.004843814234901636 0 2.9010346777928544 -0.000271128082246903 0
          2.809078973003676 -0.16565559421223522 0 2.6193 -0.5063 0
          2.8585225997949397 -0.0987502577651268 0 2.667568467318552 -0.3763826200467096 0
          2.6186829910329905 -0.47462800739297417 0 2.6193 -0.5063 0
          2.713092692460324 -0.381437675627538 0 2.619386928474667 -0.5061252267531745 0
          2.6282427126439285 -0.5186190682820978 0 2.6193 -0.5063 0
          2.6772792318957155 -0.5133618884342909 0 2.6324450673107918 -0.530141243963167 0
          2.6348756160392455 -0.5418981381804442 0 2.6896872821481166 -0.5328802696646191 0
          2.6378242774435035 -0.5501454988236556 0 2.640922923053492 -0.5552090427677504 0
          2.6952774204484737 -0.49820254925066115 0 2.6425642477089135 -0.5566159223778379 0
          2.9 0 0 2.900827070040924 -0.004091223627669691 0
          2.890690682146509 -0.006168953000262546 0 2.9023792857315858 0 0
          2.9300829779140947 0 0 2.9035065442999324 -0.027361601061876125 0
          2.8843624152440603 -0.08517032897321052 0 2.931592819539408 0 0
          2.838617211368947 -0.20037366280843916 0 2.7868348182936016 -0.29187230144656634 0
          2.838647635633487 0 0 2.7539426326938523 -0.3546016800812155 0
          2.7312958296469474 -0.36900471652369304 0 2.723053707439752 -0.3527798869908832 0
          2.719631941314105 -0.32317199973576305 0 2.689475 -0.379725 0
          2.8603993115395476 -0.08171089149651246 0 2.8298249999999996 -0.126575 0
          2.8880763260136075 -0.02312545382400069 0 2.9 0 0
          2.9 0 0 2.8971990259662666 0.002143527805973634 0
          2.8941821564949306 -0.010616996550323221 0 2.8830356142073517 0.0021932689483393155 0
          2.89845550422724 -0.0024304705248240103 0 2.8941562534655563 0.00033713702786162565 0
          2.79932395356518 -0.19792048220725503 0 2.896458283573586 -0.040155787931275215 0
          2.8987390529751664 -0.0029564849336444106 0 2.85966787829705 -0.03529630686442437 0
          2.6860079841002054 -0.35707281186774686 0 2.6403184847356997 -0.43545292585695466 0
          2.729768899998907 -0.28314949756001123 0 2.6193 -0.5063 0
          2.61715070182452 -0.48122412794372404 0 2.6193 -0.5063 0
          2.8149732324352277 -0.18193819129251787 0 2.698921728362535 -0.3282966036573881 0
          2.8743847650224823 -0.059074578911496034 0 2.7517878696535436 -0.2288306039514366 0
          2.614585737445846 -0.4961133419105914 0 2.633254264350652 -0.4384399790449386 0
          2.8123413394568213 -0.12161671910759653 0 2.659360791996472 -0.40803699731459564 0
          2.6154492885515097 -0.5042680078999348 0 2.6190011367807444 -0.5046505603735009 0
          2.615655479169536 -0.49609800165991197 0 2.6193 -0.5063 0
          2.6216518860660827 -0.5061051309018294 0 2.6193 -0.5063 0
          2.6979962222611724 -0.4279945064699633 0 2.630163890637668 -0.5161657104818438 0
          2.743205517893711 -0.32161220327468093 0 2.6290538538591064 -0.49804913617192714 0
          2.622681962632988 -0.507626346551439 0 2.6244408701741575 -0.5129120798663015 0
          2.6382870684922732 -0.46137622950425433 0 2.6336455501895117 -0.5297879158775697 0
          2.623284500899134 -0.5114255702868772 0 2.6235315721945374 -0.5155303422558352 0
          2.6304269563444893 -0.5237961067199298 0 2.6193 -0.5063 0
          2.624504874164529 -0.5203565778065476 0 2.6193 -0.5063 0
          2.680780055778902 -0.5239271149876302 0 2.652892298891254 -0.5421773903917316 0
          2.6804689539237776 -0.4929224040766481 0 2.647326300505606 -0.5405198049789924 0
          2.625597623859644 -0.5252745514787474 0 2.633502023858227 -0.5363178401610099 0
          2.641142664914932 -0.5363970162140359 0 2.655197918823853 -0.5438222373351834 0
          2.626863800206158 -0.5299854039573259 0 2.628002345092295 -0.53526381172667 0
          2.635671743216622 -0.5462229550503381 0 2.6919421064009255 -0.5271546418103477 0
          2.6605118888800408 -0.5510174225591157 0 2.6869927140178724 -0.5336901086516684 0
          2.659244146892946 -0.5496523714146199 0 2.6302193134432517 -0.5448492959689828 0
          2.6393209219055866 -0.5533082607724205 0 2.6581621333707104 -0.5482572223044827 0
          2.629234983453684 -0.5394218270557556 0 2.659964300475798 -0.5493051334426583 0
          2.6305021155798514 -0.5483128530879812 0 2.630746983859822 -0.5536805104334467 0
          2.6417361553006535 -0.5562052271933987 0 2.694966559245225 -0.48369848657063874 0
          2.66005586123581 -0.5421452085451871 0 2.6947338277821076 -0.5097348426544044 0
          2.660099909011377 -0.5458965141645595 0 2.6304774290150323 -0.5611934754977691 0
          2.6428484725113464 -0.5565231447921833 0 2.6606705690165087 -0.5495318625653107 0
          2.630428562500144 -0.5565577419333148 0 2.796479020807074 0 0
          2.6193 -0.5063 0 2.6193 -0.5063 0
          2.768301562699874 0 0 2.694662328808906 -0.4695038000950115 0
          2.6193 -0.5063 0 2.6193 -0.5063 0
          2.6193 -0.5063 0 2.6422963374305577 -0.5553284013130869 0
          2.776756534961169 0 0 2.7226535789150037 -0.28825113115415935 0
          2.6193 -0.5063 0 2.6193 -0.5063 0
          2.6193 -0.5063 0 2.6193 -0.5063 0
          2.658747208642634 -0.5347345387041752 0 2.629407927376227 -0.5626261185137934 0
          <InformationKey name="L2_NORM_RANGE" location="vtkDataArray" length="2">
            <Value index="0">
              2.6610250764
            </Value>
            <Value index="1">
              2.9457349833
            </Value>
          </InformationKey>
        </DataArray>
        <DataArray type="Float64" Name="Pressure" format="ascii" RangeMin="0.6745895085147261" RangeMax="1.6318923713939115">
          0.7212399999999992 0.7212399999999992 1.5457895999999993 0.748105581401463 0.721239999999999 1.5457896000000009
          0.6949705365687958 1.0343870125376255 0.6745895085147261 1.5457896000000002 1.337704001512338 0.9023586896815365
          1.394274842606739 1.4221639519987137 1.1006063999999989 0.7212399999999985 0.7293636609748854 0.7248626437222547
          0.9432062406702161 1.5457896000000002 0.8372664237523618 1.3159076002907966 1.4964509715938268 1.5457896000000009
          1.226599283730503 1.5220755989293817 1.5030009779827196 1.5457896000000009 1.3918589111769388 1.4867845232918862
          1.4732142917025728 1.4072293029943446 1.4602835927528504 1.4476352563799102 1.458798423049148 1.4402173984404039
          0.72124 0.7147748137353731 0.7311016002301367 0.7234351841505637 0.6818734552464735 0.7154405891130992
          0.7722607954729463 0.7444184228457374 0.8898717137511671 1.0421554813485117 1.108100255796233 1.1807657094162456
          1.321356195160106 1.4368111179403509 1.5440986020747507 1.3149709000000007 0.8166239740587635 0.9026960999999991
          0.7464154637558792 0.7212399999999985 0.721239999999999 0.722427113020586 0.7387429122528938 0.7314043183538655
          0.7253035107961979 0.721460719392935 0.9739957462863088 0.7617413034077472 0.7219195963931495 0.7794223292438982
          1.2590523440822574 1.4122971481753281 1.1383965693544984 1.5457896000000009 1.5069993169108518 1.5457896000000002
          0.9376814191540348 1.1965795643243107 0.7931122570987025 1.0425507609792086 1.5364832439579161 1.433694187803579
          0.8917295576831827 1.324976225658715 1.5496348644160656 1.5461430563036755 1.5225154934437979 1.5457895999999978
          1.5411672428813707 1.5457896000000002 1.282823912010398 1.4688540445527833 1.1318666781162479 1.4534186944004202
          1.5367013508368523 1.5124518011389663 1.4061839545827437 1.4744983525213353 1.5318501929332102 1.5264630535453498
          1.4954446572568791 1.5457895999999987 1.519199232410054 1.5457896000000022 1.3931057414058194 1.4350897391792001
          1.364917362859571 1.4473435438991864 1.5100372871105618 1.4799181606030118 1.4593030690968718 1.4297657269952253
          1.5007381759693867 1.489924297399892 1.4687859666626828 1.4147085038490823 1.412573379023578 1.4007545708802167
          1.4161496129497797 1.4684717710074362 1.4541164165655285 1.4196060331737015 1.479831586251311 1.4154534933205971
          1.4604403346451091 1.4504651041148062 1.44434434842746 1.4817438348302698 1.4257530056463654 1.4405245713537789
          1.4203711956883873 1.4357432677488524 1.4385322359879205 1.414773873823334 1.4442821613269379 1.3285316760869708
          1.5457896000000002 1.5457896000000002 1.6318923713939115 1.5045548849654058 1.5457896000000009 1.5457896000000009
          1.5457896000000002 1.4387001826726822 1.5005222051220275 1.6241795600971367 1.5457896000000015 1.5457896000000002
          1.5457896000000009 1.5457896000000009 1.4380161746952225 1.433043759429126
        </DataArray>
        <DataArray type="Float64" Name="Temperature" format="ascii" RangeMin="0.0023459578679671583" RangeMax="0.0032490048552194033">
          0.00247 0.00247 0.003114 0.002500438382309885 0.00247 0.003114
          0.0024264702529073648 0.0027978266990767754 0.0023459578679671583 0.003114 0.003047162601299537 0.00253043068436201
          0.0030999758043694764 0.0031236166238538627 0.002792 0.00247 0.0024802193446359757 0.0024547299320768785
          0.002670816654447619 0.003114 0.0025951864510142465 0.0029838218642028657 0.0031043097832818855 0.003114
          0.002958866115302369 0.003121925300166705 0.0031103479863461704 0.003114 0.0030911996724983016 0.003099632401791061
          0.003091217524580464 0.003113283941511037 0.0030838362882436065 0.0030767870394980603 0.0031486009193842463 0.0030725088185601514
          0.00247 0.0024581480953789914 0.0024828106382407543 0.002468804607670494 0.0023976046360885263 0.002447443379409128
          0.002500364174414073 0.002388915174316912 0.002635184557560616 0.0027858654164941445 0.002711819551231736 0.0029100990227983008
          0.0030225168299529734 0.0031111392035551824 0.0031906067279671027 0.002953 0.0025446477900046643 0.002631
          0.002488082388850758 0.00247 0.00247 0.002470778386234935 0.0024904440197969177 0.002479105704948061
          0.002475133473292113 0.002471679214235854 0.002693664556173267 0.002471817577125405 0.002470601170803415 0.0025234982743582357
          0.002939918241853543 0.003045053571207336 0.0028478279621945175 0.003114 0.0031022527215609605 0.003114
          0.002708755536958628 0.002911800157846395 0.002550968718332387 0.00278389036791067 0.003119782864346078 0.0030633561142772193
          0.002639547918070805 0.0030062593600358924 0.003127204218403484 0.0031243691376460466 0.003121468169043366 0.003114
          0.003120607451079721 0.003114 0.003005854188365077 0.0031071167466331286 0.002886452796724761 0.003095092318177976
          0.0031170747968176245 0.003116364768823894 0.003061966543411892 0.0031125056277190076 0.003113535727186261 0.00310992258094012
          0.0031052645346311834 0.003114 0.003105367140276187 0.003114 0.003095671685528594 0.003089417297424083
          0.003069765725179408 0.0030972127894338414 0.0030998108016943304 0.0030952120137013686 0.00310419907698094 0.0030852401097769618
          0.0030942124949646372 0.0030877421455116254 0.0030886802715675205 0.0031184951732298235 0.003072496758914419 0.0031066519302847466
          0.003075088345771272 0.0030747286911252648 0.003080467123837137 0.0030781027419599536 0.0030816396105923403 0.0030739618788426654
          0.0030697364454039247 0.0030636020393503753 0.0030750464247989266 0.003163649000773953 0.003080899347322118 0.003136312322989383
          0.003077276625752961 0.0030543066438540522 0.0030715339379322948 0.003073560242861583 0.003059652183155242 0.002889129806015781
          0.003114 0.003114 0.0031201912438926734 0.0031780922878890477 0.003114 0.003114
          0.003114 0.003071310704095525 0.00302021998094756 0.0032490048552194033 0.003114 0.003114
          0.003114 0.003114 0.003088829168406166 0.0030524351475928616
        </DataArray>
      </PointData>
      <CellData>
        <DataArray type="UInt8" Name="vtkGhostType" format="ascii" RangeMin="0" RangeMax="0">
          0 0 0 0 0 0
          0 0 0 0 0 0
          0 0 0 0 0 0
          0 0 0 0 0 0
          0 0 0 0 0 0
          0 0 0 0 0 0
          0 0 0 0 0 0
          0 0 0 0 0 0
          0 0 0 0 0 0
          0 0 0 0 0 0
          0 0 0 0 0 0
          0 0 0 0 0 0
          0 0 0 0 0 0
          0 0 0 0 0 0
          0 0 0 0 0 0
          0 0 0 0 0 0
          0 0 0 0 0 0
          0 0 0 0 0 0
          0 0 0 0 0 0
          0 0 0 0 0 0
          0 0 0 0 0 0
          0 0 0 0 0 0
          0 0 0 0 0 0
          0 0 0 0 0 0
          0 0 0 0 0 0
          0 0 0 0 0 0
          0 0 0 0 0 0
          0 0 0 0 0 0
          0 0 0 0 0 0
          0 0 0 0 0 0
          0 0 0 0 0 0
          0 0 0 0 0 0
          0 0 0 0 0 0
          0 0 0 0 0 0
          0 0 0 0 0 0
          0 0 0 0 0 0
          0 0 0 0 0 0
          0 0 0 0 0 0
          0 0 0 0 0 0
          0 0
        </DataArray>
        <DataArray type="Float64" Name="Error" format="ascii" RangeMin="0.00030633902436378164" RangeMax="0.2002853323008498">
          0.013161512922654654 0.02085357442987046 0.0035042299689624725 0.0066762320200293235 0.01141632215290272 0.004650534712109427
          0.004184021361366377 0.004245303137842483 0.0475186471232303 0.14236193162661406 0.015221493308506785 0.04114052417588142
          0.12119717024222025 0.05884134058908463 0.00957076851252788 0.06989126059669087 0.14180159582664487 0.1715040916324791
          0.08902589469925103 0.10470548842546784 0.1729321327459964 0.1708863187208014 0.08342738672056431 0.1838581722675131
          0.2002853323008498 0.09980184531851875 0.16854322553539167 0.14425468101714656 0.10644965340857254 0.1538683381181209
          0.12261095258304763 0.13298600016478876 0.07632923195142023 0.07251339971658374 0.17606347856129345 0.09716896956041704
          0.1934235603109633 0.12030246372521033 0.1910008482478616 0.18107635294035793 0.12374646605604821 0.11048467354349789
          0.1883870849655956 0.13400145840303063 0.009107170649396657 0.055526505044027535 0.004720164942700953 0.014956495847967129
          0.1070109034060663 0.05928775709639431 0.09583267271730514 0.09245975305525797 0.001490898294475306 0.003477583681517324
          0.0054479276213780774 0.0015002354368907783 0.049500877675168406 0.01750611092621545 0.0041556559020303864 0.019953155940452365
          0.10516247221005617 0.10088735645240171 0.054812086755838214 0.10480719482435945 0.057696386454422544 0.009128044604334818
          0.07200443099991899 0.04817375123105539 0.0003915123760588231 0.004048225685315994 0.00030633902436378164 0.0007772943477755322
          0.08669977421547116 0.008880500012102827 0.030265775865386653 0.025885151261510482 0.08046955109969336 0.05731917466772411
          0.07010898213987712 0.07290141387192184 0.004833109908596987 0.04068202998100677 0.024484509705491125 0.03077788437245504
          0.029195708804069374 0.056134211834951805 0.08508121696225061 0.04875656606674804 0.06280902494073583 0.08068061650698767
          0.0679252857303461 0.07569309746715414 0.006148409740165224 0.015198469527410732 0.0531437453941828 0.010702730574805995
          0.08065072242248884 0.0916287641374807 0.03866549635013384 0.05363425471784121 0.03331431819696943 0.07971471703219302
          0.07294608271485357 0.07819534697689896 0.029100569988819432 0.08331435979300632 0.06846090255185741 0.07621353574646998
          0.04022250860682047 0.010689780822133352 0.04968388212831704 0.04744034312585269 0.004466150655950372 0.008431364868927906
          0.009449569211980004 0.008762634212327564 0.07301574200002714 0.06528379636811449 0.024360787673626094 0.07361710904314564
          0.013260434008166833 0.02004721568508831 0.06030561419231086 0.015021890521321947 0.0031381667588477324 0.00253762964942729
          0.008120297912954207 0.0033910707221334532 0.0019881262879903857 0.017875592732699647 0.001909632478624774 0.001910631238562175
          0.07913450311436539 0.0304182908894031 0.046918354273045006 0.038924962554686374 0.0026030971305378886 0.012166989499694842
          0.008367982620843305 0.009771127661073149 0.011837334244401695 0.011728360075728321 0.013203777949733365 0.013078829036195894
          0.012246950626238158 0.008682088249680801 0.008438911902436796 0.009215526227011507 0.026673011936818748 0.018942900336176877
          0.01170094441169818 0.026938637881334784 0.011769905331591328 0.011672497177480496 0.017314641498958255 0.012431096633895808
          0.009278507329388558 0.007460045576076868 0.009821330846877826 0.010001364165223231 0.004307257161303103 0.009390784749639228
          0.00539932304392329 0.005567375229334784 0.037037095675450396 0.010934864229575916 0.010197688245088554 0.011629645590249807
          0.007670694114677837 0.00910520405262811 0.009770535101251927 0.009598332981822073 0.0074584460748550185 0.008837996059254848
          0.00657727116976736 0.006171205416616188 0.022436910008869198 0.0046359532713139764 0.004267495745605216 0.00509842027943671
          0.008274286239227985 0.007058486573840052 0.011497202655643225 0.008512192070568931 0.01038059067892677 0.011572461771221756
          0.0068413343307041075 0.010828450878926192 0.01923452735158983 0.017279070645043332 0.006742828780765088 0.02040940657068675
          0.012040896770743102 0.008688214429496258 0.014074263384466467 0.014303402338580072 0.01182998137649888 0.01224364152782594
          0.011764530386689155 0.012881848703680625 0.017450169305975424 0.006441156236291738 0.00639781781540866 0.007087309968393166
          0.02174792242792832 0.005909009767008389 0.017947882235358183 0.017205304183115746 0.030153775173040513 0.0015076364529130219
          0.002343017288343449 0.0017827836253103378 0.010913590653337189 0.014312734959645761 0.006488266845886227 0.010385300891494276
          0.00508532009665125 0.006343684505303912 0.013467690091806378 0.005537966328457174 0.02778985338594307 0.026826647071040065
          0.00279534116834568 0.029288150833092733 0.02233997102973541 0.004817641071382816 0.02386547206203731 0.024000140950097906
          0.0070254996966910765 0.007805961692438728 0.008839406256672452 0.008146210789827505 0.0268812168362158 0.0021772323122233807
          0.0018347527787908227 0.0027531094898316875
        </DataArray>
        <DataArray type="Float64" Name="Markel" format="ascii" RangeMin="-1" RangeMax="1">
          1 1 -1 0 1 -1
          -1 -1 1 1 1 1
          1 1 0 1 1 1
          1 1 1 1 1 1
          1 1 1 1 1 1
          1 1 1 1 1 1
          1 1 1 1 1 1
          1 1 0 1 -1 1
          1 1 1 1 -1 -1
          0 -1 1 1 -1 1
          1 1 1 1 1 0
          1 1 -1 -1 -1 -1
          1 0 1 1 1 1
          1 1 -1 1 1 1
          1 1 1 1 1 1
          1 1 0 1 1 1
          1 1 1 1 1 1
          1 1 1 1 1 1
          1 1 1 1 -1 0
          0 0 1 1 1 1
          1 1 1 1 -1 -1
          0 -1 -1 1 -1 -1
          1 1 1 1 -1 1
          0 0 1 1 1 1
          1 0 0 0 1 1
          1 1 1 1 1 1
          0 0 0 1 -1 0
          0 0 1 1 1 1
          0 0 0 0 0 0
          0 0 1 -1 -1 0
          0 0 1 0 1 1
          0 1 1 1 0 1
          1 0 1 1 1 1
          1 1 1 0 0 0
          1 0 1 1 1 -1
          -1 -1 1 1 0 1
          0 0 1 0 1 1
          -1 1 1 -1 1 1
          0 0 0 0 1 -1
          -1 -1
        </DataArray>
      </CellData>
      <Points>
        <DataArray type="Float32" Name="Points" NumberOfComponents="3" format="ascii" RangeMin="0" RangeMax="3.2335159336633637">
          0 1 0 0 0.5 0
          0.512499988079071 1 0 0.512499988079071 0.5 0
          0 0 0 1.024999976158142 1 0
          0.512499988079071 0 0 1.024999976158142 0.5 0
          1.024999976158142 0 0 1.537500023841858 1 0
          1.537500023841858 0.5 0 1.537500023841858 0 0
          2.049999952316284 0.5 0 2.5625 0.5 0
          0.2562499940395355 1 0 0 0.75 0
          0.2562499940395355 0.5 0 0.2562499940395355 0.75 0
          0.512499988079071 0.75 0 0.768750011920929 1 0
          0.768750011920929 0.5 0 0.768750011920929 0.75 0
          1.024999976158142 0.75 0 1.28125 1 0
          1.28125 0.5 0 1.28125 0.75 0
          1.537500023841858 0.75 0 1.7937500476837158 1 0
          1.7937500476837158 0.5 0 1.7937500476837158 0.75 0
          2.049999952316284 0.75 0 2.3062500953674316 0.5 0
          2.3062500953674316 0.75 0 2.5625 0.75 0
          2.8187499046325684 0.5 0 2.8187499046325684 0.75 0
          0 0.25 0 0.512499988079071 0.25 0
          0.2562499940395355 0.25 0 0.2562499940395355 0 0
          0.768750011920929 0 0 0.768750011920929 0.25 0
          1.024999976158142 0.25 0 1.28125 0 0
          1.28125 0.25 0 1.537500023841858 0.25 0
          1.7937500476837158 0 0 1.7937500476837158 0.25 0
          2.049999952316284 0.25 0 2.3062500953674316 0.25 0
          2.5625 0.25 0 0.3843750059604645 1 0
          0.2562499940395355 0.875 0 0.12812499701976776 1 0
          0.12812499701976776 0.875 0 0 0.875 0
          0 0.625 0 0.12812499701976776 0.75 0
          0.3843750059604645 0.5 0 0.3843750059604645 0.625 0
          0.12812499701976776 0.5 0 0.2562499940395355 0.625 0
          0.3843750059604645 0.875 0 0.3843750059604645 0.75 0
          0.12812499701976776 0.625 0 0.512499988079071 0.625 0
          0.512499988079071 0.875 0 0.640625 0.875 0
          0.640625 0.75 0 0.8968750238418579 1 0
          0.768750011920929 0.875 0 0.640625 1 0
          0.8968750238418579 0.5 0 0.8968750238418579 0.625 0
          0.640625 0.5 0 0.768750011920929 0.625 0
          0.8968750238418579 0.875 0 0.8968750238418579 0.75 0
          0.640625 0.625 0 1.024999976158142 0.625 0
          1.024999976158142 0.875 0 1.1531250476837158 0.875 0
          1.1531250476837158 0.75 0 1.4093749523162842 1 0
          1.28125 0.875 0 1.1531250476837158 1 0
          1.4093749523162842 0.5 0 1.4093749523162842 0.625 0
          1.1531250476837158 0.5 0 1.28125 0.625 0
          1.4093749523162842 0.875 0 1.4093749523162842 0.75 0
          1.1531250476837158 0.625 0 1.537500023841858 0.625 0
          1.537500023841858 0.875 0 1.665624976158142 0.875 0
          1.665624976158142 0.75 0 1.921875 1 0
          1.7937500476837158 0.875 0 1.665624976158142 1 0
          1.921875 0.5 0 1.921875 0.625 0
          1.665624976158142 0.5 0 1.7937500476837158 0.625 0
          1.921875 0.875 0 1.921875 0.75 0
          1.665624976158142 0.625 0 2.049999952316284 0.625 0
          2.049999952316284 0.875 0 2.1781249046325684 0.875 0
          2.1781249046325684 0.75 0 2.434375047683716 0.5 0
          2.434375047683716 0.625 0 2.1781249046325684 0.5 0
          2.3062500953674316 0.625 0 2.434375047683716 0.875 0
          2.434375047683716 0.75 0 2.1781249046325684 0.625 0
          2.3062500953674316 0.875 0 2.5625 0.625 0
          2.5625 0.875 0 2.690624952316284 0.875 0
          2.690624952316284 0.75 0 2.9468750953674316 0.5 0
          2.9468750953674316 0.625 0 2.690624952316284 0.5 0
          2.8187499046325684 0.625 0 2.9468750953674316 0.875 0
          2.9468750953674316 0.75 0 2.690624952316284 0.625 0
          2.8187499046325684 0.875 0 2.049999952316284 0 0
          2.049999952316284 1 0 2.5625 1 0
          2.5625 0 0 3.075000047683716 0.5 0
          3.075000047683716 1 0 2.3062500953674316 1 0
          2.8187499046325684 1 0 3.075000047683716 0.75 0
          2.3062500953674316 0 0 2.8187499046325684 0.25 0
          2.434375047683716 1 0 2.1781249046325684 1 0
          2.9468750953674316 1 0 2.690624952316284 1 0
          3.075000047683716 0.625 0 3.075000047683716 0.875 0
          <InformationKey name="L2_NORM_RANGE" location="vtkDataArray" length="2">
            <Value index="0">
              0
            </Value>
            <Value index="1">
              3.2335159337
            </Value>
          </InformationKey>
        </DataArray>
      </Points>
      <Cells>
        <DataArray type="Int64" Name="connectivity" format="ascii" RangeMin="0" RangeMax="147">
          6 37 39 3 38 37
          4 39 38 37 38 39
          3 16 38 1 36 16
          4 38 36 16 36 38
          8 42 40 7 41 42
          6 40 41 42 41 40
          7 20 41 3 37 20
          6 41 37 20 37 41
          11 45 43 10 44 45
          8 43 44 45 44 43
          10 24 44 7 42 24
          8 44 42 24 42 44
          131 48 46 12 47 48
          11 46 47 48 47 46
          12 28 47 10 45 28
          11 47 45 28 45 47
          13 31 49 12 48 31
          131 49 48 31 48 49
          134 50 140 13 49 50
          131 140 49 50 49 140
          135 34 141 13 50 34
          134 141 50 34 50 141
          3 65 58 18 59 65
          16 58 59 65 59 58
          2 62 66 17 63 62
          18 66 63 62 63 66
          1 60 64 16 61 60
          17 64 61 60 61 64
          18 63 59 17 61 63
          16 59 61 63 61 59
          2 51 62 14 52 51
          17 62 52 51 52 62
          0 55 53 15 54 55
          14 53 54 55 54 53
          1 64 56 17 57 64
          15 56 57 64 57 56
          14 54 52 15 57 54
          17 52 57 54 57 52
          7 79 72 22 73 79
          20 72 73 79 73 72
          5 76 80 21 77 76
          22 80 77 76 77 80
          3 74 78 20 75 74
          21 78 75 74 75 78
          22 77 73 21 75 77
          20 73 75 77 75 73
          5 69 76 19 70 69
          21 76 70 69 70 76
          2 66 71 18 67 66
          19 71 67 66 67 71
          3 78 65 21 68 78
          18 65 68 78 68 65
          19 67 70 18 68 67
          21 70 68 67 68 70
          10 93 86 26 87 93
          24 86 87 93 87 86
          9 90 94 25 91 90
          26 94 91 90 91 94
          7 88 92 24 89 88
          25 92 89 88 89 92
          26 91 87 25 89 91
          24 87 89 91 89 87
          9 83 90 23 84 83
          25 90 84 83 84 90
          5 80 85 22 81 80
          23 85 81 80 81 85
          7 92 79 25 82 92
          22 79 82 92 82 79
          23 81 84 22 82 81
          25 84 82 81 82 84
          12 107 100 30 101 107
          28 100 101 107 101 100
          132 104 108 29 105 104
          30 108 105 104 105 108
          10 102 106 28 103 102
          29 106 103 102 103 106
          30 105 101 29 103 105
          28 101 103 105 103 101
          132 97 104 27 98 97
          29 104 98 97 98 104
          9 94 99 26 95 94
          27 99 95 94 95 99
          10 106 93 29 96 106
          26 93 96 106 96 93
          27 95 98 26 96 95
          29 98 96 95 96 98
          13 119 111 33 112 119
          31 111 112 119 112 111
          133 115 120 32 116 115
          33 120 116 115 116 120
          12 113 117 31 114 113
          32 117 114 113 114 117
          33 116 112 32 114 116
          31 112 114 116 114 112
          133 142 115 137 118 142
          32 115 118 142 118 115
          132 108 143 30 109 108
          137 143 109 108 109 143
          12 117 107 32 110 117
          30 107 110 117 110 107
          137 109 118 30 110 109
          32 118 110 109 110 118
          135 146 123 139 124 146
          34 123 124 146 124 123
          136 127 147 35 128 127
          139 147 128 127 128 147
          13 125 129 34 126 125
          35 129 126 125 126 129
          139 128 124 35 126 128
          34 124 126 128 126 124
          136 144 127 138 130 144
          35 127 130 144 130 127
          133 120 145 33 121 120
          138 145 121 120 121 145
          13 129 119 35 122 129
          33 119 122 129 122 119
          138 121 130 33 122 121
          35 130 122 121 122 130
        </DataArray>
        <DataArray type="Int64" Name="offsets" format="ascii" RangeMin="3" RangeMax="708">
          3 6 9 12 15 18
          21 24 27 30 33 36
          39 42 45 48 51 54
          57 60 63 66 69 72
          75 78 81 84 87 90
          93 96 99 102 105 108
          111 114 117 120 123 126
          129 132 135 138 141 144
          147 150 153 156 159 162
          165 168 171 174 177 180
          183 186 189 192 195 198
          201 204 207 210 213 216
          219 222 225 228 231 234
          237 240 243 246 249 252
          255 258 261 264 267 270
          273 276 279 282 285 288
          291 294 297 300 303 306
          309 312 315 318 321 324
          327 330 333 336 339 342
          345 348 351 354 357 360
          363 366 369 372 375 378
          381 384 387 390 393 396
          399 402 405 408 411 414
          417 420 423 426 429 432
          435 438 441 444 447 450
          453 456 459 462 465 468
          471 474 477 480 483 486
          489 492 495 498 501 504
          507 510 513 516 519 522
          525 528 531 534 537 540
          543 546 549 552 555 558
          561 564 567 570 573 576
          579 582 585 588 591 594
          597 600 603 606 609 612
          615 618 621 624 627 630
          633 636 639 642 645 648
          651 654 657 660 663 666
          669 672 675 678 681 684
          687 690 693 696 699 702
          705 708
        </DataArray>
        <DataArray type="UInt8" Name="types" format="ascii" RangeMin="5" RangeMax="5">