<?xml version="1.0"?>
<VTKFile type="UnstructuredGrid" version="0.1" byte_order="LittleEndian" header_type="UInt32" compressor="vtkZLibDataCompressor">
  <UnstructuredGrid>
    <Piece NumberOfPoints="45" NumberOfCells="59">
      <PointData>
        <DataArray type="Float64" Name="Velocity" NumberOfComponents="3" format="ascii" RangeMin="2.6677841329462924" RangeMax="2.96150544716534">
          2.9 0 0 2.9 0 0
          2.6193 -0.5063 0 2.8798424313462396 -0.05353742974346603 0
          2.9 0 0 2.6193 -0.5063 0
          2.96150544716534 0 0 2.795922684092017 -0.24216169849181138 0
          2.9587048028267793 0 0 2.6193 -0.5063 0
          2.7482243419564503 -0.38530064960236843 0 2.9017632137337603 0 0
          2.7355387966229117 -0.44793345099044196 0 2.7385735195350147 -0.4487234073600407 0
          2.7596499999999997 -0.25315 0 2.9 0 0
          2.8895823814753108 -0.027668640471464546 0 2.902572263769068 -0.041267373940774406 0
          2.7374500936781616 -0.2689198365842723 0 2.6193 -0.5063 0
          2.8351017851334133 -0.15409983551022172 0 2.6680748355673445 -0.3886969936791833 0
          2.639045168759888 -0.46071871770364015 0 2.6193 -0.5063 0
          2.7710384707817197 -0.3168372539298545 0 2.631654760804718 -0.4981653221428489 0
          2.632587685967313 -0.5229838162499999 0 2.6193 -0.5063 0
          2.741726207044523 -0.4173841259236886 0 2.6395454871692614 -0.5359064013697967 0
          2.6450318368330517 -0.5432847113114935 0 2.7370807979652523 -0.44833484308375426 0
          2.65120958707188 -0.548103501575831 0 2.6534633286893365 -0.5489825852920655 0
          2.7420333817073863 -0.43433383323748675 0 2.654939084504044 -0.549564435792642 0
          2.8537112866254635 0 0 2.6193 -0.5063 0
          2.6193 -0.5063 0 2.8344978354190857 0 0
          2.745408528999976 -0.42029658847985585 0 2.6193 -0.5063 0
          2.6193 -0.5063 0 2.6193 -0.5063 0
          2.653290714499149 -0.5469251517467613 0
          <InformationKey name="L2_NORM_RANGE" location="vtkDataArray" length="2">
            <Value index="0">
              2.6677841329
            </Value>
            <Value index="1">
              2.9615054472
            </Value>
          </InformationKey>
        </DataArray>
        <DataArray type="Float64" Name="Pressure" format="ascii" RangeMin="0.6198989122027756" RangeMax="1.5457896000002367">
          0.7212400000001106 0.7212400000001113 1.545789600000236 0.7986921911753873 0.7212400000001113 1.545789600000236
          0.6198989122027756 0.9947015824558031 0.6699002788886231 1.545789600000236 1.140091293430711 0.8500465695262398
          1.228588397634607 1.2921074164461244 1.1006064000001698 0.7212400000001101 0.7601380524515171 0.7551234806542029
          1.100202496103061 1.5457896000002351 0.8991679187724925 1.314252851286827 1.4312718824902733 1.545789600000236
          1.0688712105095501 1.4763406802758157 1.4922920603150693 1.5457896000002367 1.184623194099589 1.4724931915910502
          1.4567730124940237 1.2603486178197978 1.4271618513028907 1.4122556203208363 1.3180717026001412 1.3951036778975061
          1.0512510897227303 1.5457896000002367 1.545789600000236 1.197745241616869 1.343908820538168 1.545789600000236
          1.5457896000002351 1.5457896000002367 1.3919261228027342
        </DataArray>
        <DataArray type="Float64" Name="Temperature" format="ascii" RangeMin="0.0022869290490025256" RangeMax="0.0031157948439234375">
          0.00247 0.00247 0.003114 0.0025573187910704303 0.00247 0.003114
          0.0022869290490025256 0.002789012461497372 0.00230167909258717 0.003114 0.002930739711322958 0.002508836780743285
          0.0030072132781846683 0.0030616144326700867 0.002792 0.00247 0.0025156962570894704 0.00246048373470651
          0.0028486629410339934 0.003114 0.002688230661578615 0.0030084207783371113 0.0030808496398582424 0.003114
          0.002866907141182795 0.0031061796929765847 0.0031157948439234375 0.003114 0.0029706236206387886 0.0031049716868247
          0.0030966876091102543 0.0030348572673282027 0.003079025332620696 0.0030697610548527645 0.0030844271646603793 0.0030580423638521506
          0.0027222406482644277 0.003114 0.003114 0.0028690347131801936 0.0031063873820327014 0.003114
          0.003114 0.003114 0.003054637662714892
        </DataArray>
      </PointData>
      <CellData>
        <DataArray type="UInt8" Name="vtkGhostType" format="ascii" RangeMin="0" RangeMax="0">
          0 0 0 0 0 0
          0 0 0 0 0 0
          0 0 0 0 0 0
          0 0 0 0 0 0
          0 0 0 0 0 0
          0 0 0 0 0 0
          0 0 0 0 0 0
          0 0 0 0 0 0
          0 0 0 0 0 0
          0 0 0 0 0
        </DataArray>
        <DataArray type="Float64" Name="Error" format="ascii" RangeMin="0.027833747638915673" RangeMax="0.390744298170119">
          0.1926850932125247 0.09223888574882526 0.3074660894599667 0.2615738224306372 0.3774747322134431 0.3191101474905154
          0.390744298170119 0.31167258092733024 0.3210704899959041 0.3726824397940618 0.3322518406806348 0.1639692480799926
          0.305127097475991 0.027833747638915673 0.15929710560400948 0.28550744392770294 0.22895194327272334 0.04018130516145645
          0.19792552764183902 0.2415347526781407 0.09950230172214639 0.21764493956316025 0.2208427122681752 0.1347652456420283
          0.25565769408755573 0.19668240541963614 0.18008912977808128 0.19929051065367848 0.03842577439752523 0.21600197949415778
          0.21272625672544426 0.04410613933644958 0.0746968229670114 0.237564207760792 0.05493964173751464 0.13384826615525033
          0.05088486951358293 0.15696487044132967 0.15516655750019942 0.04155113891287592 0.03541080538052946 0.1949818444475021
          0.04449433633103676 0.08326649238730814 0.07187217752844512 0.09932584954986567 0.09824444264956968 0.06113693158503492
          0.05044523328413435 0.13204743246975725 0.06565854118201883 0.06518647459568488 0.08207027434236011 0.06660704212583901
          0.06521622223879286 0.07621397404985433 0.07150536205985344 0.08196018279477549 0.08052430737682176
        </DataArray>
        <DataArray type="Float64" Name="Markel" format="ascii" RangeMin="1" RangeMax="1">
          1 1 1 1 1 1
          1 1 1 1 1 1
          1 1 1 1 1 1
          1 1 1 1 1 1
          1 1 1 1 1 1
          1 1 1 1 1 1
          1 1 1 1 1 1
          1 1 1 1 1 1
          1 1 1 1 1 1
          1 1 1 1 1
        </DataArray>
      </CellData>
      <Points>
        <DataArray type="Float32" Name="Points" NumberOfComponents="3" format="ascii" RangeMin="0" RangeMax="3.2335159336633637">
          0 1 0 0 0.5 0
          0.512499988079071 1 0 0.512499988079071 0.5 0
          0 0 0 1.024999976158142 1 0
          0.512499988079071 0 0 1.024999976158142 0.5 0
          1.024999976158142 0 0 1.537500023841858 1 0
          1.537500023841858 0.5 0 1.537500023841858 0 0
          2.049999952316284 0.5 0 2.5625 0.5 0
          0.2562499940395355 1 0 0 0.75 0
          0.2562499940395355 0.5 0 0.2562499940395355 0.75 0
          0.512499988079071 0.75 0 0.768750011920929 1 0
          0.768750011920929 0.5 0 0.768750011920929 0.75 0
          1.024999976158142 0.75 0 1.28125 1 0
          1.28125 0.5 0 1.28125 0.75 0
          1.537500023841858 0.75 0 1.7937500476837158 1 0
          1.7937500476837158 0.5 0 1.7937500476837158 0.75 0
          2.049999952316284 0.75 0 2.3062500953674316 0.5 0
          2.3062500953674316 0.75 0 2.5625 0.75 0
          2.8187499046325684 0.5 0 2.8187499046325684 0.75 0
          2.049999952316284 0 0 2.049999952316284 1 0
          2.5625 1 0 2.5625 0 0
          3.075000047683716 0.5 0 3.075000047683716 1 0
          2.3062500953674316 1 0 2.8187499046325684 1 0
          3.075000047683716 0.75 0
          <InformationKey name="L2_NORM_RANGE" location="vtkDataArray" length="2">
            <Value index="0">
              0
            </Value>
            <Value index="1">
              3.2335159337
            </Value>
          </InformationKey>
        </DataArray>
      </Points>
      <Cells>
        <DataArray type="Int64" Name="connectivity" format="ascii" RangeMin="0" RangeMax="44">
          6 3 4 3 1 4
          8 7 6 7 3 6
          11 10 8 10 7 8
          36 12 11 12 10 11
          13 12 36 39 13 36
          40 13 39 3 18 16
          2 17 18 1 16 17
          18 17 16 2 14 17
          0 15 14 1 17 15
          14 15 17 7 22 20
          5 21 22 3 20 21
          22 21 20 5 19 21
          2 18 19 3 21 18
          19 18 21 10 26 24
          9 25 26 7 24 25
          26 25 24 9 23 25
          5 22 23 7 25 22
          23 22 25 12 30 28
          37 29 30 10 28 29
          30 29 28 37 27 29
          9 26 27 10 29 26
          27 26 29 13 33 31
          38 32 33 12 31 32
          33 32 31 38 42 32
          37 30 42 12 32 30
          42 30 32 40 44 34
          41 35 44 13 34 35
          44 35 34 41 43 35
          38 33 43 13 35 33
          43 33 35
        </DataArray>
        <DataArray type="Int64" Name="offsets" format="ascii" RangeMin="3" RangeMax="177">
          3 6 9 12 15 18
          21 24 27 30 33 36
          39 42 45 48 51 54
          57 60 63 66 69 72
          75 78 81 84 87 90
          93 96 99 102 105 108
          111 114 117 120 123 126
          129 132 135 138 141 144
          147 150 153 156 159 162
          165 168 171 174 177
        </DataArray>
        <DataArray type="UInt8" Name="types" format="ascii" RangeMin="5" RangeMax="5">
          5 5 5 5 5 5
          5 5 5 5 5 5
          5 5 5 5 5 5
          5 5 5 5 5 5
          5 5 5 5 5 5
          5 5 5 5 5 5
          5 5 5 5 5 5
          5 5 5 5 5 5
          5 5 5 5 5 5
          5 5 5 5 5
        </DataArray>
      </Cells>
    </Piece>
  </UnstructuredGrid>
</VTKFile>
