<?xml version="1.0"?>
<VTKFile type="UnstructuredGrid" version="0.1" byte_order="LittleEndian" header_type="UInt32" compressor="vtkZLibDataCompressor">
  <UnstructuredGrid>
    <Piece NumberOfPoints="420" NumberOfCells="695">
      <PointData>
        <DataArray type="Float64" Name="Velocity" NumberOfComponents="3" format="ascii" RangeMin="2.6544363210018354" RangeMax="2.9321652890814214">
          2.9 0 0 2.9 0 0
          2.6193 -0.5063 0 2.893349296475242 -0.006341039421025854 0
          2.9 0 0 2.6193 -0.5063 0
          2.9111023544977783 0 0 2.7791119401642885 -0.22762897497611762 0
          2.9321652890814214 0 0 2.6193 -0.5063 0
          2.654693378775354 -0.5075963383630628 0 2.882818789888068 0 0
          2.665867947324826 -0.5430676380080808 0 2.673263980972448 -0.5338280662434609 0
          2.7596499999999997 -0.25315 0 2.9 0 0
          2.89886486270464 -0.0009551335877517035 0 2.899768158080552 -0.0005808468424363839 0
          2.852053540250134 -0.09085395714134085 0 2.6193 -0.5063 0
          2.8700141112660957 -0.054259202057942525 0 2.670756133459904 -0.3711971989437881 0
          2.6114416129682345 -0.4838144270903746 0 2.6193 -0.5063 0
          2.679412573453896 -0.4191674032665881 0 2.615491631341181 -0.5042250086360308 0
          2.6240792592685214 -0.5164945916967596 0 2.6193 -0.5063 0
          2.658717664270718 -0.5345867837143006 0 2.629191022553994 -0.5277761281946466 0
          2.632355518378488 -0.5394268650259312 0 2.6709056018015978 -0.5434066856783415 0
          2.634890354581681 -0.548895017106772 0 2.637415300304817 -0.5570241838779983 0
          2.673121391149682 -0.5104416209937033 0 2.63847154005755 -0.5610393897055029 0
          2.9 0 0 2.8963671409283798 -0.004816005614109495 0
          2.8955200141708524 -0.0025091707030615975 0 2.89911334961336 0 0
          2.922653965788992 0 0 2.9010083681579264 -0.018347688575993847 0
          2.887665477368702 -0.05706784754475044 0 2.923491646699773 0 0
          2.8419604641076828 -0.16677578089490963 0 2.771804991664289 -0.3069932660768135 0
          2.8200316160441226 0 0 2.7252606408617774 -0.39479511265085354 0
          2.7033685515240826 -0.4162263347157668 0 2.6930420060122153 -0.38858468663892887 0
          2.6877896514987696 -0.3392085314321012 0 2.689475 -0.379725 0
          2.8736121534668873 -0.04915492048576747 0 2.8298249999999996 -0.126575 0
          2.8964330698109677 -0.0018590085204076327 0 2.9 0 0
          2.899883896135905 -0.0002908816620152015 0 2.8980011432357218 -0.0014187712657897052 0
          2.894997551607218 0.0009874761277592083 0 2.8994318692797685 -0.00047803973611375213 0
          2.8987646447384465 -0.0001239255313442467 0 2.8155358646799216 -0.15929508720668212 0
          2.8938122062422855 -0.01921983851324039 0 2.8998838961359055 -0.0002908816620152015 0
          2.8817770289692755 -0.008465970214704133 0 2.716849389521578 -0.3181574679387423 0
          2.6367318468178205 -0.4412333051565611 0 2.760904169500222 -0.23338054635603106 0
          2.6193 -0.5063 0 2.613250200851675 -0.4892432384073674 0
          2.6193 -0.5063 0 2.8387484891277572 -0.12117851801435925 0
          2.7029305935256733 -0.3032096489055926 0 2.8863680934560274 -0.021645389596066218 0
          2.7832496875145303 -0.1642097913077909 0 2.614008457018369 -0.4996373363375751 0
          2.62383096218504 -0.4507845915690042 0 2.8475767380634873 -0.05548390862648542 0
          2.6452128831313626 -0.41073919728024116 0 2.6153803913613154 -0.5009927004460363 0
          2.616904265394584 -0.5013604566134996 0 2.6116784237119095 -0.4977908533198657 0
          2.6193 -0.5063 0 2.6191644577312982 -0.5032969815699073 0
          2.6193 -0.5063 0 2.659271591184436 -0.47399992342836456 0
          2.6211967643889693 -0.5134117198962592 0 2.722514875848494 -0.3338505539055101 0
          2.6184074840695803 -0.4991149212921877 0 2.6208992418483397 -0.5052964516595663 0
          2.6199478863167465 -0.510416269490219 0 2.6220695566194094 -0.47046271304490367 0
          2.624915913629017 -0.5232550538703132 0 2.6224135259951153 -0.5086888865642647 0
          2.6233367559460636 -0.5127013244808006 0 2.6270987151752516 -0.5222571387765874 0
          2.6193 -0.5063 0 2.624208500462907 -0.5174811494161599 0
          2.6193 -0.5063 0 2.661164081384867 -0.5383799970617407 0
          2.640778589732951 -0.5431573452160467 0 2.654701549939317 -0.5251799781255518 0
          2.63554932986663 -0.538110154186995 0 2.6254284143202615 -0.523199665771331 0
          2.6308193626780687 -0.5336672945646992 0 2.6297345810131514 -0.5313291955191328 0
          2.644623748749179 -0.5475057899332142 0 2.626392761718135 -0.5272976360778018 0
          2.627444439037479 -0.5312288628322362 0 2.633472187050676 -0.5444798141055648 0
          2.671701003303609 -0.5385747060848323 0 2.649825093559306 -0.5579578300043053 0
          2.6682563851334593 -0.5437308158907698 0 2.648170652398199 -0.5545610512929274 0
          2.6291291655083313 -0.5391120343073275 0 2.6362699854133482 -0.5528455167976152 0
          2.646595183734524 -0.5517789755391699 0 2.6283351989049573 -0.5351522727582874 0
          2.6501092831637347 -0.5573020577864053 0 2.6295340029661927 -0.5427939208449107 0
          2.629748750353444 -0.5465732423244722 0 2.637984833898194 -0.5593517003736792 0
          2.6721491915612474 -0.49442229414700445 0 2.6500632836420484 -0.549942252656109 0
          2.673264206442748 -0.522733936901112 0 2.650301280236775 -0.553922116660783 0
          2.629262864873369 -0.5528835123741348 0 2.638510571028483 -0.5616359527576819 0
          2.6504385450230874 -0.5561489880263313 0 2.6295951173330736 -0.5498821189654517 0
          2.8971907572753994 -0.0017329332237299418 0 2.88345415207214 -0.028046934054530608 0
          2.886472527890648 -0.014610059393865478 0 2.7590780754838717 -0.2888995031889686 0
          2.8023350159394855 -0.1998951212817296 0 2.6843262017968454 -0.4926597573792656 0
          2.6915066605311586 -0.47014356071602026 0 2.6865722408866333 -0.4898098421447898 0
          2.6877665502832424 -0.5015841573152079 0 2.6847810885364733 -0.41547275033580855 0
          2.6852659771003147 -0.4381255148902037 0 2.903690285788181 -0.002422534586924429 0
          2.8977395614300465 -0.0024092020535877385 0 2.8949706224057787 -0.0046158487065363595 0
          2.895943535836935 -0.0036624745695998926 0 2.89868592733255 -0.011576519789715278 0
          2.8934447758799466 -0.002850095148971275 0 2.9012633350779167 0 0
          2.923822873320311 0 0 2.908525740122121 -0.02214742796917544 0
          2.915013689384755 0 0 2.911809770320448 -0.011070434750710298 0
          2.8647849281259385 -0.06055300811996472 0 2.894184834339822 -0.03521337910356701 0
          2.9060288775961873 -0.009221983372453092 0 2.908550754315284 -0.028888559495833327 0
          2.843564087966307 -0.11283585690283351 0 2.870361742070554 -0.099941227964636 0
          2.9070790536093796 0 0 2.861985719733646 -0.12075516432161804 0
          2.927589126702136 0 0 2.8852841286082755 -0.07852847007466504 0
          2.725733586397122 -0.37215977704646325 0 2.8079450102631145 -0.2370345496882077 0
          2.8993935963159125 -0.053564510175663806 0 2.8297284672292577 -0.15813970836753807 0
          2.700601866868125 -0.4322030517894901 0 2.74499889943152 -0.35654260212313255 0
          2.7923284732707416 0 0 2.74689956550508 -0.23786234593692274 0
          2.8532847135552153 0 0 2.769206968661918 -0.2250263843417598 0
          2.687190758109361 -0.5048938905438564 0 2.712633690765999 -0.4118433590206608 0
          2.7999475983943625 -0.19949138679889478 0 2.7261992005682876 -0.2352892358031999 0
          2.685911823227614 -0.5055331033575732 0 2.697347423524402 -0.4064011084493718 0
          2.687340947787779 -0.47683446467546153 0 2.714106056360437 -0.22252341492504263 0
          2.6902418484717803 -0.3653245322532567 0 2.7061731417742325 -0.20591350711865067 0
          2.7033928609496747 -0.17105965032539044 0 2.703486230155678 -0.18651277503645297 0
          2.686168521342944 -0.457860003997964 0 2.6874863405196905 -0.3142761415077083 0
          2.6543875 -0.4430125 0 2.7452805057042355 -0.2834704424318984 0
          2.7245624999999998 -0.3164375 0 2.784298551856393 -0.21695710862294004 0
          2.823694944327949 -0.14799152334382995 0 2.889577180057595 -0.01165817807699548 0
          2.85000528756543 -0.0976121796285627 0 2.8871978806232104 -0.019105912153575832 0
          2.892381149722871 -0.005557529379015081 0 2.8649125 -0.0632875 0
          2.8944618764691055 -0.009977850929457566 0 2.7947374999999997 -0.1898625 0
          2.8824813543996974 -0.03935133212147977 0 2.8534869939833247 -0.09156929329212357 0
          2.8982119223307987 -0.0009319082365043606 0 2.898155382817126 -0.0010763538663619994 0
          2.9 0 0 2.8998259814902725 -0.0004359785415028123 0
          2.8898257627819617 -0.004969876219473775 0 2.896499198067908 -0.0002155279183887252 0
          2.883588481435592 -0.013869688308232505 0 2.888526097960468 -0.002894864761010725 0
          2.897011144046371 -0.0034053854775332854 0 2.896878803021914 0.00043245243425110046 0
          2.899266857492159 -0.00035259385118138905 0 2.8975342575324055 -0.0020261534436155754 0
          2.706808644163632 -0.3523723009410993 0 2.779871465232674 -0.22810557580173715 0
          2.8760325135970444 -0.03482357890281015 0 2.85906544937156 -0.06885570116812437 0
          2.8968597993416854 -0.006929146045250737 0 2.8810229826858627 -0.045155968219575446 0
          2.830441394688378 -0.12226173553401089 0 2.8683060447728383 -0.03246904077508669 0
          2.8875416681490105 -0.00740745170904838 0 2.8676139479617637 -0.02608561972315694 0
          2.8422581238978646 -0.07194025878367336 0 2.6502782260194073 -0.432916199336593 0
          2.7842903668532357 -0.19615389231141708 0 2.6279166048313725 -0.4727378815601151 0
          2.6685883292488466 -0.39057080211920103 0 2.732323424909723 -0.2799961723101886 0
          2.617441199714981 -0.49923944793971703 0 2.6175283021101095 -0.49284253799677463 0
          2.619700484986265 -0.4727612909302218 0 2.6828183259072014 -0.35580113743686564 0
          2.713516547517026 -0.30724371442328513 0 2.8097594442981784 -0.12651191057535874 0
          2.8129597711017444 -0.15504578873081243 0 2.6490173850291554 -0.41131100268379045 0
          2.6193 -0.5063 0 2.6180105146893236 -0.5022150311109944 0
          2.616652364016816 -0.5029663205575912 0 2.617403449506327 -0.5023905742243208 0
          2.6241114100670506 -0.4519610356712762 0 2.611827569801186 -0.4975099149791803 0
          2.6193 -0.5063 0 2.6193 -0.5063 0
          2.8073876677070437 -0.17715717252999869 0 2.7284542522938517 -0.2744623457926291 0
          2.8538812361537036 -0.0887891711772111 0 2.764581716385424 -0.20620277413711247 0
          2.633540541021629 -0.4334864714733382 0 2.670297134281826 -0.36281725334362375 0
          2.7996696197507522 -0.14259818027629795 0 2.6521417517851367 -0.39448174880032505 0
          2.7439290495202955 -0.23328911326297616 0 2.889832890884418 -0.014049782795386722 0
          2.866968256502613 -0.02882857195113943 0 2.87805088758479 -0.03823191814556815 0
          2.8478009349533466 -0.05572619696478059 0 2.827736606422678 -0.09052364344477991 0
          2.723102476170504 -0.2713569815208695 0 2.820959720386956 -0.1013593822422802 0
          2.6842114636708563 -0.33863685771786084 0 2.6141271835805875 -0.4736659596799441 0
          2.609421183500848 -0.4867784602370898 0 2.61469465862051 -0.5003152499910177 0
          2.641897708446492 -0.4187045709175299 0 2.6147998538776767 -0.4715564425414845 0
          2.610284910973867 -0.4920544494057105 0 2.8775554359176883 -0.015708442571174708 0
          2.7678332847647993 -0.19778185592599734 0 2.693887637730593 -0.33822503139396987 0
          2.6207141290913505 -0.4626501137105556 0 2.630145437420659 -0.4460353530457748 0
          2.6166943126830113 -0.47947777383717133 0 2.6109467822007355 -0.4959170767263002 0
          2.616142260744962 -0.5011765622079146 0 2.612718842360951 -0.49761082008101176 0
          2.614301906045077 -0.4995828691798778 0 2.6135819452785523 -0.5010027301957618 0
          2.61402774518281 -0.49237208953886274 0 2.61074605360221 -0.4918651296232129 0
          2.656966520537325 -0.4909152831789306 0 2.6320724454401274 -0.5134859993439912 0
          2.669127949967618 -0.44716662481015285 0 2.6289918968114327 -0.5082947690333817 0
          2.622926678329955 -0.5182671471177824 0 2.6228883615822123 -0.518533784852337 0
          2.6281828382641863 -0.49886862400281756 0 2.6206351913089017 -0.5148229462221765 0
          2.6193742674191367 -0.5073689576409864 0 2.749399910622643 -0.28339262154090156 0
          2.6468355830722397 -0.43437789075379774 0 2.7001412051944222 -0.37813707649941775 0
          2.6365672378056018 -0.46300162711546505 0 2.629319620725803 -0.48631379791377694 0
          2.616443622627988 -0.5060390115578159 0 2.618780107509753 -0.4874802366672065 0
          2.618582858953385 -0.5105163283867481 0 2.6220084691276146 -0.5134479217772236 0
          2.6177145210678736 -0.507313362023238 0 2.6676659764320796 -0.39098909381961716 0
          2.61544285297064 -0.49969911000815886 0 2.6336878594997164 -0.518832968171269 0
          2.6252136268643995 -0.5217169699500978 0 2.626731361637842 -0.5274435086353547 0
          2.627222796361949 -0.5247853664776457 0 2.628142909607267 -0.5250114654492534 0
          2.629621236349885 -0.5276418718923412 0 2.625585750447155 -0.5193696879427008 0
          2.62174080695883 -0.511859952068644 0 2.622339798160368 -0.5146825228253055 0
          2.624816939571061 -0.5203332925983446 0 2.6635091839394254 -0.5407170106795668 0
          2.650601649805374 -0.5405423858827583 0 2.659940281018797 -0.5364824727776224 0
          2.6484346088287674 -0.5386035911974565 0 2.637553647294496 -0.542571968089431 0
          2.6429354778791914 -0.5456076276444733 0 2.6459018638285494 -0.5358580026017263 0
          2.6365326174047286 -0.5397643718653251 0 2.6381228935009156 -0.5409009141635288 0
          2.654697476144324 -0.5164135228256765 0 2.639169288442935 -0.527075755760345 0
          2.6567062853659356 -0.5298756005254501 0 2.6419983667622526 -0.5301089023700174 0
          2.6437046095542462 -0.5327224397694635 0 2.633713955822233 -0.533707235926946 0
          2.6323709797044805 -0.5349978591808279 0 2.635097772822921 -0.5369701784730792 0
          2.6223397981603678 -0.5146825228253054 0 2.625909731700252 -0.5252450120184807 0
          2.6315858276873114 -0.5365410327056925 0 2.630003578996564 -0.5307158734711167 0
          2.636666248723948 -0.5234574345925928 0 2.631641579408453 -0.5307943054675927 0
          2.65255110690192 -0.5426079921688834 0 2.638386565161994 -0.5449460780932797 0
          2.6453269230205216 -0.5490692182184242 0 2.6391905540875533 -0.5473737359386126 0
          2.623034972727978 -0.5181259469789631 0 2.6233613759015415 -0.5213212768332424 0
          2.626917586685561 -0.5292594602185267 0 2.62375121129699 -0.5278136113460825 0
          2.6236090034553445 -0.5245203819174851 0 2.627888968641762 -0.5331868224637173 0
          2.6341798317651284 -0.5466829353861835 0 2.639680465372132 -0.5490868756321601 0
          2.6329127901440383 -0.5419485314118299 0 2.643583634532022 -0.5574882561827414 0
          2.6423934994003058 -0.5564164055326073 0 2.64899694191054 -0.5562575290468286 0
          2.641413413603212 -0.5537034081963811 0 2.647382217986448 -0.5531687771646404 0
          2.6421340944512615 -0.5552820225957936 0 2.6239954818780826 -0.5395045303871151 0
          2.629331239419568 -0.5409498415529986 0 2.623797894402846 -0.5361559543381554 0
          2.628731420697989 -0.5371283556492684 0 2.63684149775279 -0.5549306724317979 0
          2.6355788349389324 -0.550866444082775 0 2.640644871292444 -0.5516537159592807 0
          2.656159388195292 -0.5474559311099827 0 2.623744965813246 -0.530366299026251 0
          2.623854439189105 -0.5336318062203961 0 2.6238018621973827 -0.5416043511416754 0
          2.6238422879741696 -0.544505175712962 0 2.629641191686004 -0.544680326245858 0
          2.623912125385455 -0.550393545692775 0 2.623649307498354 -0.5470743046403832 0
          2.6296720493447983 -0.5482251930264457 0 2.671343014543544 -0.48583191377571944 0
          2.657998403463559 -0.5197395188683611 0 2.6726320582009446 -0.5023786835722793 0
          2.658880374676578 -0.5254383546192746 0 2.6597882345913084 -0.5307321205366351 0
          2.649491791504111 -0.5465331865291516 0 2.6501821014969975 -0.5519291672359906 0
          2.6732640942465786 -0.5282544813644956 0 2.661669884573756 -0.5424049051584995 0
          2.673192440242186 -0.5165569176908971 0 2.6612524785853617 -0.5392618271769457 0
          2.6603204904782136 -0.5347756565232636 0 2.650369854358565 -0.5550346069966876 0
          2.6235941826464995 -0.5599949919855138 0 2.6288963707959176 -0.5540313944040783 0
          2.6232106443617997 -0.5567677073546908 0 2.629429209820637 -0.5513808398920702 0
          2.6618307729013746 -0.5450085643354965 0 2.623413881579469 -0.5518638047802358 0
          2.62361102583733 -0.5551835238396519 0 2.7657066036133093 0 0
          2.6193 -0.5063 0 2.6193 -0.5063 0
          2.7350366440454676 0 0 2.6705482229851834 -0.4773628534424787 0
          2.6193 -0.5063 0 2.6193 -0.5063 0
          2.6193 -0.5063 0 2.6381661649070898 -0.5618168743847493 0
          2.7400085092161772 0 0 2.6885110231065066 -0.2896089498566207 0
          2.6193 -0.5063 0 2.6193 -0.5063 0
          2.6193 -0.5063 0 2.6193 -0.5063 0
          2.648923514808992 -0.543143301168585 0 2.6285291669601554 -0.5551814994407768 0
          2.7366243517461335 0 0 2.750492576952738 0 0
          2.684344994342561 -0.39295541184453475 0 2.7057055823549168 -0.15442839255734722 0
          2.6193 -0.5063 0 2.6193 -0.5063 0
          2.6193 -0.5063 0 2.6193 -0.5063 0
          2.6193 -0.5063 0 2.6193 -0.5063 0
          2.6193 -0.5063 0 2.6193 -0.5063 0
          2.6568666804799257 -0.5129315672697043 0 2.623059115084923 -0.560854644462572 0
          <InformationKey name="L2_NORM_RANGE" location="vtkDataArray" length="2">
            <Value index="0">
              2.654436321
            </Value>
            <Value index="1">
              2.9321652891
            </Value>
          </InformationKey>
        </DataArray>
        <DataArray type="Float64" Name="Pressure" format="ascii" RangeMin="0.7005570134075755" RangeMax="1.8849690649048072">
          0.7212400000000008 0.7212399999999997 1.5457895999999978 0.7341257718490684 0.7212400000000011 1.5457895999999995
          0.7103874211390352 1.0140282811456869 0.7005570134075755 1.5457895999999984 1.4312357106344564 0.8853883612735419
          1.4322971501889084 1.4533182818100663 1.1006064000000002 0.7212400000000003 0.7235297178841785 0.7224765055245875
          0.8389580727546443 1.5457896000000004 0.7893700186680287 1.3143248160457126 1.5296447435551916 1.5457895999999995
          1.3147279757851795 1.5357325306044038 1.5156655751893644 1.545789599999997 1.4422812686601576 1.4981923014355338
          1.480583931492481 1.435212607602542 1.4640098454332078 1.4485627111476298 1.4956726717927087 1.440257633557325
          0.7212400000000003 0.7250770818764644 0.7258418185493197 0.723859965913998 0.7007409474594549 0.7208918848412472
          0.7509771710867194 0.7441254242642698 0.8688807582642082 1.0732410557482859 1.148732103988883 1.2592080704742927
          1.4035334928277605 1.5354741025534198 1.6666060872145538 1.3149709000000005 0.7843598381163468 0.9026960999999991
          0.7259838110733108 0.7212400000000011 0.7218582726772061 0.7254076534503523 0.7243318968142877 0.7223849709328507
          0.7218735872474018 0.9295058722210093 0.7424553563498589 0.7218582726772059 0.740337136948843 1.188748059358556
          1.432388856714728 1.0604468059117396 1.5457896000000004 1.52963164697448 1.545789599999999 0.8678683024397255
          1.1719709062217734 0.7505260139414934 0.954889621294282 1.551417461340382 1.4728741303403292 0.8048977945535266
          1.3571140765694996 1.5536090247769005 1.5539412746734553 1.5416771416984236 1.545789600000001 1.55118838789135
          1.5457895999999967 1.3991638214570403 1.4881706664005507 1.1750736853156198 1.4837771698659104 1.5467464349729785
          1.5261464833842924 1.4525901676182142 1.4858598925868252 1.5405327288561466 1.5331862575190112 1.5063874715002787
          1.5457895999999993 1.5249624221225755 1.5457896000000004 1.4425490557499658 1.460007052568521 1.446029119947424
          1.4690780844115252 1.5141397232049718 1.489571846384209 1.4792331612377898 1.4522094708719147 1.5064471798931767
          1.4982715950939818 1.4725050146696033 1.4460588457437122 1.433374503198999 1.4343539112765564 1.438193263764135
          1.4821687883128725 1.4561081697675682 1.4425298657721153 1.4901967526744344 1.433801326706547 1.4748952043380865
          1.4676508435651638 1.4442503422894772 1.5246635186888309 1.4461662355942213 1.474484071203395 1.4394126652333998
          1.4558942443235368 1.4385167797714078 1.435381945120485 1.4613090355100316 0.7246864618038624 0.7460611736181514
          0.7392834146222129 1.0636613042313392 0.9410700641653713 1.3729339042600814 1.324984571265599 1.4652586425289968
          1.4337927729107036 1.614717505351578 1.57062203186878 0.7177444407880326 0.7244700915164967 0.7272191678562419
          0.7254597584124206 0.7229949180692429 0.7290105150359415 0.7223453483830452 0.7046538238728757 0.7143716326679237
          0.7082264358688719 0.7091696814030869 0.7797151434254198 0.7330968224184207 0.715661878049393 0.7187112546815937
          0.8341130780982179 0.7959105452520183 0.8000345974687183 0.8441185767419686 0.7190211980659442 0.7790947915922445
          1.1754619832188193 0.9650243571442874 0.7392537653474918 0.9413306208889268 1.271127005186729 1.1732945624720597
          1.3009461020604904 1.3076766324784355 1.0026487564833935 1.1810288152204562 1.388986065883625 1.3354994070409942
          1.0509947469957128 1.4432546421820505 1.4169838581363738 1.4709526549485619 1.4922107572280854 1.559807980197703
          1.6010724907355438 1.6662450863221838 1.8274132849277525 1.7540475408637444 1.531317535542875 1.7262298753040264
          1.4283234749999978 1.1124144821809814 1.2057318750000003 1.0023701387096002 0.9015238396427439 0.7360075390398684
          0.8441293380454423 0.7479684294669048 0.73006701058394 0.8099112749999995 0.7316466126536406 0.9995944749999996
          0.762258613488088 0.8262495104393999 0.7236127301289552 0.723921774711095 0.7212400000000015 0.722167394067851
          0.7328884824928765 0.7248705308616091 0.7454864519023335 0.7319908325145904 0.7262531689577542 0.7231035282386412
          0.7221751083317947 0.7244154592878214 1.2342094603933085 1.0286027495777288 0.7638280432732836 0.8043549316948706
          0.7300273297305429 0.7743690292139065 0.8737931111293119 0.7724179675785281 0.7372386014055804 0.764627136285131
          0.8259845874031986 1.4041146863325669 0.9832282435259301 1.4883559529700925 1.3289543209068604 1.1196183729945726
          1.5451519617238212 1.5336573184679188 1.497300121742773 1.2606137427307307 1.1900841340144954 0.9004364479783782
          0.9325902304659093 1.3712549874506281 1.5457895999999993 1.5513554524942257 1.5486097911979393 1.55187111532736
          1.4599594411842118 1.5463698049770525 1.5457895999999987 1.5457895999999993 0.9418501400015563 1.0993658132218511
          0.8289233328751301 0.9987919106509809 1.415473230759727 1.2731743007735183 0.9108062303501034 1.344961392746577
          1.0577373069120783 0.7423405551031612 0.7666137117958111 0.770018696095816 0.8006675126261188 0.8432382939957803
          1.1252500685681521 0.8655364873447895 1.2413386144595626 1.506218715394576 1.5352210477610186 1.5525135650388695
          1.4086778406321636 1.510940091443708 1.544379882412688 0.750468172202555 1.0054917037900977 1.2009888833245772
          1.4684384461663906 1.415647910196675 1.4930813334235031 1.5505675055423198 1.5537753625244144 1.5506728823762368
          1.5478126620788162 1.5387096329295027 1.51068254417628 1.538808457296701 1.4152918140999005 1.4667050351982234
          1.357211437550724 1.4667998504712334 1.5047907729079852 1.4874041478789688 1.4584504558859115 1.509399230773466
          1.4878294821682565 1.0955225751295452 1.3610853962094325 1.2455704696206507 1.406050785280471 1.4429554299860772
          1.5157594035501345 1.4738474436708895 1.512459944354611 1.5209106204873084 1.5309444770330134 1.287612389838453
          1.5136827319248567 1.4677963374036822 1.500595376613804 1.4842420081707228 1.4960681389573232 1.5022928221608438
          1.4907641204979587 1.5110301043217689 1.535388826781333 1.5299923664913453 1.519553987886705 1.4374266535959406
          1.4423482540148995 1.442416808093233 1.4447268300885643 1.4665185671130192 1.455905299470551 1.4487663362439713
          1.470448488115529 1.4649234950322925 1.4386574156462915 1.4593224707588126 1.4441636639883242 1.4549201967951557
          1.4522298274589802 1.4798686624436859 1.474795407383786 1.475069678883823 1.529992366491346 1.5102949563235486
          1.4850808595633662 1.4938852098778928 1.4631102977348749 1.485332560108249 1.4404285842659068 1.4632347236426893
          1.449889227032334 1.4600358853284703 1.5228886497519196 1.5166771985110066 1.5023607883473462 1.5044700217327134
          1.5105694794810598 1.4942355378603593 1.4682592137460397 1.458294833604087 1.476546702968698 1.4409812513920384
          1.4465257259113102 1.4357850434155213 1.451303302779095 1.4403623970325894 1.4483071255538045 1.4827085025853315
          1.4785331438872307 1.4889778272857366 1.4861841396259097 1.4523369852838137 1.4600604541614177 1.4543625018981066
          1.4374496880508718 1.499705956406822 1.493617093943894 1.478923211083624 1.473511356586313 1.4712742183682055
          1.4626252715944514 1.4688883055222028 1.4644808511780338 1.540067656148077 1.48681508163883 1.5101895054467502
          1.4765838637636794 1.4672189484871845 1.4521750217391678 1.4427907463518377 1.463911190340268 1.4477639588621516
          1.4850907879214708 1.4527092835529392 1.46030673550801 1.4373977100396629 1.4450581096623447 1.4538726919203817
          1.4512169656582041 1.4586023954229534 1.4444327917053321 1.460182741606318 1.4539191953624395 1.4611366915028647
          1.5457895999999984 1.5457895999999984 1.8726592743608292 1.555422307961391 1.545789599999997 1.5457895999999975
          1.5457895999999987 1.4375247270882747 1.7106650901066414 1.7800972165468707 1.5457895999999995 1.545789599999999
          1.5457895999999995 1.5457895999999975 1.4581760251818008 1.4518501774766284 1.7982256234992648 1.5942902893719468
          1.658505922947135 1.8849690649048072 1.5457895999999987 1.5457895999999995 1.5457895999999995 1.5457895999999984
          1.5457895999999975 1.5457895999999987 1.5457895999999984 1.545789600000001 1.4990434871641771 1.443702271030444
        </DataArray>
        <DataArray type="Float64" Name="Temperature" format="ascii" RangeMin="0.0024086432829456017" RangeMax="0.003333273012396328">
          0.00247 0.00247 0.003114 0.002484739759561245 0.00247 0.003114
          0.0024530503147333124 0.002763606348573817 0.0024086432829456017 0.003114 0.0030904330856844717 0.0025255634382938103
          0.00310609694628378 0.003124667266033053 0.002792 0.00247 0.002472938660715891 0.0024664390306743597
          0.0025638545496604248 0.003114 0.002543749741187128 0.0029618528075021273 0.003112266102533629 0.003114
          0.003003818570386893 0.0031229643230919887 0.0031120221344424965 0.003114 0.0031066266682858693 0.003100957217838283
          0.003089631055518366 0.003111618730684854 0.003079167891986288 0.0030707509422551074 0.0031533013230960185 0.0030659425508689337
          0.00247 0.0024737372004069325 0.0024758585487869244 0.002472045837283183 0.0024322211323082746 0.00246333473291804
          0.002484633919450993 0.002422325595130329 0.0025993287722851782 0.0027953662109860464 0.00272729524197724 0.0029554919537030273
          0.003070444943317466 0.0031670003497523804 0.003256463170044748 0.002953 0.002523092059504682 0.002631
          0.0024734187506028444 0.00247 0.0024682167741168835 0.002475405173467686 0.002471242646841161 0.002471471168610115
          0.0024688649287427965 0.002652493553597616 0.0024769051522530038 0.0024682167741168826 0.0024872147717701206 0.0028673320632138072
          0.0030405167324924387 0.002764019818599071 0.003114 0.0031045141280284776 0.003114 0.0026233339636320134
          0.002872068696455658 0.0025029667210086115 0.0026898810017092585 0.0031209355624866137 0.0030717016287751453 0.0025499278179807886
          0.003009065463364854 0.0031232088030455816 0.0031244313507541146 0.0031249328929354374 0.003114 0.0031229120469412866
          0.003114 0.0030636169765347423 0.003106646419248847 0.002897807280275157 0.0031005455600847678 0.0031199647411930117
          0.003118096091590044 0.0030762231861939052 0.0031075498239611587 0.0031158622073892204 0.003111129171906229 0.003106262802160881
          0.003114 0.003105883447502108 0.003114 0.003110211563506718 0.0030948848373242312 0.003104411729872461
          0.003099914716366693 0.0030992268934140667 0.003095359845506097 0.0031050789843072688 0.0030900651888215334 0.0030944530958976115
          0.0030895482155288384 0.0030844901882995115 0.0031201022147066804 0.003074575722648854 0.0031097866172815356 0.0030779753578182713
          0.0030798288958506555 0.003074426161750787 0.00308177383808817 0.00308465342110467 0.003073959402459981 0.0030751741886746904