<?xml version="1.0"?>
<VTKFile type="UnstructuredGrid" version="0.1" byte_order="LittleEndian" header_type="UInt32" compressor="vtkZLibDataCompressor">
  <UnstructuredGrid>
    <Piece NumberOfPoints="86" NumberOfCells="117">
      <PointData>
        <DataArray type="Float64" Name="Velocity" NumberOfComponents="3" format="ascii" RangeMin="2.6677841329462924" RangeMax="2.838647635633487">
          2.6193 -0.5063 0 2.796479020807074 0 0
          2.6193 -0.5063 0 2.768301562699874 0 0
          2.6193 -0.5063 0 2.694662328808906 -0.4695038000950115 0
          2.7813642345621474 0 0 2.6193 -0.5063 0
          2.6950759631553747 -0.414932050575294 0 2.8057476304299405 0 0
          2.6193 -0.5063 0 2.7018905224634615 -0.37964148135092635 0
          2.8333480080337736 -0.00948245812667552 0 2.6193 -0.5063 0
          2.6193 -0.5063 0 2.6422963374305577 -0.5553284013130869 0
          2.6193 -0.5063 0 2.6949159181809197 -0.44142031875506627 0
          2.6400753771288312 -0.5504021704005001 0 2.6364527360424823 -0.5421971507907639 0
          2.6193 -0.5063 0 2.6981029385484114 -0.39572350324254557 0
          2.6322702051429214 -0.5308313999423988 0 2.6285600812392955 -0.5195302828240539 0
          2.776756534961169 0 0 2.7725905371636843 0 0
          2.7226535789150037 -0.28825113115415935 0 2.729256849437637 -0.2609174089274176 0
          2.793444921865135 0 0 2.7381362622414764 -0.23755105263579557 0
          2.7487003430485077 -0.22331414769262464 0 2.8199284023363895 -0.004239187643846279 0
          2.758729730669799 -0.21060724002697317 0 2.7687377014494228 -0.2063683424674656 0
          2.6193 -0.5063 0 2.6193 -0.5063 0
          2.6193 -0.5063 0 2.6193 -0.5063 0
          2.658747208642634 -0.5347345387041752 0 2.629407927376227 -0.5626261185137934 0
          2.6291094160559303 -0.5664389834426976 0 2.6415757590603226 -0.5535465676964133 0
          2.6193 -0.5063 0 2.6279185127200075 -0.5669202035866577 0
          2.6193 -0.5063 0 2.6949967255081675 -0.42804628959658897 0
          2.6552722392865724 -0.5101356095438039 0 2.694790461548396 -0.4553138781360316 0
          2.6564864916863224 -0.519035889792105 0 2.62769155294012 -0.5691769033279568 0
          2.6387841515623744 -0.5470726610579151 0 2.6579102736330538 -0.5278993622964763 0
          2.653489121775567 -0.4995553741843132 0 2.626132920598018 -0.5675740603400565 0
          2.6257080510933055 -0.5685987707121899 0 2.634779406427783 -0.5373585014409985 0
          2.6193 -0.5063 0 2.624308143655399 -0.5659815154989178 0
          2.6193 -0.5063 0 2.700006641995327 -0.3876404082682545 0
          2.6489770384256834 -0.47043073452848855 0 2.6965995242829512 -0.4052638530403179 0
          2.6507302268744932 -0.4798758445551792 0 2.624407034667349 -0.565335696323053 0
          2.6304485574395216 -0.5250411990111318 0 2.651891953323064 -0.48952868404915495 0
          2.6468472923901056 -0.4614757921714066 0 2.62191959035663 -0.5594693637667277 0
          2.6952774204484737 -0.49820254925066115 0 2.7312958296469474 -0.36900471652369304 0
          2.838647635633487 0 0 2.723053707439752 -0.3527798869908832 0
          2.719631941314105 -0.32317199973576305 0 2.629234983453684 -0.5394218270557556 0
          2.628002345092295 -0.53526381172667 0 2.630428562500144 -0.5565577419333148 0
          2.630746983859822 -0.5536805104334467 0 2.66005586123581 -0.5421452085451871 0
          2.6428484725113464 -0.5565231447921833 0 2.626863800206158 -0.5299854039573259 0
          2.625597623859644 -0.5252745514787474 0 2.6193 -0.5063 0
          2.6305021155798514 -0.5483128530879812 0 2.6302193134432517 -0.5448492959689828 0
          2.6304774290150323 -0.5611934754977691 0 2.694966559245225 -0.48369848657063874 0
          <InformationKey name="L2_NORM_RANGE" location="vtkDataArray" length="2">
            <Value index="0">
              2.6677841329
            </Value>
            <Value index="1">
              2.8386476356
            </Value>
          </InformationKey>
        </DataArray>
        <DataArray type="Float64" Name="Pressure" format="ascii" RangeMin="1.108100255796233" RangeMax="1.7854895712467018">
          1.5457896000000002 1.3285316760869708 1.5457896000000002 1.6318923713939115 1.5457896000000009 1.5045548849654058
          1.7551654136362342 1.5457895999999987 1.5979879931630778 1.7854895712467018 1.5457896000000002 1.6596160622991034
          1.7631369239572876 1.5457896000000009 1.5457896000000002 1.4387001826726822 1.5457896000000009 1.552263657704048
          1.4454614758600333 1.4595469072929403 1.5457896000000002 1.631419104084953 1.48008041405864 1.502602257439329
          1.5005222051220275 1.7083131496147994 1.6241795600971367 1.6837789247019463 1.7758896170144811 1.7222242088777877
          1.7443986266777336 1.7772596317870981 1.758476284655711 1.7623770177401736 1.5457896000000015 1.5457896000000002
          1.5457896000000009 1.5457896000000009 1.4380161746952225 1.433043759429126 1.4263691274925043 1.440976136485399
          1.5457895999999978 1.425512179958567 1.5457896000000009 1.5751854678547688 1.4800519796358762 1.528474964994322
          1.4645116784526446 1.4213037772777293 1.4509037567256 1.4494013624435074 1.4991052253453994 1.4244119272108975
          1.422549650587705 1.4682518263028805 1.5457895999999987 1.4273874678682796 1.5457896000000009 1.6455414551151561
          1.552541402564352 1.614736225150059 1.5346498957169596 1.42792149255075 1.49115094545158 1.5173805564053784
          1.569806384786561 1.4388020204679879 1.458798423049148 1.321356195160106 1.108100255796233 1.4368111179403509
          1.5440986020747507 1.479831586251311 1.489924297399892 1.4442821613269379 1.4504651041148062 1.4257530056463654
          1.4385322359879205 1.5007381759693867 1.5100372871105618 1.5457895999999987 1.4604403346451091 1.4684717710074362
          1.4357432677488524 1.4817438348302698
        </DataArray>
        <DataArray type="Float64" Name="Temperature" format="ascii" RangeMin="0.002711819551231736" RangeMax="0.0033661557921256945">
          0.003114 0.002889129806015781 0.003114 0.0031201912438926734 0.003114 0.0031780922878890477
          0.0032286654018649553 0.003114 0.0032407559343446673 0.0032764963994831218 0.003114 0.003286648601381747
          0.0032853022094218036 0.003114 0.003114 0.003071310704095525 0.003114 0.0032103876325399986
          0.003074625420981966 0.0030820468797856993 0.003114 0.0032648041975878238 0.003093042279625626 0.003105399091404643
          0.00302021998094756 0.003183437461431235 0.0032490048552194033 0.003293838554764114 0.0032561970389778433 0.0033237021536202016
          0.0033439006339789495 0.003284140578020505 0.003358057950546588 0.0033661557921256945 0.003114 0.003114
          0.003114 0.003114 0.003088829168406166 0.0030524351475928616 0.0030482578024003015 0.0030724427594233366
          0.003114 0.0030475585224888115 0.003114 0.003225842848189671 0.003115734638529543 0.0031945476664726794
          0.003105978995225194 0.0030449054297592465 0.0030775140772087446 0.0030962788516349505 0.0031274627100387506 0.003046688855115563
          0.003045527571044933 0.003086691983894603 0.003114 0.0030484193580270925 0.003114 0.0032758310853144594
          0.00316000483294759 0.0032529259235279918 0.0031494828206340923 0.0030487128605227584 0.003099061454578639 0.0031387983528785787
          0.003169418384979372 0.0030553032282359272 0.0031486009193842463 0.0030225168299529734 0.002711819551231736 0.0031111392035551824
          0.0031906067279671027 0.0030816396105923403 0.0030877421455116254 0.003059652183155242 0.0030636020393503753 0.003080899347322118
          0.0030715339379322948 0.0030942124949646372 0.0030998108016943304 0.003114 0.0030697364454039247 0.0030747286911252648
          0.0030543066438540522 0.003163649000773953
        </DataArray>
      </PointData>
      <CellData>
        <DataArray type="UInt8" Name="vtkGhostType" format="ascii" RangeMin="0" RangeMax="1">
          1 1 1 1 1 0
          0 0 0 1 1 1
          0 0 0 0 0 0
          0 0 0 0 0 0
          0 0 0 0 1 1
          1 1 1 1 1 1
          1 1 1 1 1 1
          1 1 1 1 1 1
          1 1 1 1 0 0
          0 0 0 0 0 0
          0 0 0 0 0 0
          0 0 0 0 0 0
          0 0 0 0 0 0
          0 0 0 0 0 0
          0 0 0 0 0 0
          0 0 0 0 0 0
          0 0 0 0 0 0
          0 0 0 0 0 0
          0 0 0 0 0 0
          0 0 1
        </DataArray>
        <DataArray type="Float64" Name="Error" format="ascii" RangeMin="0.0017827836253103378" RangeMax="0.2002853323008498">
          0.2002853323008498 0.17606347856129345 0.1934235603109633 0.1910008482478616 0.18107635294035793 0.16089770331799325
          0.1375796958891154 0.16768785707677222 0.16701934487743564 0.12374646605604821 0.1883870849655956 0.13400145840303063
          0.13533136003196322 0.12412722993978581 0.1386894926997047 0.13903880955403566 0.12779128906425735 0.13630486189421248
          0.16109063009938532 0.1340197161062057 0.11262027575361233 0.10754748157632894 0.11583018369158174 0.11587796934158776
          0.11235596965888407 0.12458818260788687 0.13568366388725234 0.1175799119710356 0.012246950626238158 0.009278507329388558
          0.022436910008869198 0.01923452735158983 0.017279070645043332 0.02040940657068675 0.012040896770743102 0.014074263384466467
          0.014303402338580072 0.017450169305975424 0.02174792242792832 0.005909009767008389 0.017205304183115746 0.030153775173040513
          0.002343017288343449 0.0017827836253103378 0.00508532009665125 0.02778985338594307 0.026826647071040065 0.029288150833092733
          0.02233997102973541 0.02386547206203731 0.024000140950097906 0.0268812168362158 0.030644727779425212 0.013942753313865172
          0.027987898501323834 0.02777940003686049 0.033185946496618435 0.008294000902581295 0.010297136561101674 0.008631108563900553
          0.023805618921354094 0.027438482618371816 0.008982275243382421 0.024503246781277205 0.010141035772830714 0.00823637755572643
          0.027000109165604563 0.011192753808073315 0.03212740049629584 0.03253342689428564 0.006214537552384684 0.03377484465100063
          0.030139723405884094 0.0030009217543755184 0.03052935513328352 0.030582220105821456 0.02104995786798778 0.0058984336066589945
          0.005061931302037087 0.0067690458972757914 0.03253651690909601 0.0044109362430220615 0.006191485764024581 0.004622185612428269
          0.029412478608673437 0.02081489568710338 0.02839873142451888 0.02846947354620057 0.03006708105151006 0.016666191155771778
          0.017792732182482403 0.017473424484577872 0.028908662746330416 0.03052933274884701 0.01758705707686859 0.030358025058919578
          0.018070137667219762 0.017245806625386415 0.030526696997668756 0.019307792445017683 0.030947899107999385 0.032705192784530775
          0.014706577151234655 0.032515236593906524 0.03318122390068906 0.01011375702183237 0.032162845840410945 0.032167833066670086
          0.03040013485970165 0.014974241959231313 0.013260234642632044 0.01613881513656817 0.032722389901329335 0.012426657697794892
          0.014979322214735783 0.012921162842489573 0.017947882235358183
        </DataArray>
        <DataArray type="Float64" Name="Markel" format="ascii" RangeMin="-1" RangeMax="1">
          1 1 1 1 1 1
          1 1 1 1 1 1
          1 1 1 1 1 1
          1 1 1 1 1 1
          1 1 1 1 1 0
          1 1 1 1 1 1
          1 1 1 0 1 1
          -1 -1 0 1 1 1
          1 1 1 1 1 1
          1 1 1 0 1 0
          1 1 0 1 1 0
          1 1 1 1 0 1
          1 -1 1 1 1 0
          0 0 1 -1 0 -1
          1 1 1 1 1 1
          1 1 1 1 1 1
          1 1 1 1 1 1
          1 1 1 1 1 1
          1 1 1 1 1 1
          1 1 1
        </DataArray>
      </CellData>
      <Points>
        <DataArray type="Float32" Name="Points" NumberOfComponents="3" format="ascii" RangeMin="1.7937500476837158" RangeMax="4.2201894765504395">
          2.049999952316284 1 0 2.049999952316284 0 0
          2.5625 1 0 2.5625 0 0
          3.075000047683716 1 0 3.075000047683716 0.5 0
          3.075000047683716 0 0 3.5875000953674316 1 0
          3.5875000953674316 0.5 0 3.5875000953674316 0 0
          4.099999904632568 1 0 4.099999904632568 0.5 0
          4.099999904632568 0 0 2.3062500953674316 1 0
          2.8187499046325684 1 0 3.075000047683716 0.75 0
          3.331249952316284 1 0 3.331249952316284 0.5 0
          3.331249952316284 0.75 0 3.5875000953674316 0.75 0
          3.84375 1 0 3.84375 0.5 0
          3.84375 0.75 0 4.099999904632568 0.75 0
          2.3062500953674316 0 0 2.8187499046325684 0 0
          2.8187499046325684 0.25 0 3.075000047683716 0.25 0
          3.331249952316284 0 0 3.331249952316284 0.25 0
          3.5875000953674316 0.25 0 3.84375 0 0
          3.84375 0.25 0 4.099999904632568 0.25 0
          2.434375047683716 1 0 2.1781249046325684 1 0
          2.9468750953674316 1 0 2.690624952316284 1 0
          3.075000047683716 0.625 0 3.075000047683716 0.875 0
          3.203125 0.875 0 3.203125 0.75 0
          3.4593749046325684 1 0 3.331249952316284 0.875 0
          3.203125 1 0 3.4593749046325684 0.5 0
          3.4593749046325684 0.625 0 3.203125 0.5 0
          3.331249952316284 0.625 0 3.4593749046325684 0.875 0
          3.4593749046325684 0.75 0 3.203125 0.625 0
          3.5875000953674316 0.625 0 3.5875000953674316 0.875 0
          3.715625047683716 0.875 0 3.715625047683716 0.75 0
          3.971874952316284 1 0 3.84375 0.875 0
          3.715625047683716 1 0 3.971874952316284 0.5 0
          3.971874952316284 0.625 0 3.715625047683716 0.5 0
          3.84375 0.625 0 3.971874952316284 0.875 0
          3.971874952316284 0.75 0 3.715625047683716 0.625 0
          4.099999904632568 0.625 0 4.099999904632568 0.875 0
          2.8187499046325684 0.5 0 2.049999952316284 0.25 0
          1.7937500476837158 0 0 2.3062500953674316 0.25 0
          2.5625 0.25 0 2.3062500953674316 0.875 0
          2.1781249046325684 0.875 0 2.8187499046325684 0.875 0
          2.690624952316284 0.875 0 2.9468750953674316 0.625 0
          2.9468750953674316 0.75 0 2.049999952316284 0.875 0
          1.921875 0.875 0 1.921875 1 0
          2.5625 0.875 0 2.434375047683716 0.875 0
          2.9468750953674316 0.875 0 2.9468750953674316 0.5 0
          <InformationKey name="L2_NORM_RANGE" location="vtkDataArray" length="2">
            <Value index="0">
              1.7937500477
            </Value>
            <Value index="1">
              4.2201894766
            </Value>
          </InformationKey>
        </DataArray>
      </Points>
      <Cells>
        <DataArray type="Int64" Name="connectivity" format="ascii" RangeMin="0" RangeMax="85">
          1 69 70 1 71 69
          3 72 24 1 24 71
          72 71 24 6 27 25
          5 26 27 3 25 26
          27 26 25 5 68 26
          3 26 72 68 72 26
          9 30 28 8 29 30
          6 28 29 30 29 28
          8 17 29 5 27 17
          6 29 27 17 27 29
          12 33 31 11 32 33
          9 31 32 33 32 31
          11 21 32 8 30 21
          9 32 30 21 30 32
          0 80 79 0 81 80
          2 83 82 2 34 83
          13 73 34 34 73 83
          0 79 35 13 35 74
          79 74 35 13 74 73
          5 38 85 15 77 38
          38 77 85 4 84 39
          15 39 78 84 78 39
          15 78 77 4 36 84
          14 75 36 36 75 84
          2 82 37 14 37 76
          82 76 37 14 76 75
          8 52 45 19 46 52
          17 45 46 52 46 45
          7 49 53 18 50 49
          19 53 50 49 50 53
          5 47 51 17 48 47
          18 51 48 47 48 51
          19 50 46 18 48 50
          17 46 48 50 48 46
          7 42 49 16 43 42
          18 49 43 42 43 49
          4 39 44 15 40 39
          16 44 40 39 40 44
          5 51 38 18 41 51
          15 38 41 51 41 38
          16 40 43 15 41 40
          18 43 41 40 41 43
          11 66 59 23 60 66
          21 59 60 66 60 59
          10 63 67 22 64 63
          23 67 64 63 64 67
          8 61 65 21 62 61
          22 65 62 61 62 65
          23 64 60 22 62 64
          21 60 62 64 62 60
          10 56 63 20 57 56
          22 63 57 56 57 63
          7 53 58 19 54 53
          20 58 54 53 54 58
          8 65 52 22 55 65
          19 52 55 65 55 52
          20 54 57 19 55 54
          22 57 55 54 55 57
          68 85 77
        </DataArray>
        <DataArray type="Int64" Name="offsets" format="ascii" RangeMin="3" RangeMax="351">
          3 6 9 12 15 18
          21 24 27 30 33 36
          39 42 45 48 51 54
          57 60 63 66 69 72
          75 78 81 84 87 90
          93 96 99 102 105 108
          111 114 117 120 123 126
          129 132 135 138 141 144
          147 150 153 156 159 162
          165 168 171 174 177 180
          183 186 189 192 195 198
          201 204 207 210 213 216
          219 222 225 228 231 234
          237 240 243 246 249 252
          255 258 261 264 267 270
          273 276 279 282 285 288
          291 294 297 300 303 306
          309 312 315 318 321 324
          327 330 333 336 339 342
          345 348 351
        </DataArray>
        <DataArray type="UInt8" Name="types" format="ascii" RangeMin="5" RangeMax="5">
          5 5 5 5 5 5
          5 5 5 5 5 5
          5 5 5 5 5 5
          5 5 5 5 5 5
          5 5 5 5 5 5
          5 5 5 5 5 5
          5 5 5 5 5 5
          5 5 5 5 5 5
          5 5 5 5 5 5
          5 5 5 5 5 5
          5 5 5 5 5 5
          5 5 5 5 5 5
          5 5 5 5 5 5
          5 5 5 5 5 5
          5 5 5 5 5 5
          5 5 5 5 5 5
          5 5 5 5 5 5
          5 5 5 5 5 5
          5 5 5 5 5 5
          5 5 5
        </DataArray>
      </Cells>
    </Piece>
  </UnstructuredGrid>
</VTKFile>
