<?xml version="1.0"?>
<VTKFile type="UnstructuredGrid" version="0.1" byte_order="LittleEndian" header_type="UInt32" compressor="vtkZLibDataCompressor">
  <UnstructuredGrid>
    <Piece NumberOfPoints="34" NumberOfCells="38">
      <PointData>
        <DataArray type="Float64" Name="Velocity" NumberOfComponents="3" format="ascii" RangeMin="2.6677841329462924" RangeMax="2.9017632137337603">
          2.6193 -0.5063 0 2.8537112866254635 0 0
          2.6193 -0.5063 0 2.8344978354190857 0 0
          2.6193 -0.5063 0 2.745408528999976 -0.42029658847985585 0
          2.8374791059568643 0 0 2.6193 -0.5063 0
          2.752469285430924 -0.38902651800056803 0 2.849649286642921 0 0
          2.6193 -0.5063 0 2.761452360361304 -0.3632339311756168 0
          2.8659977325526182 -0.013754580538576176 0 2.6193 -0.5063 0
          2.6193 -0.5063 0 2.653290714499149 -0.5469251517467613 0
          2.6193 -0.5063 0 2.7489699727892645 -0.4045239727002015 0
          2.651296310550741 -0.5435584008415093 0 2.6473398414359095 -0.5380103894759252 0
          2.6193 -0.5063 0 2.756981602417404 -0.3760705615427319 0
          2.6447650269579333 -0.5324554968553746 0 2.6380540428976276 -0.5248392406905663 0
          2.7355387966229117 -0.44793345099044196 0 2.9017632137337603 0 0
          2.7385735195350147 -0.4487234073600407 0 2.6450318368330517 -0.5432847113114935 0
          2.6395454871692614 -0.5359064013697967 0 2.6193 -0.5063 0
          2.6534633286893365 -0.5489825852920655 0 2.65120958707188 -0.548103501575831 0
          2.654939084504044 -0.549564435792642 0 2.7420333817073863 -0.43433383323748675 0
          <InformationKey name="L2_NORM_RANGE" location="vtkDataArray" length="2">
            <Value index="0">
              2.6677841329
            </Value>
            <Value index="1">
              2.9017632137
            </Value>
          </InformationKey>
        </DataArray>
        <DataArray type="Float64" Name="Pressure" format="ascii" RangeMin="0.8500465695262398" RangeMax="1.545789600000237">
          1.5457896000002367 1.0512510897227303 1.545789600000236 1.197745241616869 1.545789600000236 1.343908820538168
          1.2752665105326157 1.545789600000237 1.3824610906476418 1.3055678274869336 1.545789600000236 1.406694145491046
          1.2986146362493969 1.5457896000002351 1.5457896000002367 1.3919261228027342 1.5457896000002367 1.363263039038556
          1.3905362143421982 1.3991197743022523 1.545789600000236 1.3946350639969383 1.4063378233785941 1.4255349049455908
          1.228588397634607 0.8500465695262398 1.2921074164461244 1.4567730124940237 1.4724931915910502 1.5457896000002367
          1.4122556203208363 1.4271618513028907 1.3951036778975061 1.3180717026001412
        </DataArray>
        <DataArray type="Float64" Name="Temperature" format="ascii" RangeMin="0.002508836780743285" RangeMax="0.0031653642756267653">
          0.003114 0.0027222406482644277 0.003114 0.0028690347131801936 0.003114 0.0031063873820327014
          0.002952334998058388 0.003114 0.0031397522296737423 0.0029935996741580198 0.003114 0.0031653642756267653
          0.003000456275915942 0.003114 0.003114 0.003054637662714892 0.003114 0.0031233955012235706
          0.0030521563676628493 0.0030556865876271767 0.003114 0.003152747361790472 0.0030583609148251982 0.0030669696099497397
          0.0030072132781846683 0.002508836780743285 0.0030616144326700867 0.0030966876091102543 0.0031049716868247 0.003114
          0.0030697610548527645 0.003079025332620696 0.0030580423638521506 0.0030844271646603793
        </DataArray>
      </PointData>
      <CellData>
        <DataArray type="UInt8" Name="vtkGhostType" format="ascii" RangeMin="0" RangeMax="1">
          1 1 1 0 1 0
          0 0 0 1 1 1
          1 1 1 1 1 1
          1 1 1 0 0 0
          0 0 0 0 0 0
          0 0 0 0 0 0
          0 1
        </DataArray>
        <DataArray type="Float64" Name="Error" format="ascii" RangeMin="0.04155113891287592" RangeMax="0.390744298170119">
          0.390744298170119 0.3210704899959041 0.3726824397940618 0.34231270828277643 0.3322518406806348 0.31455583485278227
          0.32109438223018083 0.28092609530009854 0.29956953838953543 0.05088486951358293 0.04155113891287592 0.07187217752844512
          0.06113693158503492 0.05044523328413435 0.06565854118201883 0.06518647459568488 0.08207027434236011 0.06521622223879286
          0.07621397404985433 0.07150536205985344 0.08052430737682176 0.0684937312127347 0.07944384425097772 0.06222999428485881
          0.06135788998341663 0.07909785544124005 0.08203783407862146 0.06359631036878445 0.08311971309014718 0.07466424150570827
          0.06751539893742857 0.06768571445702462 0.067781893366794 0.07219001005093358 0.07934844176184962 0.06761176845168397
          0.0759373928271781 0.06660704212583901
        </DataArray>
        <DataArray type="Float64" Name="Markel" format="ascii" RangeMin="1" RangeMax="1">
          1 1 1 1 1 1
          1 1 1 1 1 1
          1 1 1 1 1 1
          1 1 1 1 1 1
          1 1 1 1 1 1
          1 1 1 1 1 1
          1 1
        </DataArray>
      </CellData>
      <Points>
        <DataArray type="Float32" Name="Points" NumberOfComponents="3" format="ascii" RangeMin="1.537500023841858" RangeMax="4.2201894765504395">
          2.049999952316284 1 0 2.049999952316284 0 0
          2.5625 1 0 2.5625 0 0
          3.075000047683716 1 0 3.075000047683716 0.5 0
          3.075000047683716 0 0 3.5875000953674316 1 0
          3.5875000953674316 0.5 0 3.5875000953674316 0 0
          4.099999904632568 1 0 4.099999904632568 0.5 0
          4.099999904632568 0 0 2.3062500953674316 1 0
          2.8187499046325684 1 0 3.075000047683716 0.75 0
          3.331249952316284 1 0 3.331249952316284 0.5 0
          3.331249952316284 0.75 0 3.5875000953674316 0.75 0
          3.84375 1 0 3.84375 0.5 0
          3.84375 0.75 0 4.099999904632568 0.75 0
          2.049999952316284 0.5 0 1.537500023841858 0 0
          2.5625 0.5 0 2.049999952316284 0.75 0
          1.7937500476837158 0.75 0 1.7937500476837158 1 0
          2.5625 0.75 0 2.3062500953674316 0.75 0
          2.8187499046325684 0.75 0 2.8187499046325684 0.5 0
          <InformationKey name="L2_NORM_RANGE" location="vtkDataArray" length="2">
            <Value index="0">
              1.5375000238
            </Value>
            <Value index="1">
              4.2201894766
            </Value>
          </InformationKey>
        </DataArray>
      </Points>
      <Cells>
        <DataArray type="Int64" Name="connectivity" format="ascii" RangeMin="0" RangeMax="33">
          1 24 25 26 24 1
          3 26 1 6 5 3
          5 26 3 9 8 6
          8 5 6 12 11 9
          11 8 9 0 28 27
          0 29 28 2 31 30
          2 13 31 0 27 13
          13 27 31 5 15 33
          4 32 15 15 32 33
          4 14 32 2 30 14
          14 30 32 8 19 17
          7 18 19 5 17 18
          19 18 17 7 16 18
          4 15 16 5 18 15
          16 15 18 11 23 21
          10 22 23 8 21 22
          23 22 21 10 20 22
          7 19 20 8 22 19
          20 19 22 26 33 32
        </DataArray>
        <DataArray type="Int64" Name="offsets" format="ascii" RangeMin="3" RangeMax="114">
          3 6 9 12 15 18
          21 24 27 30 33 36
          39 42 45 48 51 54
          57 60 63 66 69 72
          75 78 81 84 87 90
          93 96 99 102 105 108
          111 114
        </DataArray>
        <DataArray type="UInt8" Name="types" format="ascii" RangeMin="5" RangeMax="5">
          5 5 5 5 5 5
          5 5 5 5 5 5
          5 5 5 5 5 5
          5 5 5 5 5 5
          5 5 5 5 5 5
          5 5 5 5 5 5
          5 5
        </DataArray>
      </Cells>
    </Piece>
  </UnstructuredGrid>
</VTKFile>
