<?xml version="1.0"?>
<VTKFile type="UnstructuredGrid" version="0.1" byte_order="LittleEndian" header_type="UInt32" compressor="vtkZLibDataCompressor">
  <UnstructuredGrid>
    <Piece NumberOfPoints="51" NumberOfCells="75">
      <PointData>
        <DataArray type="Float64" Name="nsi_BC" NumberOfComponents="3" format="ascii" RangeMin="0" RangeMax="100">
          0 0 0 0 0 0
          0 0 0 0 0 0
          0 0 0 0 0 0
          0 0 0 0 0 0
          0 0 0 0 0 0
          0 0 0 0 0 0
          0 0 0 0 0 0
          0 0 0 0 0 0
          0 0 0 0 0 0
          0 0 0 0 0 0
          0 0 0 0 0 0
          0 0 0 0 0 0
          0 0 0 0 0 0
          0 0 0 0 0 0
          0 0 0 0 0 0
          0 0 0 0 0 0
          0 0 0 0 0 0
          0 0 0 0 0 0
          0 0 0 0 0 0
          0 0 0 0 0 0
          0 0 0 0 0 0
          0 0 0 0 0 0
          0 0 0 100 0 0
          0 0 0 100 0 0
          100 0 0 100 0 0
          100 0 0
          <InformationKey name="L2_NORM_RANGE" location="vtkDataArray" length="2">
            <Value index="0">
              0
            </Value>
            <Value index="1">
              100
            </Value>
          </InformationKey>
        </DataArray>
        <DataArray type="Float64" Name="nsi_FIXNO" NumberOfComponents="3" format="ascii" RangeMin="1" RangeMax="1.4142135623730951">
          0 1 0 -1 -1 0
          0 1 0 -1 -1 0
          -1 -1 0 0 1 0
          -1 -1 0 -1 -1 0
          -1 -1 0 0 1 0
          -1 -1 0 -1 -1 0
          -1 -1 0 -1 -1 0
          0 1 0 0 1 0
          -1 -1 0 0 1 0
          0 1 0 -1 -1 0
          -1 -1 0 -1 -1 0
          0 1 0 0 1 0
          -1 -1 0 -1 -1 0
          -1 -1 0 0 1 0
          -1 -1 0 0 1 0
          1 1 0 -1 -1 0
          -1 -1 0 1 1 0
          0 1 0 -1 -1 0
          1 1 0 -1 -1 0
          -1 -1 0 -1 -1 0
          0 1 0 -1 -1 0
          0 1 0 -1 -1 0
          -1 -1 0 1 1 0
          0 1 0 1 1 0
          1 1 0 1 1 0
          1 1 0
          <InformationKey name="L2_NORM_RANGE" location="vtkDataArray" length="2">
            <Value index="0">
              1
            </Value>
            <Value index="1">
              1.4142135624
            </Value>
          </InformationKey>
        </DataArray>
        <DataArray type="Float64" Name="tem_BC" format="ascii" RangeMin="0" RangeMax="1">
          0 0 0 0 0 0
          0 0 0 0 0 0
          0 0 0 0 0 0
          0 0 0 0 0 0
          0 0 0 0 0 0
          0 0 0 0 0 0
          0 0 0 0 0 0
          0 0 0 1 0 1
          1 1 1
        </DataArray>
        <DataArray type="Float64" Name="tem_FIXNO" format="ascii" RangeMin="-1" RangeMax="1">
          -1 -1 -1 -1 -1 -1
          -1 -1 -1 -1 -1 -1
          -1 -1 -1 -1 -1 -1
          -1 -1 -1 -1 -1 -1
          -1 -1 -1 -1 -1 -1
          1 -1 -1 1 -1 -1
          1 -1 -1 -1 -1 -1
          -1 -1 -1 1 -1 1
          1 1 1
        </DataArray>
        <DataArray type="Float64" Name="Velocity" NumberOfComponents="3" format="ascii" RangeMin="0" RangeMax="100.12954890343283">
          99.68451951945427 0 0 100.0010946960776 0.022782273302457412 0
          99.4198262097789 0 0 99.58679306588485 0.1843591018090862 0
          99.9630824021997 0.0539364770662889 0 98.66278941176115 0 0
          99.76647232921025 0.012234735390745044 0 98.61249872979 0.3568143011903757 0
          100.1295487676372 -0.0052148163600858055 0 96.63291786818496 0 0
          99.23577140839734 0.44243684174175435 0 99.79815642308638 0.20997014877435305 0
          96.10585251731567 1.874076878247485 0 98.85854575875089 0.5507912013757323 0
          100.128028748704 0 0 91.94415949733963 0 0
          98.95083665925529 -0.49964318484119796 0 99.79134163953987 0 0
          99.2123143059668 0 0 97.00735985829945 -1.0751153721249862 0
          90.85261596687971 3.455901979934964 0 94.83757483381669 0.10930989578787376 0
          96.28600508545503 0 0 74.64479311070124 0 0
          80.16331766082402 11.190040585273016 0 80.8709619795003 4.898167923169069 0
          83.76241527663842 -8.982922687978387 0 93.2993383217165 0 0
          60.12630587886207 0.33409296733225347 0 72.45122481553653 0 0
          0 0 0 65.7016341786468 -4.435061943914036 0
          61.98383232473839 -0.5911359473371078 0 0 0 0
          78.63780334899559 0 0 64.43264145250373 -5.336155574810256 0
          0 0 0 69.28046293263844 -12.940150566349516 0
          65.64056441509771 11.731119567832081 0 72.69660268318967 4.21341427532435 0
          62.84296653576022 0 0 73.5014389041545 -7.411318732372095 0
          69.97159766670961 0 0 68.99841915418574 -5.4772761958459455 0
          70.44470909272735 6.51781724594521 0 100 0 0
          66.6251306472775 0 0 100 0 0
          100 0 0 99.99999999999999 0 0
          100 0 0
          <InformationKey name="L2_NORM_RANGE" location="vtkDataArray" length="2">
            <Value index="0">
              0
            </Value>
            <Value index="1">
              100.1295489
            </Value>
          </InformationKey>
        </DataArray>
        <DataArray type="Float64" Name="Pressure" format="ascii" RangeMin="268.21373671357287" RangeMax="13275397.784949966">
          268.21373671357287 415.9870236538118 1994733.9196412952 2424174.6832630225 1430.3284917298006 3980078.5585845904
          1998939.1853141855 4873272.157641859 1206.206825692323 5941761.417899167 3991055.7800808614 2832823.0148237166
          6879089.889493993 5970641.562557947 826.1528982422315 7842796.512835872 4988203.343058725 2001364.682360794
          3994659.519812516 7928092.275029562 8629415.281237444 7074527.222334868 5965292.176753026 9569587.908567488
          9746412.674659586 10126288.752240825 9546838.585161338 7856943.136797224 10781694.027092893 11055734.577198597
          10850326.6440289 11183748.307150237 10755043.028068254 11106473.004157467 9598904.409227917 10470837.714743016
          11131146.017982686 11538343.00680611 11270721.52496498 11458481.809252946 12443605.74905348 12569695.871093653
          11083696.283846742 12524913.54362789 12500611.474998558 13275397.784949966 12476331.544681616 13151823.739844104
          13047230.31425422 13115570.015216172 13018569.48759418
        </DataArray>
        <DataArray type="Float64" Name="DISSI_NS" format="ascii" RangeMin="-97510884.95602353" RangeMax="730118933303.4357">
          255832.39948435975 -3299444.054218887 2109340.530084021 -886035.0425781142 -1928752.5723940225 2027382.3578057666
          21536.297575605015 -630375.4937251987 -2174425.3387556793 2657956.5778894946 308625.13316316484 -1043334.549876334
          1569938.6461326834 -6164011.4085467635 -1177928.4586437007 -16416524.27049498 -3608793.433860238 1163717.920565914
          15235.17877701009 -33617231.38406281 -1786378.895420741 -449123.1352148811 3432657.0269894567 27540180.845945355
          -5247932.036605068 50866993.373887554 37292955.69061766 -22753281.795754097 22362263.5861802 -6924772.1957961535
          730118933303.4357 36605098.31334152 51966679.6126005 413006552957.2846 22379132.725289974 37971733.71002563
          365969145928.99335 -29709631.632390812 -1980701.089383152 17123130.318871208 -12771288.355162552 -97510884.95602353
          -5436356.86891159 -37728752.830540866 -75580482.32584773 151423484.70977142 -58111044.22675835 106972621.08729649
          119501768.99618131 119174492.02544543 86290306.51173623
        </DataArray>
        <DataArray type="Float64" Name="Temperature" format="ascii" RangeMin="-0.014417748061182166" RangeMax="1">
          6.57359305408682e-8 -2.253534215807213e-7 1.015478524846225e-7 7.143300023423248e-7 -1.1904592286391295e-7 -0.0000020953392442973045
          -3.977415336285824e-7 -0.00000508357847981998 3.5229272868174594e-7 0.000029228586937296575 0.0000028286263215537236 -0.0000010517177179893006
          0.00002454316769493267 -0.000017908463522192084 -1.527147280021984e-7 -0.00026489628435855713 0.000003116468944733513 -1.43874527859322e-8
          0.0000021647945658299276 0.00009523497225307083 0.00003637873072173986 0.000015495504332358007 -0.000021965939549755983 0.00203974091118982
          0.0003935052354721138 -0.0004466058177781998 -0.0002619596783954516 0.00011934279996954532 0.0036653089754885813 -0.0005554888294477441
          0 -0.007061557236026372 0.0015703768172674727 0 -0.000227601243332462 0.0024985279912370225
          0 -0.013968519641573552 -0.014417748061182166 -0.01295601504572216 0.016546844087153262 0.04488660456955385
          -0.0025515787176519826 0.0510741525934717 0.04432893732374114 1 0.035503778582647846 1
          1 1 1
        </DataArray>
        <DataArray type="Float64" Name="DISSI_TEMPE" format="ascii" RangeMin="1.166325093787003e-14" RangeMax="0.058878569096513046">
          1.166325093787003e-14 2.6427632232398546e-13 2.2777452579261332e-12 9.916682922625459e-12 2.1236324068783058e-13 3.202965300650954e-10
          3.797281587865372e-12 5.13195097585409e-10 4.83772790906022e-13 2.143185410578033e-8 1.3722123209428267e-10 6.241617976351821e-12
          1.61571740978961e-8 3.2815532968858217e-9 2.987123625749099e-14 6.256750618234889e-7 1.9202095271275556e-10 1.7907007418985326e-12
          1.6127721658210388e-10 8.885390780750993e-8 9.407962479955459e-8 2.3338290696618603e-8 4.389495244033273e-9 0.000013527843974327798
          0.0000093155525175453 0.000003163607208716155 0.000002142483167130946 6.012018462237211e-8 0.00007952886831916681 0.0014451326352220475
          0.000003065885759593372 0.004013158562678726 0.00004872037356781491 0.00017589341115422248 0.000003982037507471793 0.00007127852558203265
          0.00015341660539818443 0.00951373216486961 0.008663988876085452 0.01104816456250576 0.03206788104952415 0.04915481371515338
          0.00265830221638338 0.058878569096513046 0.0560632579801888 0.04669293272816831 0.04170272230278614 0.05237409273417418
          0.056462625303681235 0.04758644971440719 0.03146732517932361
        </DataArray>
        <DataArray type="Float64" Name="CN2" format="ascii" RangeMin="9.811188585061805e-26" RangeMax="2.5466614336731054e-9">
          9.811188585061805e-26 5.241496886237554e-25 7.336233013680682e-22 6.3927441220565315e-21 9.923267091892112e-25 2.5155712443020694e-19
          1.980750697524553e-21 6.93776586646959e-19 1.1331485529109226e-24 3.2205375403352326e-17 2.181389562580547e-19 5.717843202714837e-21
          3.661240098579545e-17 5.371144973764752e-18 3.61565726608142e-25 1.4994335695423368e-15 5.400556754957001e-19 1.356350557962842e-21
          1.470179697705731e-19 9.821130470315794e-17 3.0555147501694763e-16 3.692507116962032e-17 9.877828354136684e-18 6.090240287793299e-14
          4.607227432768643e-14 9.792072435849083e-15 4.117752941279605e-15 8.74820270911404e-17 2.878174753761757e-13 4.3638060861782677e-13
          2.2105489017707108e-14 2.2064548156808472e-12 2.2900530411561054e-13 4.060562183087667e-13 1.752905305569281e-14 2.937404918788625e-13
          4.958701928858297e-13 7.574899118077231e-12 5.178220247391918e-12 9.556646895858598e-12 6.261101603085968e-10 1.127110793397415e-9
          1.8169755299473166e-12 1.2899406796739768e-9 1.2212235919790279e-9 2.345174071449574e-9 1.0612181384438956e-9 2.5466614336731054e-9
          2.4963223649680216e-9 2.4729065205967088e-9 2.2085318249098586e-9
        </DataArray>
        <DataArray type="Float64" Name="CT2" format="ascii" RangeMin="8.704537321085334e-14" RangeMax="0.13125586411163218">
          8.704537321085334e-14 4.63660641502903e-13 1.491303410699925e-12 8.949507512066157e-12 8.603390588996155e-13 1.3478767495609702e-10
          4.010335695936589e-12 2.501991203440195e-10 9.867864532165314e-13 7.86958866313227e-9 1.16255382867269e-10 5.929405442381166e-12
          6.704731740757113e-9 1.300014519316929e-9 3.1724258934955146e-13 2.1199679536587968e-7 1.8606310335814174e-10 2.73980539583561e-12
          7.821417500370808e-11 1.3592144999446815e-8 3.5765551883343857e-8 6.398607754391139e-9 2.395016481789254e-9 0.0000058100797288389936
          0.000004238739342018251 8.351919471468742e-7 3.946746390236235e-7 1.2324738454155404e-8 0.000021681936762380778 0.000031276358987270456
          0.00000164435885870726 0.00015455888319341235 0.000017335766710958745 0.00002884024138746575 0.000001662119611987166 0.000023448308577558454
          0.000035064728455920735 0.000498719480802231 0.0003571604808646917 0.0006379287517696848 0.03550273540445588 0.0626715302135621
          0.00012957247249866652 0.07224176169678172 0.06865062065288398 0.1186480147380266 0.05987880360739544 0.13125586411163218
          0.13071665661039425 0.12815474932829035 0.11615275288728087
        </DataArray>
      </PointData>
      <CellData>
        <DataArray type="UInt8" Name="vtkGhostType" format="ascii" RangeMin="0" RangeMax="0">
          0 0 0 0 0 0
          0 0 0 0 0 0
          0 0 0 0 0 0
          0 0 0 0 0 0
          0 0 0 0 0 0
          0 0 0 0 0 0
          0 0 0 0 0 0
          0 0 0 0 0 0
          0 0 0 0 0 0
          0 0 0 0 0 0
          0 0 0 0 0 0
          0 0 0 0 0 0
          0 0 0
        </DataArray>
      </CellData>
      <Points>
        <DataArray type="Float32" Name="Points" NumberOfComponents="3" format="ascii" RangeMin="0" RangeMax="17.88854381999832">
          16 8 0 16 6 0
          14 8 0 13.571430206298828 5.4463372230529785 0
          16 4 0 12 8 0
          14 3.464102029800415 0 11.101200103759766 5.649384021759033 0
          16 2 0 10 8 0
          12 3.464102029800415 0 13.166669845581055 1.776708960533142 0
          9.0526123046875 5.597301006317139 0 10 3.464102029800415 0
          16 0 0 8 8 0
          11 1.7320510149002075 0 14 0 0
          12 0 0 8 3.464102029800415 0
          7.214476108551025 5.006220817565918 0 8.865592002868652 1.8541419506072998 0
          10 0 0 6 8 0
          5.868243217468262 6.172163009643555 0 5.61288595199585 4.4169921875 0
          6.193554878234863 2.464600086212158 0 8 0 0
          4.574699878692627 4.995409965515137 0 4 8 0
          4.5 4 0 3.80739688873291 6.614357948303223 0
          4.723260879516602 3.0721371173858643 0 3.75 4.433012962341309 0
          6 0 0 4.8942999839782715 1.5862879753112793 0
          3.75 3.5669870376586914 0 3.0087170600891113 5.149643898010254 0
          3.5546820163726807 2.3947041034698486 0 2.864197015762329 3.831125020980835 0
          2 8 0 1.7273950576782227 6.389729976654053 0
          4 0 0 1.5482569932937622 4.574378967285156 0
          1.6611889600753784 2.800034999847412 0 0 8 0
          2 0 0 0 6 0
          0 4 0 0 2 0
          0 0 0
          <InformationKey name="L2_NORM_RANGE" location="vtkDataArray" length="2">
            <Value index="0">
              0
            </Value>
            <Value index="1">
              17.88854382
            </Value>
          </InformationKey>
        </DataArray>
      </Points>
      <Cells>
        <DataArray type="Int64" Name="connectivity" format="ascii" RangeMin="0" RangeMax="50">
          30 36 32 36 33 39
          33 30 28 32 36 38
          39 33 37 28 30 25
          30 32 25 36 39 38
          33 28 37 32 38 35
          39 37 43 28 25 24
          35 38 42 43 37 41
          24 25 20 32 35 26
          39 43 44 28 24 31
          41 37 31 26 35 34
          31 24 23 20 25 19
          44 43 48 48 43 47
          43 41 47 47 41 45
          32 26 25 28 31 37
          24 20 15 39 44 38
          35 42 34 44 48 49
          44 49 46 50 46 49
          14 8 17 15 23 24
          27 22 21 21 22 16
          27 21 26 16 22 18
          16 18 11 11 18 17
          16 11 10 11 17 8
          10 11 6 6 11 8
          10 6 3 3 4 1
          10 3 7 7 3 5
          10 7 13 13 7 12
          10 13 16 12 7 9
          13 12 19 16 13 21
          19 12 20 20 12 15
          19 25 26 21 13 19
          21 19 26 0 2 1
          4 3 6 29 40 31
          29 31 23 5 9 7
          46 42 38 8 4 6
          2 5 3 34 27 26
          40 45 41 40 41 31
          9 15 12 38 44 46
          1 2 3
        </DataArray>
        <DataArray type="Int64" Name="offsets" format="ascii" RangeMin="3" RangeMax="225">
          3 6 9 12 15 18
          21 24 27 30 33 36
          39 42 45 48 51 54
          57 60 63 66 69 72
          75 78 81 84 87 90
          93 96 99 102 105 108
          111 114 117 120 123 126
          129 132 135 138 141 144
          147 150 153 156 159 162
          165 168 171 174 177 180
          183 186 189 192 195 198
          201 204 207 210 213 216
          219 222 225
        </DataArray>
        <DataArray type="UInt8" Name="types" format="ascii" RangeMin="5" RangeMax="5">
          5 5 5 5 5 5
          5 5 5 5 5 5
          5 5 5 5 5 5
          5 5 5 5 5 5
          5 5 5 5 5 5
          5 5 5 5 5 5
          5 5 5 5 5 5
          5 5 5 5 5 5
          5 5 5 5 5 5
          5 5 5 5 5 5
          5 5 5 5 5 5
          5 5 5 5 5 5
          5 5 5
        </DataArray>
      </Cells>
    </Piece>
  </UnstructuredGrid>
</VTKFile>
