<?xml version="1.0"?>
<VTKFile type="UnstructuredGrid" version="0.1" byte_order="LittleEndian" header_type="UInt32" compressor="vtkZLibDataCompressor">
  <UnstructuredGrid>
    <Piece NumberOfPoints="49" NumberOfCells="75">
      <PointData>
        <DataArray type="Float64" Name="Velocity" NumberOfComponents="3" format="ascii" RangeMin="0" RangeMax="62.7016330134818">
          34.68093051596988 -0.008610543344326989 0 34.664151412412274 -0.05848914774316457 0
          34.68261759422608 0 0 33.69771642478302 0.2965140877279797 0
          34.66530653094655 0.002270366657736835 0 33.71439689491593 -2.160176385586496 0
          60.37305414701713 16.92894313058818 0 59.88118229861657 -15.46317297531683 0
          0 0 0 33.77086585493803 0.8693654608702275 0
          34.44263751969043 -0.3052831101266103 0 0 0 0
          34.68290336287954 0.013898899581750722 0 32.69459418705966 37.9182737815741 0
          0 0 0 0 0 0
          31.289779404940074 -35.06672701972971 0 0 0 0
          34.762002583427815 0.22128759347191881 0 0 0 0
          36.96237733258741 -2.6780105721843914 0 1.7327176753573235 19.83403199145135 0
          1.2475824977382552 -20.208542629207525 0 34.68392525549479 0 0
          34.68200737731289 -0.0467409592337451 0 36.327511610821766 3.454728942458342 0
          36.97306857243918 -0.7173457395664323 0 34.859450562950016 -0.23803120195716457 0
          34.717742833453336 0.023367842381878022 0 35.08419034726868 0.3384735600290408 0
          34.69224679074303 -0.006979872193686026 0 34.67259316646291 0.013526954262965815 0
          34.74087273844221 0.031810803367637475 0 34.693352049665876 -0.04352862934763046 0
          34.684 0 0 34.684 0 0
          34.684 0 0 34.684 0 0
          34.684 0 0 34.684 0 0
          34.81916507202026 -0.11337155760468488 0 34.65219934713877 -0.018575590848537046 0
          34.664754199118775 0.035561215304654906 0 34.676034284106336 -0.00932716417054556 0
          34.703697456101246 0.002752470702745277 0 34.687921018487124 0.005840163599073103 0
          34.68430700308482 0 0 34.69069950006505 0.015242221398811541 0
          34.684 0 0
          <InformationKey name="L2_NORM_RANGE" location="vtkDataArray" length="2">
            <Value index="0">
              0
            </Value>
            <Value index="1">
              62.701633013
            </Value>
          </InformationKey>
        </DataArray>
        <DataArray type="Float64" Name="Pressure" format="ascii" RangeMin="102722.91467937735" RangeMax="156825.20039110762">
          103066.99339856254 102880.05533959297 103064.04959139251 103674.87266216555 103095.53942109611 103276.84781605282
          112012.47506600589 111419.77521181958 146229.17186439352 103838.4386980033 102722.91467937735 146889.55174241748
          103071.73017579556 115349.83802913003 146981.63181374047 151288.02654224253 115507.06946568844 144189.79183800757
          102837.72929016085 156825.20039110762 103685.01742798707 116931.15164574313 117762.84890326537 103063.59496397211
          103081.75121830626 103334.14946411407 104063.01308823674 102826.02543310198 103122.39834943172 102793.28490656552
          103067.32861344494 103072.0929719506 103084.17964360992 103079.90888162113 103043.87999999999 103064.028
          103064.028 103064.028 103064.028 103064.028 102939.92818394987 103075.36769398206
          103086.40892675816 103073.21175163511 103067.89877428119 103068.09303497501 103064.05594280153 103069.25414003905
          103064.028
        </DataArray>
        <DataArray type="Float64" Name="Temperature" format="ascii" RangeMin="299.65156110036634" RangeMax="600">
          300.0024985715909 299.80185588930914 300.0000179042324 300.4113559137951 300.0270178470356 300.0466340953585
          313.9483640289512 313.0433985602631 600 300.5748464570526 299.65156110036634 600
          300.00646288995944 316.716376796723 600 600 316.70020157933584 600
          299.76841543822434 600 300.5051352864986 316.93014060448866 318.350326450237 299.9996776550038
          300.01499641229714 300.13785280164143 300.8715889292692 299.7725744096254 300.0489474855196 299.74739179854345
          300.00278034916823 300.00667990134343 300.0170954438418 300.0132948857284 300 300
          300 300 300 300 299.84478076967156 300.0101715496402
          300.0193793944265 300.0077431205773 300.0034982941787 300.00347901512566 300.0000237503038 300.0044051074757
          300
        </DataArray>
        <DataArray type="Float64" Name="Density" format="ascii" RangeMin="0.8230010949657965" RangeMax="1.2668352888086338">
          1.1765540525666613 1.1752060560042905 1.1765301762608513 1.181882531352855 1.1767837388754023 1.1787762127472354
          1.2218708890262897 1.2189190840571644 0.8346413919200543 1.18310329564563 1.1739995693820788 0.8384106834612869
          1.1765925770867185 1.247279019405193 0.8389362546446374 0.8635161332319781 1.2490429552357534 0.8230010949657965
          1.174853607921 0.8951210067985594 1.1816293115414092 1.263524979694063 1.2668352888086338 1.1765263208242565
          1.1766735002405162 1.179071783861661 1.1844926371323483 1.1747036012537766 1.1770042901883582 1.1744282260905232
          1.1765567741068454 1.1765958674087957 1.1766929879640713 1.1766591434401366 1.1763 1.17653
          1.17653 1.17653 1.17653 1.17653 1.1757216507989425 1.176619555080732
          1.1767094769745536 1.1766044687131894 1.1765604670722418 1.1765627602433832 1.176530225838585 1.17657238270687
          1.17653
        </DataArray>
        <DataArray type="Float64" Name="Momentum" NumberOfComponents="3" format="ascii" RangeMin="0" RangeMax="76.61330007358318">
          40.80398934534715 -0.010130769666568812 0 40.73752066611659 -0.06873680063829668 0
          40.805146191322514 0 0 39.826742388933226 0.3504448205857272 0
          40.79356902874919 0.0026717305641096034 0 39.741729086846156 -2.5463645386676617 0
          73.76807734384815 20.68498279324728 0 72.9903158796898 -18.84835663969069 0
          0 0 0 39.95442268978366 1.0285491418760482 0
          40.435641616499595 -0.35840223982826225 0 0 0 0
          40.807646648580054 0.016353342077561596 0 40.77928137748649 47.294667339819384 0
          0 0 0 0 0 0
          39.08227853662116 -43.79984834716864 0 0 0 0
          40.84026415369929 0.2599805275786393 0 0 0 0
          43.675828480439044 -3.1644157887108575 0 2.1893320655714064 25.060794869249968 0
          1.5804815338348392 -25.600894938073704 0 40.8065509725908 0 0
          40.80939901603016 -0.05499884810617012 0 42.83274391822682 4.073373416942866 0
          43.79432749624363 -0.8496907467946981 0 40.94952211402537 -0.2796161101498462 0
          40.8629322606307 0.027504050735915775 0 41.203863433365015 0.3975129026834506 0
          40.81739797063518 -0.008212215911881302 0 40.79562983200671 0.01591575848443337 0
          40.87934134707711 0.03743154926420288 0 40.82224990582696 -0.051218359723306045 0
          40.798789199999995 0 0 40.80676652 0 0
          40.80676652 0 0 40.80676652 0 0
          40.80676652 0 0 40.80676652 0 0
          40.937646237916546 -0.13329339486062752 0 40.77245537839924 -0.021856403439567372 0
          40.790344783096515 0.041845219061719965 0 40.79997689593127 -0.010974383043485454 0
          40.830998488084255 0.0032384482156246445 0 40.81251610061568 0.006871319004398382 0
          40.8071355513942 0 0 40.81611896855956 0.017933576748945336 0
          40.80676652 0 0
          <InformationKey name="L2_NORM_RANGE" location="vtkDataArray" length="2">
            <Value index="0">
              0
            </Value>
            <Value index="1">
              76.613300074
            </Value>
          </InformationKey>
        </DataArray>
        <DataArray type="Float64" Name="Energy" format="ascii" RangeMin="253282.20683469725" RangeMax="385618.1297288194">
          254139.41383395792 253678.25867171987 254132.22973177882 255597.65754160512 254209.1063533016 254620.55003242908
          277829.8247776247 276301.64406295295 359563.5116391594 256003.85846486353 253282.20683469725 361187.3224351224
          254151.1648579528 285197.48787049635 361413.73850090976 372002.7501963361 285400.2043955427 354548.8717112652
          253577.98862162384 385618.1297288194 255762.9338522609 287772.9143714647 289827.2174040533 254131.16288786536
          254175.8189185467 254873.80447972316 256690.8806367033 253553.10870969627 254277.42380027368 253481.70006258428
          254140.70154250067 254151.6382383863 254184.20555233632 254171.74302353576 254082.5526023064 254132.23294498984
          254132.23294498984 254132.23294498984 254132.23294498984 254132.23294498984 253832.127339164 254158.87304895406
          254186.58893461715 254154.53471463398 254142.57317642466 254142.40821880245 254132.31431736005 254145.38257284166
          254132.23294498984
        </DataArray>
      </PointData>
      <CellData>
        <DataArray type="UInt8" Name="vtkGhostType" format="ascii" RangeMin="0" RangeMax="1">
          0 0 0 0 0 0
          1 0 0 0 0 1
          0 1 0 1 1 0
          1 0 0 1 1 1
          1 0 1 1 1 0
          0 0 0 0 0 0
          0 0 0 0 0 0
          0 0 0 0 0 0
          0 0 0 0 0 0
          1 0 0 1 0 0
          0 0 0 0 0 0
          1 0 0 1 0 0
          1 0 0
        </DataArray>
      </CellData>
      <Points>
        <DataArray type="Float32" Name="Points" NumberOfComponents="3" format="ascii" RangeMin="0" RangeMax="1.920937301017636">
          1.086230993270874 0.8328040242195129 0 1.1399699449539185 0.19158749282360077 0
          1 1.2000000476837158 0 1.1142899990081787 -1.1752379625029619e-10 0
          1.0117520093917847 0.5012874007225037 0 0.9441453814506531 0.27375510334968567 0
          0.9649400115013123 0.0952281504869461 0 0.9649400115013123 -0.0952281504869461 0
          0.8999999761581421 0 0 0.9571449756622314 -0.27218320965766907 0
          0.8040652275085449 0.3902161121368408 0 0.8500000238418579 0.08660253882408142 0
          0.7502539157867432 0.7588304877281189 0 0.800000011920929 0.1904563009738922 0
          0.8500000238418579 -0.08660253882408142 0 0.75 0.08660253882408142 0
          0.800000011920929 -0.1904563009738922 0 0.75 -0.08660253882408142 0
          0.795934796333313 -0.3902161121368408 0 0.699999988079071 1.1588759812886096e-10 0
          0.6428549885749817 0.27218320965766907 0 0.6350600123405457 0.0952281504869461 0
          0.6350600123405457 -0.0952281504869461 0 0.5 1.2000000476837158 0
          0.5381680727005005 0.4375059902667999 0 0.6558545827865601 -0.27375510334968567 0
          0.49003541469573975 0.013452219776809216 0 0.4600304067134857 0.19158749282360077 0
          0.5882480144500732 -0.5012874007225037 0 0.4600304067134857 -0.19158749282360077 0
          0.3115612864494324 0.75 0 0.22405309975147247 0.348176509141922 0
          0.25999629497528076 0.06726109236478806 0 0.30146610736846924 -0.47640809416770935 0
          0 1.2000000476837158 0 0 0.8999999761581421 0
          0 0.6000000238418579 0 0 0.30000001192092896 0
          0 0 0 0 -0.30000001192092896 0
          1.1399699449539185 -0.19158749282360077 0 1.3130509853363037 -0.04950660839676857 0
          1.0851390361785889 -0.4247578978538513 0 0.8886095285415649 -0.6650667190551758 0
          1.4437849521636963 0.2196556031703949 0 1.410377025604248 0.5858561992645264 0
          1.5 1.2000000476837158 0 0.4590522050857544 -0.7891657948493958 0
          0 -0.6000000238418579 0
          <InformationKey name="L2_NORM_RANGE" location="vtkDataArray" length="2">
            <Value index="0">
              0
            </Value>
            <Value index="1">
              1.920937301
            </Value>
          </InformationKey>
        </DataArray>
      </Points>
      <Cells>
        <DataArray type="Int64" Name="connectivity" format="ascii" RangeMin="0" RangeMax="48">
          8 14 7 11 8 6
          7 14 16 13 11 6
          6 8 7 7 16 9
          7 9 40 13 6 5
          5 6 1 13 5 10
          6 7 3 3 7 40
          6 3 1 3 40 41
          10 5 4 1 3 41
          40 9 42 5 1 4
          9 18 42 10 4 12
          12 4 0 18 43 42
          1 41 44 1 45 4
          0 4 45 12 0 2
          2 0 46 45 1 44
          0 45 46 2 23 12
          17 19 22 15 11 13
          14 17 16 19 15 21
          21 15 13 22 19 21
          16 17 22 9 16 18
          21 13 20 20 13 10
          21 20 27 16 22 25
          25 22 29 16 25 18
          22 21 26 26 21 27
          22 26 29 18 25 28
          26 27 32 29 26 32
          27 20 24 20 10 24
          25 29 28 32 27 31
          18 28 43 27 24 31
          31 30 36 43 28 47
          32 31 37 37 31 36
          10 12 24 34 35 23
          38 39 32 35 36 30
          37 38 32 32 39 29
          39 48 33 28 29 33
          33 29 39 28 33 47
          30 31 24 35 30 23
          33 48 47 30 24 12
          30 12 23
        </DataArray>
        <DataArray type="Int64" Name="offsets" format="ascii" RangeMin="3" RangeMax="225">
          3 6 9 12 15 18
          21 24 27 30 33 36
          39 42 45 48 51 54
          57 60 63 66 69 72
          75 78 81 84 87 90
          93 96 99 102 105 108
          111 114 117 120 123 126
          129 132 135 138 141 144
          147 150 153 156 159 162
          165 168 171 174 177 180
          183 186 189 192 195 198
          201 204 207 210 213 216
          219 222 225
        </DataArray>
        <DataArray type="UInt8" Name="types" format="ascii" RangeMin="5" RangeMax="5">
          5 5 5 5 5 5
          5 5 5 5 5 5
          5 5 5 5 5 5
          5 5 5 5 5 5
          5 5 5 5 5 5
          5 5 5 5 5 5
          5 5 5 5 5 5
          5 5 5 5 5 5
          5 5 5 5 5 5
          5 5 5 5 5 5
          5 5 5 5 5 5
          5 5 5 5 5 5
          5 5 5
        </DataArray>
      </Cells>
    </Piece>
  </UnstructuredGrid>
</VTKFile>
