<?xml version="1.0"?>
<VTKFile type="UnstructuredGrid" version="0.1" byte_order="LittleEndian" header_type="UInt32" compressor="vtkZLibDataCompressor">
  <UnstructuredGrid>
    <Piece NumberOfPoints="58" NumberOfCells="82">
      <PointData>
        <DataArray type="Float64" Name="Velocity" NumberOfComponents="3" format="ascii" RangeMin="34.47280403123758" RangeMax="67.0149033413544">
          34.6840000328442 0 0 34.68400001371095 -5.340486577461634e-9 0
          34.684000015334085 -8.862191653476813e-9 0 34.683999784389925 0 0
          34.68399917427397 -2.665939463701931e-8 0 34.6839998369741 6.332119749415272e-8 0
          34.68399950092436 -7.307745934610043e-8 0 34.68400199018049 0 0
          34.68400792753823 0.00000616912533070318 0 34.68400810491197 -0.000004531293426033582 0
          34.68403061834814 0.0000019776467017123956 0 34.68399934463678 3.4221177767774916e-7 0
          34.68386502390678 0 0 34.683770685079836 -0.00000257981390757993 0
          34.68399986245716 0 0 34.68401916418464 -0.000018348481609641163 0
          34.68347222263579 0.000001649292108095209 0 34.68842247696664 0 0
          34.683375572980474 0.000336040192433535 0 34.68400544327623 0 0
          34.691430253289084 -0.0003701172659247783 0 34.68390860650612 0.0000010091264934510337 0
          34.67861336319858 0 0 34.69142605434182 -0.002732555488337204 0
          34.686341513900416 -0.0013369248239807087 0 34.683877563632066 0 0
          34.65840880858257 -0.020823378932114976 0 34.585354958944194 -0.023552582180429233 0
          34.52555299857161 0.06924499772264825 0 34.64329980342646 0.01470709848754942 0
          34.683212846196646 0 0 38.0128384782962 -1.8370263778798945 0
          34.68956775245292 -0.0036256276709047968 0 34.47331271951653 0.21282777332694666 0
          34.69293844773187 0.07410874529023485 0 34.683115785096376 0 0
          34.67441307613543 -0.019713326814244717 0 34.683775989431396 0 0
          34.684 0 0 34.684 0 0
          34.684 0 0 34.684000016672286 -8.100117017976172e-9 0
          34.684000002157944 -5.58059834592694e-10 0 34.684 1.1531176257204722e-17 0
          34.684 -3.868859824195147e-17 0 34.684 0 0
          64.56379002053059 -17.958682803477164 0 38.31399617128739 -5.988628130072169 0
          40.888084904032176 -0.8570711923650993 0 36.651940713570916 1.4139456458059119 0
          34.335831192157634 -3.4995110082481986 0 34.469954156077264 -0.4432586762169964 0
          34.692288961369464 0.018258806453327548 0 34.69449091751552 0 0
          34.684000017265426 0 0 34.97696359954378 0.6201187978394684 0
          34.684 0 0 34.71359363862001 0.20125437482332445 0
          <InformationKey name="L2_NORM_RANGE" location="vtkDataArray" length="2">
            <Value index="0">
              34.472804031
            </Value>
            <Value index="1">
              67.014903341
            </Value>
          </InformationKey>
        </DataArray>
        <DataArray type="Float64" Name="Pressure" format="ascii" RangeMin="102907.6347925107" RangeMax="109919.15931760649">
          103064.02801193218 103064.02800425724 103064.02800513925 103064.02789168022 103064.02751093784 103064.02790158175
          103064.0279685401 103064.02923918309 103064.03052412017 103064.03113903174 103064.0391247791 103064.02756902722
          103063.96687798016 103063.87327272116 103064.02785735257 103064.03599162419 103063.76711206551 103066.06796773348
          103063.78967136104 103064.02927997563 103066.33160805535 103063.97542293268 103064.12954355296 103068.71906371211
          103065.01571906947 103063.91479194636 103046.0303375587 103022.84059869136 103073.31841330812 103035.82905700244
          103063.71112089997 104239.52414555722 103069.2157820803 103072.68455513364 103024.04989279322 103067.94871579703
          103089.77646466327 103061.38252994063 103064.028 103064.028 103043.87999999999 103064.02800711806
          103064.02800107247 103064.028 103064.028 103064.028 109919.15931760649 106574.65299525468
          105984.97883743347 103760.74273441268 104287.9633348037 102952.53602447914 103079.7787912566 103067.95720271287
          103064.02800911646 102907.6347925107 103064.028 102999.4165679323
        </DataArray>
        <DataArray type="Float64" Name="Temperature" format="ascii" RangeMin="299.86642259309195" RangeMax="314.92779939979">
          300.0000000100401 300.00000000358114 300.0000000043232 299.9999999088585 299.99999958847195 299.9999999171905
          299.9999999735882 300.00000104275705 300.0000021234701 300.0000026411112 300.0000093605566 299.99999963737355
          299.99994856350656 299.99986977119926 299.9999998799749 300.00000672406213 299.99978043953075 300.001718205903
          299.99979934757624 300.0000010768781 300.001942246132 299.9999557454527 300.0000842322468 300.00396450261906
          300.00083332213944 299.99990471753694 299.9847077924891 299.9647977861796 300.0055243744767 299.9757195713086
          299.99973339440953 301.02736856482653 300.0043728810493 300.0051294727147 299.9660338197714 300.00329831348046
          300.0216484311542 299.9978827778641 300 300 300 300.00000000598914
          300.0000000009022 299.99999999999994 299.99999999999994 299.99999999999994 314.92779939979 303.03699358823087
          302.54650671346116 300.6049577869635 301.07008436826266 299.90348530456595 300.0132494420358 300.00330605678585
          300.0000000076707 299.86642259309195 300 299.945536628937
        </DataArray>
        <DataArray type="Float64" Name="Density" format="ascii" RangeMin="1.175267986912602" RangeMax="1.2044129794788467">
          1.1765300000968373 1.1765300000345544 1.1765300000417125 1.1765299991209084 1.1765299960310156 1.1765299992012637
          1.1765299997444496 1.1765300100564757 1.1765300204864029 1.1765300254758735 1.1765300902852736 1.176529996502356
          1.1765295039818877 1.1765287444332873 1.1765299988423152 1.1765300648583823 1.176527882890612 1.176546548805476
          1.1765280662641302 1.1765300103883294 1.1765486797385345 1.176529573361113 1.1765308288335283 1.1765680025991918
          1.1765380072146123 1.1765290813459164 1.176384512285987 1.1761978400788462 1.1766143880847917 1.1763032980858474
          1.1765274282213078 1.185887759751929 1.1765720712242465 1.176608701181768 1.1762067997536532 1.1765618214639255
          1.1767390170663565 1.1765081036667657 1.17653 1.17653 1.1763 1.1765300000577683
          1.1765300000087044 1.17653 1.17653 1.17653 1.1953072349679073 1.2044129794788467
          1.1996907855106664 1.1820996299610513 1.1862704994924271 1.1756354808880127 1.176657836687147 1.176561887977535
          1.1765300000739864 1.175267986912602 1.17653 1.1760059240646183
        </DataArray>
        <DataArray type="Float64" Name="Momentum" NumberOfComponents="3" format="ascii" RangeMin="40.52745154482221" RangeMax="80.10339881459588">
          40.806766562000895 0 0 40.80676653732983 -6.283242673165474e-9 0
          40.80676653948777 -1.0426634346434739e-8 0 40.80676623583787 0 0
          40.8067654108483 -3.136557746648161e-8 0 40.806766300491766 7.449928843721857e-8 0
          40.80676592395903 -8.597782322579256e-8 0 40.80676921030588 0 0
          40.80677655753711 0.000007258161151715399 0 40.806776939277476 -0.0000053312027699699485 0
          40.806805674862325 0.0000023267608525180582 0 40.806765627633226 4.026224215942672e-7 0
          40.80659051275179 0 0 40.806453176329036 -0.0000030352252175565477 0
          40.80676631802359 0 0 40.80679131678753 -0.000021587540258243953 0
          40.80607214539304 0.000001940438152205451 0 40.81254374878141 0 0
          40.805964794391286 0.0003953607177908531 0 40.80677328448665 0 0
          40.81615646274873 -0.00043546098057223396 0 40.80664419530848 0.0000011872671628073405 0
          40.80045772300149 0 0 40.81682186007451 -0.003215037352904363 0
          40.80979912232988 -0.0015729428682020093 0 40.806590607454275 0 0
          40.771615342892765 -0.024496300469202374 0 40.679219801070374 -0.027702496288900386 0
          40.62326241470338 0.08147466062336656 0 40.751027815347335 0.01730000845617776 0
          40.80575121238797 0 0 45.078959864838616 -2.178507095869189 0
          40.81477658037736 -0.004265812258244397 0 40.561599704343266 0.25041500994962645 0
          40.80607010565718 0.08716721013158575 0 40.80682988215722 0 0
          40.80273476056443 -0.02319744081850218 0 40.805743517328835 0 0
          40.80676652 0 0 40.80676652 0 0
          40.798789199999995 0 0 40.80676654161908 -9.530030675627436e-9 0
          40.80676652284079 -6.565741371981999e-10 0 40.80676652 1.3566774801889072e-17 0
          40.80676652 -4.5518296489603166e-17 0 40.80676652 0 0
          77.17356532848898 -21.466143485489994 0 46.14587428440137 -7.212781449131056 0
          49.053058696545186 -1.0282204120070495 0 43.326245554866574 1.6714246246922082 0
          40.7315836188085 -4.151366671733838 0 40.52410113046765 -0.5211106269721525 0
          40.82095367901038 0.021484367701861712 0 40.820215736331505 0 0
          40.80676654287944 0 0 41.107305597951175 0.7288057711834548 0
          40.80676652 0 0 40.82339176458898 0.23667633703615074 0
          <InformationKey name="L2_NORM_RANGE" location="vtkDataArray" length="2">
            <Value index="0">
              40.527451545
            </Value>
            <Value index="1">
              80.103398815
            </Value>
          </InformationKey>
        </DataArray>
        <DataArray type="Float64" Name="Energy" format="ascii" RangeMin="253759.1364382595" RangeMax="272964.7333330722">
          254132.23297572846 254132.2329560383 254132.23295827757 254132.23266931475 254132.2317063504 254132.2326958558
          254132.2328471136 254132.23607928393 254132.23948737892 254132.24100962668 254132.261603497 254132.2318564221
          254132.0768455293 254131.84237267778 254132.2325879245 254132.2534166679 254131.56863647053 254137.43946500198
          254131.6202740875 254132.23632069817 254138.21177396213 254132.09967693724 254132.26333506842 254144.09375889867
          254134.7620222659 254131.94902846077 254086.8473850781 254026.739084028 254148.67935605635 254061.09866734612
          254131.4201020028 257173.78490067236 254145.24174515315 254145.0206421333 254034.10413705665 254141.85666699865
          254195.28067408738 254125.7056764178 254132.23294498984 254132.23294498984 254082.5526023064 254132.23296320756
          254132.23294772024 254132.23294498984 254132.23294498984 254132.23294498984 272964.7333330722 262962.4659863256
          261610.1834615134 255932.89386715306 257140.64189096593 253848.96137070062 254171.37804184502 254142.34183475567
          254132.23296815538 253759.1364382595 254132.23294498984 253974.2758165695
        </DataArray>
      </PointData>
      <CellData>
        <DataArray type="UInt8" Name="vtkGhostType" format="ascii" RangeMin="0" RangeMax="1">
          1 1 1 0 1 0
          1 0 0 0 0 1
          1 0 0 0 0 0
          0 0 0 0 0 0
          0 0 0 0 0 0
          0 0 0 0 0 0
          0 0 0 0 0 0
          0 0 0 0 0 0
          0 0 0 1 1 0
          0 0 0 1 0 0
          0 0 0 0 0 0
          0 0 0 0 0 0
          0 0 0 0 0 0
          0 0 0 0
        </DataArray>
      </CellData>
      <Points>
        <DataArray type="Float32" Name="Points" NumberOfComponents="3" format="ascii" RangeMin="0.30000001192092896" RangeMax="4.65725242116432">
          4 1.2000000476837158 0 4 0.5320507884025574 0
          3.75 0.09903810918331146 0 3.5 1.2000000476837158 0
          3.5 0.5320507884025574 0 3.5 -0.33397459983825684 0
          3.25 0.09903810918331146 0 3 1.2000000476837158 0
          2.9339659214019775 0.3125396966934204 0 2.9850969314575195 -0.18481269478797913 0
          2.75 0.7669873237609863 0 3.0359580516815186 -0.6821928024291992 0
          2.5 1.2000000476837158 0 2.528865098953247 0.019508730620145798 0
          3 -1.2000000476837158 0 2.5798211097717285 -0.47746700048446655 0
          2.25 0.7669873237609863 0 2 1.2000000476837158 0
          2.1248021125793457 -0.274284690618515 0 2.5 -1.2000000476837158 0
          1.8583029508590698 0.4420956075191498 0 2.1729509830474854 -0.7651854157447815 0
          1.5 1.2000000476837158 0 1.6643450260162354 -0.16851860284805298 0
          1.7341229915618896 -0.5399479269981384 0 2 -1.2000000476837158 0
          1.410377025604248 0.5858561992645264 0 1.4437849521636963 0.2196556031703949 0
          1.3130509853363037 -0.04950660839676857 0 1.3759469985961914 -0.348176509141922 0
          1.5 -1.2000000476837158 0 1.1399699449539185 -0.19158749282360077 0
          1.2639700174331665 -0.7296581864356995 0 1.0851390361785889 -0.4247578978538513 0
          0.8886095285415649 -0.6650667190551758 0 1 -1.2000000476837158 0
          0.4590522050857544 -0.7891657948493958 0 0.5 -1.2000000476837158 0
          0 -0.6000000238418579 0 0 -0.8999999761581421 0
          0 -1.2000000476837158 0 3.75 -0.7669873237609863 0
          4 -0.33397459983825684 0 4.25 0.09903810918331146 0
          4.5 0.5320507884025574 0 4.5 1.2000000476837158 0
          0.9649400115013123 -0.0952281504869461 0 0.9571449756622314 -0.27218320965766907 0
          1.1142899990081787 -1.1752379625029619e-10 0 1.1399699449539185 0.19158749282360077 0
          0.795934796333313 -0.3902161121368408 0 1.0117520093917847 0.5012874007225037 0
          1.086230993270874 0.8328040242195129 0 1 1.2000000476837158 0
          3.5 -1.2000000476837158 0 0.5882480144500732 -0.5012874007225037 0
          0 -0.30000001192092896 0 0.30146610736846924 -0.47640809416770935 0
          <InformationKey name="L2_NORM_RANGE" location="vtkDataArray" length="2">
            <Value index="0">
              0.30000001192
            </Value>
            <Value index="1">
              4.6572524212
            </Value>
          </InformationKey>
        </DataArray>
      </Points>
      <Cells>
        <DataArray type="Int64" Name="connectivity" format="ascii" RangeMin="0" RangeMax="57">
          41 42 5 5 42 2
          2 42 43 5 2 6
          2 43 1 6 2 4
          1 43 44 2 1 4
          4 1 0 0 3 4
          3 7 4 45 0 1
          1 44 45 46 47 31
          48 46 31 48 31 28
          49 48 28 31 47 33
          47 50 33 28 31 29
          31 33 29 29 33 32
          28 29 23 50 34 33
          49 28 27 27 28 23
          49 26 51 32 33 34
          29 32 24 52 51 26
          23 29 24 23 24 18
          53 52 22 24 32 30
          26 49 27 26 27 20
          52 26 22 27 23 20
          18 24 21 23 18 20
          26 20 17 21 24 25
          21 25 19 18 21 15
          15 21 19 18 15 13
          13 15 9 18 13 20
          9 15 11 13 9 8
          17 22 26 41 5 11
          54 41 11 6 4 8
          6 8 9 6 9 5
          35 30 32 14 54 11
          7 12 10 10 12 16
          7 10 4 16 12 17
          16 17 20 10 16 13
          11 15 19 19 14 11
          13 8 10 10 8 4
          30 25 24 9 11 5
          16 20 13 32 34 35
          50 55 34 34 55 36
          38 39 36 56 38 57
          39 40 37 55 57 36
          34 36 35 57 38 36
          37 35 36 37 36 39
        </DataArray>
        <DataArray type="Int64" Name="offsets" format="ascii" RangeMin="3" RangeMax="246">
          3 6 9 12 15 18
          21 24 27 30 33 36
          39 42 45 48 51 54
          57 60 63 66 69 72
          75 78 81 84 87 90
          93 96 99 102 105 108
          111 114 117 120 123 126
          129 132 135 138 141 144
          147 150 153 156 159 162
          165 168 171 174 177 180
          183 186 189 192 195 198
          201 204 207 210 213 216
          219 222 225 228 231 234
          237 240 243 246
        </DataArray>
        <DataArray type="UInt8" Name="types" format="ascii" RangeMin="5" RangeMax="5">
          5 5 5 5 5 5
          5 5 5 5 5 5
          5 5 5 5 5 5
          5 5 5 5 5 5
          5 5 5 5 5 5
          5 5 5 5 5 5
          5 5 5 5 5 5
          5 5 5 5 5 5
          5 5 5 5 5 5
          5 5 5 5 5 5
          5 5 5 5 5 5
          5 5 5 5 5 5
          5 5 5 5 5 5
          5 5 5 5
        </DataArray>
      </Cells>
    </Piece>
  </UnstructuredGrid>
</VTKFile>
