<?xml version="1.0"?>
<VTKFile type="UnstructuredGrid" version="0.1" byte_order="LittleEndian" header_type="UInt32" compressor="vtkZLibDataCompressor">
  <UnstructuredGrid>
    <Piece NumberOfPoints="27" NumberOfCells="32">
      <PointData>
        <DataArray type="Float64" Name="Density" format="ascii" RangeMin="1" RangeMax="2.40389185313618">
          1 1 1.6999999999999997 1.2504775554987537 1 1.7
          1.099647755998996 1.4255782096341587 1.3708033359028369 1.7 1.593286891326593 1.687487003411079
          1.7 1.7569657877585794 1.9859184636919247 1.7 1.9150427853128957 2.206221867722575
          1.7 2.073854932229734 2.3410049565892335 1.7000000000000002 2.220221577042577 2.387971544806481
          1.7 2.318737696004021 2.40389185313618
        </DataArray>
        <DataArray type="Float64" Name="Momentum" NumberOfComponents="3" format="ascii" RangeMin="2.8999999999999995" RangeMax="6.142815667168638">
          2.9 0 0 2.9000000000000004 0 0
          4.4528099999999995 -0.86071 0 3.443537785827564 -0.29748014434580716 0
          2.8999999999999995 0 0 4.452810000000001 -0.86071 0
          3.1413772450522424 0 0 3.8248872604578823 -0.5457192743018764 0
          3.763343687125384 0 0 4.45281 -0.8607099999999999 0
          4.207725927550632 -0.6718049140811275 0 4.4780679414226725 0 0
          4.45281 -0.8607099999999999 0 4.579188906472147 -0.7118908111295893 0
          5.131657654200932 0 0 4.4528099999999995 -0.8607100000000001 0
          4.951392242644114 -0.6754290551218292 0 5.623605352449902 0 0
          4.4528099999999995 -0.8607099999999999 0 5.320720062350078 -0.5773282145703648 0
          5.931544058042054 0 0 4.4528099999999995 -0.8607099999999999 0
          5.660519065919168 -0.44081110792116895 0 6.076938361174644 0 0
          4.4528099999999995 -0.86071 0 5.890763581472072 -0.33175627168260374 0
          6.142814466195427 0.0038411863626528486 0
          <InformationKey name="L2_NORM_RANGE" location="vtkDataArray" length="2">
            <Value index="0">
              2.9
            </Value>
            <Value index="1">
              6.1428156672
            </Value>
          </InformationKey>
        </DataArray>
        <DataArray type="Float64" Name="Energy" format="ascii" RangeMin="5.97846" RangeMax="14.418817079693689">
          5.97846 5.97846 9.850459752999999 7.24095908015133 5.97846 9.850459752999999
          6.448422400964442 8.115643109763685 7.924755053930506 9.850459752999999 8.952021517646262 9.663687722214277
          9.850459752999999 9.961255310736458 11.38392919581782 9.850459752999999 10.99947848776122 12.752972676071519
          9.850459752999997 12.04351342584042 13.705603309323994 9.850459752999997 13.010716618469317 14.166464371831701
          9.850459752999999 13.739718257227842 14.418817079693689
        </DataArray>
      </PointData>
      <CellData>
        <DataArray type="UInt8" Name="vtkGhostType" format="ascii" RangeMin="0" RangeMax="0">
          0 0 0 0 0 0
          0 0 0 0 0 0
          0 0 0 0 0 0
          0 0 0 0 0 0
          0 0 0 0 0 0
          0 0
        </DataArray>
        <DataArray type="Float64" Name="CORES" format="ascii" RangeMin="-3.0298731707317073" RangeMax="1.1178660108883003">
          0.10447061246029714 -1.069155233742157 -0.20125824937782125 -0.1920308505560937 -0.2284188981291677 0.2301174059884008
          -0.14367167905517597 0.4134950269110475 -0.010482778233801213 0.3897426293290305 0.07202353885332463 0.2263231339860775
          0.07300698203794508 0.006826684696252729 0.014594514237716183 -0.10621181795859203 0.05730447756622866 -3.0298731707317073
          -0.14609370238606528 1.1178660108883003 -0.4387081334633148 0.6065965338980539 -0.5459655559059524 0.33167906128902513
          -0.530498680575098 0.22497136717255595 -0.39145003504273695 0.2684187420360311 -0.12800726124144 0.43133276088433115
          0.24561596692286541 0.6704459947219679
        </DataArray>
        <DataArray type="Float64" Name="MORES" NumberOfComponents="3" format="ascii" RangeMin="0.1334372994688049" RangeMax="9.186736572829362">
          0.37190858105572366 -0.5080149432771073 0 -2.6512204033152758 1.6414150469099318 0
          -0.4745938462932894 -0.40811318584712575 0 -0.34063280252912453 0.7191228420215896 0
          -0.5835359345020172 -0.05218281986531903 0 0.6950436603738904 0.03884698443939236 0
          -0.38017182028872143 0.28220255758948676 0 1.0191181018493785 -0.11827905830425792 0
          -0.08254591123880907 0.5167020734990322 0 0.8839839968887329 -0.16765951390632602 0
          0.13720407437809712 0.5720833771369119 0 0.48075805613846695 -0.21605844665377752 0
          0.12191478035227496 0.35735164463407054 0 -0.059526351662609805 -0.3077258517692103 0
          0.0563375842939878 0.12096110732564139 0 -0.31773609873707065 -0.3533350032686426 0
          0.35057711492037197 -0.07181792005886078 0 -7.940054956075821 4.620785231219513 0
          -0.29771295073686377 0.11471837874871972 0 2.8359168801999717 -1.8369391489759503 0
          -1.1300553726378564 -0.08870255975863607 0 1.5298151272727178 -1.1886513635645768 0
          -1.5273397914558635 -0.04534095630394758 0 0.8619285297955596 -0.7290734752629748 0
          -1.5510860102460826 -0.03153167445533243 0 0.6466897241963038 -0.24243544887591995 0
          -1.1591031115795107 -0.01290769460921945 0 0.8030776867243514 0.1337224614359907 0
          -0.43476876412300747 0.09061058942885 0 1.2674968063171304 0.4397795874774881 0
          0.5833024812622035 0.5171168574351306 0 1.9292617956752702 0.6842688973738591 0
          <InformationKey name="L2_NORM_RANGE" location="vtkDataArray" length="2">
            <Value index="0">
              0.13343729947
            </Value>
            <Value index="1">
              9.1867365728
            </Value>
          </InformationKey>
        </DataArray>
        <DataArray type="Float64" Name="ENRES" format="ascii" RangeMin="-20.656459114151257" RangeMax="7.5945329553858425">
          1.3565804270680208 -6.4414643306391675 -1.344979823199786 -0.6645913989313114 -1.58939732148164 2.165153786072415
          -1.4375752883481243 1.9264915976054624 -0.6929311017740953 1.624639721168058 -0.23869400396098622 0.7568239165215107
          0.0860611420975991 -0.45313197746787687 -0.07808570033288359 -1.2689487906749162 1.231138310586866 -20.656459114151257
          -0.03106648891735847 7.5945329553858425 -1.7543274674105966 4.356522674219951 -4.0613621794834005 2.704248517935162
          -4.568899817783816 1.8358079296640037 -3.8265474037322753 1.9081083670721646 -2.009733357316131 2.8289094898840434
          0.3915519996258867 4.307962751257023
        </DataArray>
      </CellData>
      <Points>
        <DataArray type="Float32" Name="Points" NumberOfComponents="3" format="ascii" RangeMin="0" RangeMax="4.2201894765504395">
          0 1 0 0 0.5 0
          0.512499988079071 1 0 0.512499988079071 0.5 0
          0 0 0 1.024999976158142 1 0
          0.512499988079071 0 0 1.024999976158142 0.5 0
          1.024999976158142 0 0 1.537500023841858 1 0
          1.537500023841858 0.5 0 1.537500023841858 0 0
          2.049999952316284 1 0 2.049999952316284 0.5 0
          2.049999952316284 0 0 2.5625 1 0
          2.5625 0.5 0 2.5625 0 0
          3.075000047683716 1 0 3.075000047683716 0.5 0
          3.075000047683716 0 0 3.5875000953674316 1 0
          3.5875000953674316 0.5 0 3.5875000953674316 0 0
          4.099999904632568 1 0 4.099999904632568 0.5 0
          4.099999904632568 0 0
          <InformationKey name="L2_NORM_RANGE" location="vtkDataArray" length="2">
            <Value index="0">
              0
            </Value>
            <Value index="1">
              4.2201894766
            </Value>
          </InformationKey>
        </DataArray>
      </Points>
      <Cells>
        <DataArray type="Int64" Name="connectivity" format="ascii" RangeMin="0" RangeMax="26">
          6 3 4 3 1 4
          8 7 6 7 3 6
          11 10 8 10 7 8
          14 13 11 13 10 11
          17 16 14 16 13 14
          20 19 17 19 16 17
          23 22 20 22 19 20
          26 25 23 25 22 23
          3 2 1 2 0 1
          7 5 3 5 2 3
          10 9 7 9 5 7
          13 12 10 12 9 10
          16 15 13 15 12 13
          19 18 16 18 15 16
          22 21 19 21 18 19
          25 24 22 24 21 22
        </DataArray>
        <DataArray type="Int64" Name="offsets" format="ascii" RangeMin="3" RangeMax="96">
          3 6 9 12 15 18
          21 24 27 30 33 36
          39 42 45 48 51 54
          57 60 63 66 69 72
          75 78 81 84 87 90
          93 96
        </DataArray>
        <DataArray type="UInt8" Name="types" format="ascii" RangeMin="5" RangeMax="5">
          5 5 5 5 5 5
          5 5 5 5 5 5
          5 5 5 5 5 5
          5 5 5 5 5 5
          5 5 5 5 5 5
          5 5
        </DataArray>
      </Cells>
    </Piece>
  </UnstructuredGrid>
</VTKFile>
