<?xml version="1.0"?>
<VTKFile type="UnstructuredGrid" version="0.1" byte_order="LittleEndian" header_type="UInt32" compressor="vtkZLibDataCompressor">
  <UnstructuredGrid>
    <Piece NumberOfPoints="16" NumberOfCells="9">
      <PointData>
        <DataArray type="Float64" Name="Velocity" NumberOfComponents="3" format="ascii" RangeMin="0" RangeMax="0.17130614790044504">
          0 0 0 0 0 0
          0 0 0 0.06889842038902444 0.1568400585832153 0
          0 0 0 0 0 0
          -0.12251379889380286 0.06443092121618163 0 0.05108264711733018 0.14728702307038463 0
          -0.061836896062739545 0.11008181040969474 0 0 0 0
          0 0 0 0 0 0
          0 0 0 0 0 0
          0 0 0 0 0 0
          <InformationKey name="L2_NORM_RANGE" location="vtkDataArray" length="2">
            <Value index="0">
              0
            </Value>
            <Value index="1">
              0.1713061479
            </Value>
          </InformationKey>
        </DataArray>
        <DataArray type="Float64" Name="Pressure" format="ascii" RangeMin="-1.239216940312556" RangeMax="1.2397040676864928">
          -0.6881865108706356 -0.26937241873788453 -0.8153398142245172 -0.29875515064587915 0.2579396146712572 -1.075811142918722
          0.31082021174061886 -0.4116102309383129 0.4215495416413791 0.6650867856669871 -1.239216940312556 0.7923192226454473
          -0.37542433949626935 1.0669952912050984 0.37698393573847067 1.2397040676864928
        </DataArray>
        <DataArray type="Float64" Name="Temperature" format="ascii" RangeMin="239.99999999999997" RangeMax="960">
          960 960 601.0664874063586 603.1467043198975 959.9999999999999 599.4149371455993
          600.0520562376448 599.7531515101455 595.893481945378 960 240 603.6867277729497
          239.99999999999997 596.7701246891125 240 240
        </DataArray>
        <DataArray type="Float64" Name="Density" format="ascii" RangeMin="0.36751208182170203" RangeMax="1.4700483272868083">
          0.36751208182170203 0.36751208182170203 0.586975993406718 0.5849515483080704 0.3675120818217021 0.5885932710134235
          0.5879683185505264 0.5882613499578514 0.5920715853394317 0.36751208182170203 1.4700483272868081 0.5844282842698648
          1.4700483272868083 0.5912018446510391 1.4700483272868081 1.4700483272868081
        </DataArray>
      </PointData>
      <CellData>
        <DataArray type="UInt8" Name="vtkGhostType" format="ascii" RangeMin="0" RangeMax="0">
          0 0 0 0 0 0
          0 0 0
        </DataArray>
      </CellData>
      <Points>
        <DataArray type="Float32" Name="Points" NumberOfComponents="3" format="ascii" RangeMin="0" RangeMax="1.4142135623730951">
          0 1 0 0 0.6666666865348816 0
          0.3333333134651184 1 0 0.3333333134651184 0.6666666865348816 0
          0 0.3333333134651184 0 0.6666666865348816 1 0
          0.3333333134651184 0.3333333134651184 0 0.6666666865348816 0.6666666865348816 0
          0.6666666865348816 0.3333333134651184 0 0 0 0
          1 1 0 0.3333333134651184 0 0
          1 0.6666666865348816 0 0.6666666865348816 0 0
          1 0.3333333134651184 0 1 0 0
          <InformationKey name="L2_NORM_RANGE" location="vtkDataArray" length="2">
            <Value index="0">
              0
            </Value>
            <Value index="1">
              1.4142135624
            </Value>
          </InformationKey>
        </DataArray>
      </Points>
      <Cells>
        <DataArray type="Int64" Name="connectivity" format="ascii" RangeMin="0" RangeMax="15">
          11 6 4 9 13 8
          6 11 15 14 8 13
          6 3 1 4 8 7
          3 6 14 12 7 8
          3 2 0 1 7 5
          2 3 12 10 5 7
        </DataArray>
        <DataArray type="Int64" Name="offsets" format="ascii" RangeMin="4" RangeMax="36">
          4 8 12 16 20 24
          28 32 36
        </DataArray>
        <DataArray type="UInt8" Name="types" format="ascii" RangeMin="9" RangeMax="9">
          9 9 9 9 9 9
          9 9 9
        </DataArray>
      </Cells>
    </Piece>
  </UnstructuredGrid>
</VTKFile>
