<?xml version="1.0"?>
<VTKFile type="UnstructuredGrid" version="0.1" byte_order="LittleEndian" header_type="UInt32" compressor="vtkZLibDataCompressor">
  <UnstructuredGrid>
    <Piece NumberOfPoints="16" NumberOfCells="9">
      <PointData>
        <DataArray type="Float64" Name="Velocity" NumberOfComponents="3" format="ascii" RangeMin="0" RangeMax="0.09245381483090448">
          0 0 0 0 0 0
          0 0 0 0.039166480745132806 0.08374780392839154 0
          0 0 0 0 0 0
          -0.062172155042159866 0.03692511605908054 0 0.026269505422982467 0.07941189365600643 0
          -0.03141468394622021 0.05851505063771993 0 0 0 0
          0 0 0 0 0 0
          0 0 0 0 0 0
          0 0 0 0 0 0
          <InformationKey name="L2_NORM_RANGE" location="vtkDataArray" length="2">
            <Value index="0">
              0
            </Value>
            <Value index="1">
              0.092453814831
            </Value>
          </InformationKey>
        </DataArray>
        <DataArray type="Float64" Name="Pressure" format="ascii" RangeMin="-1.2707600739910294" RangeMax="1.2676613650534405">
          -0.7087695371927394 -0.2725771721021724 -0.8536062447714554 -0.31319396236680935 0.2607457729013387 -1.1052178349167463
          0.3253695819311258 -0.42433867791519314 0.43871008799615874 0.6838135969361919 -1.2707600739910294 0.824649993873678
          -0.39738383419443074 1.0886855539683387 0.40340136003159816 1.2676613650534405
        </DataArray>
        <DataArray type="Float64" Name="Temperature" format="ascii" RangeMin="239.99999999999997" RangeMax="960">
          960 960 600.4367873427365 601.3999107709731 959.9999999999999 599.6942157773371
          600.2357725673431 599.6550700471846 598.4390652203538 960 240.00000000000003 601.5515128733463
          240 598.5693424248828 239.99999999999997 240
        </DataArray>
        <DataArray type="Float64" Name="Density" format="ascii" RangeMin="0.36765872835968083" RangeMax="1.4706349134387235">
          0.36765872835968083 0.36765872835968083 0.5878260404185132 0.5868846551254412 0.3676587283596809 0.5885539162117627
          0.5880228992611304 0.5885923372540169 0.5897883339138823 0.36765872835968083 1.470634913438723 0.5867367493423726
          1.4706349134387233 0.5896599678751292 1.4706349134387235 1.4706349134387233
        </DataArray>
      </PointData>
      <CellData>
        <DataArray type="UInt8" Name="vtkGhostType" format="ascii" RangeMin="0" RangeMax="0">
          0 0 0 0 0 0
          0 0 0
        </DataArray>
      </CellData>
      <Points>
        <DataArray type="Float32" Name="Points" NumberOfComponents="3" format="ascii" RangeMin="0" RangeMax="1.4142135623730951">
          0 1 0 0 0.6666666865348816 0
          0.3333333134651184 1 0 0.3333333134651184 0.6666666865348816 0
          0 0.3333333134651184 0 0.6666666865348816 1 0
          0.3333333134651184 0.3333333134651184 0 0.6666666865348816 0.6666666865348816 0
          0.6666666865348816 0.3333333134651184 0 0 0 0
          1 1 0 0.3333333134651184 0 0
          1 0.6666666865348816 0 0.6666666865348816 0 0
          1 0.3333333134651184 0 1 0 0
          <InformationKey name="L2_NORM_RANGE" location="vtkDataArray" length="2">
            <Value index="0">
              0
            </Value>
            <Value index="1">
              1.4142135624
            </Value>
          </InformationKey>
        </DataArray>
      </Points>
      <Cells>
        <DataArray type="Int64" Name="connectivity" format="ascii" RangeMin="0" RangeMax="15">
          11 6 4 9 13 8
          6 11 15 14 8 13
          6 3 1 4 8 7
          3 6 14 12 7 8
          3 2 0 1 7 5
          2 3 12 10 5 7
        </DataArray>
        <DataArray type="Int64" Name="offsets" format="ascii" RangeMin="4" RangeMax="36">
          4 8 12 16 20 24
          28 32 36
        </DataArray>
        <DataArray type="UInt8" Name="types" format="ascii" RangeMin="9" RangeMax="9">
          9 9 9 9 9 9
          9 9 9
        </DataArray>
      </Cells>
    </Piece>
  </UnstructuredGrid>
</VTKFile>
