<?xml version="1.0"?>
<VTKFile type="UnstructuredGrid" version="0.1" byte_order="LittleEndian" header_type="UInt32" compressor="vtkZLibDataCompressor">
  <UnstructuredGrid>
    <Piece NumberOfPoints="44" NumberOfCells="60">
      <PointData>
        <DataArray type="Float64" Name="Density" format="ascii" RangeMin="0.9960623788753765" RangeMax="1.7">
          1.7 1.283009121220903 1.7 1.3020945722052875 1.0194692174414621 1.0348148504534338
          1.7 1.305422536711594 0.9960623788753765 1.0340764203204973 1.004964403454832 1.7
          1.3046880345129503 1.0017999741564771 1.033121745171805 1.0013279737726166 1.7 1.3046545273308152
          1.0331967103027193 1.0015105015363617 1.7 1.3047275034107844 1.0332178608825047 1.001510607774847
          1.7 1.3051757882701418 1.0333675059319634 1.0014960225364515 1.7 1.3062887711994438
          1.0345213777421858 1.0016925279119457 1.7 1.3020962096791453 1.037455644574866 1.003044896561359
          1.7 1.2550909728222202 1.0343710794991636 1.0052310477253903 1 1
          1 1
        </DataArray>
        <DataArray type="Float64" Name="Momentum" NumberOfComponents="3" format="ascii" RangeMin="2.888578469193605" RangeMax="4.535233026008696">
          4.4528099999999995 -0.86071 0 3.6727704147134776 -0.23398050247210234 0
          4.4528099999999995 -0.86071 0 3.707208530165609 -0.2535459018960327 0
          2.9585680937758156 -0.012548302267143091 0 2.998328483351444 -0.02752320665316027 0
          4.4528099999999995 -0.86071 0 3.7174806059829253 -0.25778759422790853 0
          2.8885746090084035 0.004722380842470702 0 2.9981307351668596 -0.02610855070373838 0
          2.9143928046672585 0 0 4.4528099999999995 -0.86071 0
          3.7155969857090283 -0.25677394793828384 0 2.9054040050726475 0 0
          2.995293297584565 -0.024842745218929787 0 2.903806650360846 0 0
          4.4528099999999995 -0.86071 0 3.715456568237035 -0.25676394754849174 0
          2.99547479982822 -0.024977648387474714 0 2.9043724811600526 0 0
          4.4528099999999995 -0.86071 0 3.7156968159422563 -0.25682830627557524 0
          2.995548098687026 -0.024995336631663246 0 2.9043815272931854 0 0
          4.4528099999999995 -0.86071 0 3.71710488033703 -0.25737031917845954 0
          2.996042538975615 -0.025090991537236353 0 2.904335780219598 0 0
          4.4528099999999995 -0.86071 0 3.7196862958030175 -0.2600814758113496 0
          2.9996646832364253 -0.025991513515514365 0 2.9049858148492893 0 0
          4.4528099999999995 -0.86071 0 3.7005409915968492 -0.26398242322167315 0
          3.0078759043685905 -0.02902683419234077 0 2.9091653760170453 0 0
          4.4528099999999995 -0.86071 0 3.551067972310315 -0.23404123092802506 0
          2.9958355818626026 -0.02898756023598507 0 2.9152682319175076 0 0
          2.9 0 0 2.9 0 0
          2.9 0 0 2.9 0 0
          <InformationKey name="L2_NORM_RANGE" location="vtkDataArray" length="2">
            <Value index="0">
              2.8885784692
            </Value>
            <Value index="1">
              4.535233026
            </Value>
          </InformationKey>
        </DataArray>
        <DataArray type="Float64" Name="Energy" format="ascii" RangeMin="4.9019879796864805" RangeMax="7.585636452999999">
          7.585636452999999 6.36663052985277 7.585636452999999 6.422183882131366 5.028569697275546 5.101118545521275
          7.585636452999999 6.4424736215435185 4.9019879796864805 5.100783189634098 4.949868565583191 7.585636452999999
          6.438879583234434 4.9326965706730785 5.095179118036764 4.92956604291986 7.585636452999999 6.438611946146042
          5.095572948310126 4.93076494075816 7.585636452999999 6.43909838687828 5.09571067021044 4.930778657805123
          7.585636452999999 6.442091143678455 5.096698878270753 4.930686699750089 7.585636452999999 6.448100096096469
          5.10396533655073 4.931964320689785 7.585636452999999 6.411128739484352 5.120433360316912 4.940014034807794
          7.585636452999999 6.118407858526423 5.098299120046815 4.9513362301645385 4.923 4.923
          4.923 4.923
        </DataArray>
        <DataArray type="Float64" Name="DERPR" format="ascii" RangeMin="-3.787341463414633" RangeMax="1.8928382803027475">
          1.8928382803027475 1.1625067416647146 1.8256020648573934 1.2986603642999288 0.35186753403629545 0.4198262605795464
          1.808249645987339 1.2598154894715794 0.1147832634340835 0.38427897470924693 0.11832505945241913 1.8117041772104376
          1.2516497668544733 0.0709729156354842 0.3824072906880219 0.0726485515706862 1.8119693031424173 1.2537277588642786
          0.38538095033810466 0.07541299189319141 1.8122480171813429 1.2553683738789252 0.38580757421880424 0.07499808355279805
          1.809406778323503 1.2593206698912947 0.3904659838167968 0.07607060189435082 1.782419516981613 1.2437373777749472
          0.4031035238499305 0.08394535965636535 1.6986013247332874 1.0925416928642981 0.38710626436982787 0.09908066851640866
          -0.5384330457176619 0.4402822775709684 0.19684702409765972 0.0697615580612281 -3.787341463414633 -1.6944254215348762
          -0.480100164088734 -0.09201111112729032
        </DataArray>
        <DataArray type="Float64" Name="MORPR" NumberOfComponents="3" format="ascii" RangeMin="0.1982409691683866" RangeMax="10.620259285767293">
          4.4574522738517395 -2.0172320016790564 0 3.1585145955121696 -0.9980122188907092 0
          4.334787191413917 -1.9326865434012908 0 3.5362552018497895 -1.0544370415904958 0
          1.0156645309719559 -0.2619906608578933 0 1.1943345841067077 -0.3255669354707543 0
          4.28324527602868 -1.912630590253242 0 3.4597797790688003 -1.0065852676793665 0
          0.34323623974659323 -0.059882875791617884 0 1.1157293088169007 -0.2754200807416355 0
          0.3416034720720207 -0.08253060838768167 0 4.292328679329971 -1.9170319548584707 0
          3.434209191494645 -0.9964978566060825 0 0.20775772488426467 -0.0386187100578821 0
          1.1058026028783565 -0.2733611874004742 0 0.2095506255653496 -0.038859746664082775 0
          4.2933007591015375 -1.917165930043615 0 3.440068493123048 -0.9991231180054878 0
          1.1148142204579534 -0.2775550532856295 0 0.21888315224096558 -0.04167721248614134 0
          4.294435066839027 -1.9174094111752225 0 3.4454814605361617 -1.000776417652708 0
          1.116367737586195 -0.27761284717576895 0 0.2175290215216939 -0.041364060657148954 0
          4.2861163529130915 -1.917211948564401 0 3.4564440078872916 -1.0088391941918495 0
          1.1313839862760446 -0.2809900457135113 0 0.2210542317672568 -0.0417246207027378 0
          4.201389735081953 -1.9065971880854573 0 3.3921543186888417 -1.0191413747798481 0
          1.1686823265274249 -0.29318092391098083 0 0.2460349867725837 -0.04484045359855891 0
          3.94832177095981 -1.8599702682933172 0 2.8949883337113844 -0.9221628065467149 0
          1.1048535878367598 -0.29356684292903457 0 0.2898245149588885 -0.05319017826027124 0
          -1.3505500581809784 0.8657190616178531 0 1.1231601618213758 -0.2280401742994998 0
          0.5282867899521986 -0.1438675850615126 0 0.19309616659996318 -0.04487039448478783 0
          -8.702113935308102 6.087948780487805 0 -3.9864653100344887 2.838883945074642 0
          -1.3184040528358338 0.5510090914576075 0 -0.27738380313299493 0.08064662121223645 0
          <InformationKey name="L2_NORM_RANGE" location="vtkDataArray" length="2">
            <Value index="0">
              0.19824096917
            </Value>
            <Value index="1">
              10.620259286
            </Value>
          </InformationKey>
        </DataArray>
        <DataArray type="Float64" Name="ENRPR" format="ascii" RangeMin="-15.936461299466677" RangeMax="8.079790589977097">
          8.079790589977097 5.899093296989741 7.87117563440947 6.599293697962555 1.8590279443710942 2.1684622206180952
          7.769607190931467 6.468078855312274 0.6386834210087216 2.0204178245507607 0.6281798336469584 7.787229117524728
          6.416584177503142 0.3678923007506849 2.0003264786178323 0.37491589357168303 7.789133077197634 6.4280812575081
          2.018482689519058 0.3944099629921922 7.791706880411228 6.439478569543246 2.0214554033815 0.39119132515788363
          7.776824984261581 6.464826809747571 2.0517255644315306 0.39815715335221286 7.6125508587896125 6.343571624867025
          2.127492291955378 0.44703579152823747 7.1231906536694884 5.356965335218046 2.0062580689600606 0.530865153696374
          -2.335855964669952 1.9485564965931552 0.900543899830202 0.3438799548245693 -15.936461299466677 -7.657512727621786
          -2.611774873848068 -0.5385996650355851
        </DataArray>
      </PointData>
      <CellData>
        <DataArray type="UInt8" Name="vtkGhostType" format="ascii" RangeMin="0" RangeMax="0">
          0 0 0 0 0 0
          0 0 0 0 0 0
          0 0 0 0 0 0
          0 0 0 0 0 0
          0 0 0 0 0 0
          0 0 0 0 0 0
          0 0 0 0 0 0
          0 0 0 0 0 0
          0 0 0 0 0 0
          0 0 0 0 0 0
        </DataArray>
        <DataArray type="Float64" Name="sgvis" format="ascii" RangeMin="0.3738139501668756" RangeMax="0.4869468068427324">
          0.4862881937254151 0.48440842764082326 0.4865268151295784 0.4821369217999859 0.48663534222833604 0.4826826574375471
          0.48662441860374883 0.48299725047136544 0.48661823633043677 0.48305089810972734 0.48661662445332743 0.48305478672524893
          0.4866220384835228 0.4830676944977136 0.48662777556863046 0.4829931397240712 0.48641597001074555 0.48265665370420885
          0.4869468068427324 0.4838149435311858 0.4793782634749528 0.4675446891677725 0.4797425304260762 0.44637386143083446
          0.4804479783567469 0.4469469832788838 0.4805644369021579 0.4479555804624411 0.48055570023166194 0.44818011124606416
          0.4805510306510019 0.4482012871401221 0.4805576403410525 0.4482048214932094 0.48054023844818017 0.4481663511836652
          0.48032453403970454 0.44816119539037524 0.4818566312594683 0.44995891652581554 0.46051314184576897 0.4357051818964428
          0.45383119118519455 0.37388304069586203 0.45491393054546847 0.3738139501668756 0.45536585973584376 0.3743553813554992
          0.4554128178885921 0.37448637264368145 0.45540864679029247 0.37449895084344353 0.4554099182920005 0.37449935419895575
          0.45539777353772204 0.3745016999327986 0.4553510208066649 0.3744581461280749 0.45653441846206677 0.3745508247574335
        </DataArray>
        <DataArray type="Float64" Name="sgtco" format="ascii" RangeMin="0.3738139501668756" RangeMax="0.4869468068427324">
          0.4862881937254151 0.48440842764082326 0.4865268151295784 0.4821369217999859 0.48663534222833604 0.4826826574375471
          0.48662441860374883 0.48299725047136544 0.48661823633043677 0.48305089810972734 0.48661662445332743 0.48305478672524893
          0.4866220384835228 0.4830676944977136 0.48662777556863046 0.4829931397240712 0.48641597001074555 0.48265665370420885
          0.4869468068427324 0.4838149435311858 0.4793782634749528 0.4675446891677725 0.4797425304260762 0.44637386143083446
          0.4804479783567469 0.4469469832788838 0.4805644369021579 0.4479555804624411 0.48055570023166194 0.44818011124606416
          0.4805510306510019 0.4482012871401221 0.4805576403410525 0.4482048214932094 0.48054023844818017 0.4481663511836652
          0.48032453403970454 0.44816119539037524 0.4818566312594683 0.44995891652581554 0.46051314184576897 0.4357051818964428
          0.45383119118519455 0.37388304069586203 0.45491393054546847 0.3738139501668756 0.45536585973584376 0.3743553813554992
          0.4554128178885921 0.37448637264368145 0.45540864679029247 0.37449895084344353 0.4554099182920005 0.37449935419895575
          0.45539777353772204 0.3745016999327986 0.4553510208066649 0.3744581461280749 0.45653441846206677 0.3745508247574335
        </DataArray>
        <DataArray type="Float64" Name="MOSGS" NumberOfComponents="3" format="ascii" RangeMin="0" RangeMax="0.2742244471745395">
          6.916636985482e-310 6.916636985482e-310 0 -0.003607958709174286 0.0011125885293695901 0
          -0.012706158100313555 0.0019373862762691243 0 -0.012134891497209886 0.0043122580071800875 0
          -0.020652756325431933 0.0059698109923542984 0 -0.014133048310295715 0.004172078121519134 0
          -0.02512402584846901 0.007355497910184259 0 -0.013711346829974843 0.003924223225595881 0
          -0.026815098422843103 0.0077195086217673 0 -0.0134659760846262 0.003871287378669438 0
          -0.026835720221005513 0.007704982160571713 0 -0.013445844870498805 0.0038753064066991407 0
          -0.026757777691585577 0.007689343524292446 0 -0.013145685632060929 0.0037950807993139394 0
          -0.026608217605365508 0.007616938449832189 0 -0.013219725602459435 0.003717003447261343 0
          -0.02738517321677771 0.007881015866969387 0 -0.017977625332090068 0.0051049063994466435 0
          -0.027816012019795392 0.008765791324347637 0 -0.010719144833024668 0.003518763497570946 0
          -0.014594601179653182 0.003926753614180809 0 0.037390175831170304 -0.00998564276258788 0
          -0.14700582592904587 0.03354946094187826 0 0.004202770789317682 0.00207658837138509 0
          -0.051917359076497534 0.011828521514961844 0 -0.005184366577224188 0.004385038022369976 0
          -0.049099192022779625 0.015569069945481032 0 -0.007405585507994477 0.004627330873121723 0
          -0.05146008358941413 0.017198524576265653 0 -0.00736470062768842 0.004536951949521952 0
          -0.05238601662762039 0.017458330309734406 0 -0.007255184735128432 0.004509169219377919 0
          -0.05240451032549805 0.017443914612877833 0 -0.006959666407695225 0.004390587600139904 0
          -0.05234408955838181 0.017409671329572073 0 -0.008198409856406385 0.004795981034795008 0
          -0.05304873929788182 0.017712770875080157 0 -0.01309826812927883 0.007268422532484607 0
          -0.05152194871628927 0.01746080220198117 0 0.005455404583628894 0.0005759402270858081 0
          -0.04008518944453118 0.010030430295225365 0 0.14674647329853424 -0.07351071895587319 0
          -0.2346100135847214 0.14197601541795235 0 0.07535810799124525 -0.02498683391359391 0
          0.15824043855797204 -0.07418105744880452 0 0.07588590721808226 -0.02026889195531916 0
          0.032497387716709625 -0.014019830705751034 0 0.0746510153433742 -0.01882805637642 0
          0.025168459534122504 -0.01325612763287335 0 0.0739300629037822 -0.018615197632035223 0
          0.024806324115211616 -0.01370395288781346 0 0.0739195520362044 -0.018635584244414236 0
          0.025068513871624745 -0.013850654086427275 0 0.07399633528739236 -0.018676262964615435 0
          0.025140771672047563 -0.013870368141649051 0 0.07289268741049136 -0.01826670360054475 0
          0.025355179303785724 -0.01395491624397037 0 0.07528697791699723 -0.01863881588672134 0
          0.024163720254610763 -0.013561041796052876 0 0.09752626789608193 -0.02952336803196117 0
          0.019599580929181112 -0.011654753398395315 0
          <InformationKey name="L2_NORM_RANGE" location="vtkDataArray" length="2">
            <Value index="0">
              0
            </Value>
            <Value index="1">
              0.27422444717
            </Value>
          </InformationKey>
        </DataArray>
        <DataArray type="Float64" Name="CORES" format="ascii" RangeMin="-3.7873414634146334" RangeMax="1.964184084144346">
          0.04972309936152275 -0.23374532161610334 0.10196552567644443 0.057596049145717046 0.08816859997267112 0.10710787990011038
          0.07685843245532809 0.08680904654109686 0.07487443916532932 0.07647893406239507 0.07495501639506763 0.07516479509799724
          0.0759083182296294 0.07537564105487712 0.07442967284182611 0.06760766364060308 0.06064572676617262 0.07784334729845385
          0.11478326343408352 0.1795461881570013 0.3814155674278385 -1.587970664171499 0.675499985856165 0.25059254932068786
          0.722297115048594 0.658170762197189 0.7056723417531998 0.7085658817164533 0.6967047217553697 0.7002721469579862
          0.6955375361157055 0.6960847398447181 0.6962361573985261 0.69501627677229 0.6881164120961012 0.6911992732093755
          0.6775856374696998 0.7200908350219808 0.7612730276961412 0.7620633536568102 0.2920358310450739 -3.7873414634146334
          1.4256145696300173 1.8800064952165738 1.7551898888370427 1.790182909353271 1.8163153587494398 1.8018857527545258
          1.8150795657396852 1.810019223466543 1.812424308551094 1.8116452623377999 1.811465855726972 1.811838338538358
          1.804173202403021 1.811808337365982 1.8465463199180174 1.8087673981930137 1.964184084144346 1.8214924764611493
        </DataArray>
        <DataArray type="Float64" Name="MORES" NumberOfComponents="3" format="ascii" RangeMin="0.14447388313504686" RangeMax="10.464034286801086">
          0.13728416968337015 -0.04500843990260944 0 -0.6920181252719648 0.2048618640746357 0
          0.29678021802813737 -0.048673530857875125 0 0.14462484556990624 -0.04586515283156281 0
          0.25910103725475786 -0.04431389061771793 0 0.3133253431027279 -0.07127784330178585 0
          0.22364087332586985 -0.042539275501215966 0 0.25523176930106906 -0.05167839281378471 0
          0.21705361557470781 -0.0422813528873243 0 0.2223266472213073 -0.04416858024546336 0
          0.2173815045266161 -0.0422483522951555 0 0.2180012346855622 -0.04335476284766726 0
          0.22067895328162995 -0.04241297114228094 0 0.2184399790553676 -0.04414295058442023 0
          0.2137151509873385 -0.04361087750516404 0 0.19414678939513713 -0.03444074551713112 0
          0.17269344180257407 -0.041849134307006194 0 0.2365447271706828 -0.03478221967606772 0
          0.34328366853350095 -0.06048658237285859 0 0.5084374648159105 -0.14814816708376785 0
          1.0627757603771417 -0.2709570871822632 0 -4.348981229248346 1.6312531795455887 0
          1.906232211231286 -0.5668448081350901 0 0.5262260510926199 -0.31712155364986006 0
          2.0704067531688892 -0.5917694039817978 0 1.808207724691302 -0.6470393597082571 0
          2.0237972843947056 -0.5723582575144295 0 2.0055336593155952 -0.6428032034416533 0
          1.9949222907868949 -0.5652917859472952 0 1.9853792501042267 -0.6238311455336782 0
          1.9910220499433886 -0.564564061815942 0 1.9720667868350614 -0.6192875977415957 0
          1.9928869870541717 -0.5656067332191443 0 1.9683808688573046 -0.6185963191390521 0
          1.9674787159552483 -0.5560124610502855 0 1.9581931412923712 -0.6121265401890653 0
          1.9496376286147696 -0.5443935407276841 0 2.049355053342758 -0.648488919045604 0
          2.1773039238139855 -0.6324947593864001 0 2.0546880781022496 -0.7329929828681071 0
          0.6919358787882984 0.14807829584817445 0 -8.725482841436236 5.775981539024389 0
          3.4631834384151405 -1.2812170582182298 0 4.722410380213804 -1.800181411796083 0
          4.50254825977826 -1.5395881468520978 0 4.451546219553033 -1.7045058103429234 0
          4.727895674144574 -1.5407150565240453 0 4.477629429608241 -1.7109835897394103 0
          4.728550415879316 -1.5263373626485448 0 4.500074951893758 -1.7179860907763989 0
          4.719874572553079 -1.5228536214234112 0 4.50480284414325 -1.7195373791397874 0
          4.716525958345328 -1.5222414805302877 0 4.505381195205549 -1.7197206524432982 0
          4.69653854145112 -1.5133948865609979 0 4.5052552870923055 -1.7197102408960498 0
          4.825859530638642 -1.5586869870758888 0 4.496797909866623 -1.7171604195272678 0
          5.042945749551878 -1.7022067166028232 0 4.533572739020251 -1.7272062075590593 0
          <InformationKey name="L2_NORM_RANGE" location="vtkDataArray" length="2">
            <Value index="0">
              0.14447388314
            </Value>
            <Value index="1">
              10.464034287
            </Value>
          </InformationKey>
        </DataArray>
        <DataArray type="Float64" Name="ENRES" format="ascii" RangeMin="-15.755660713786629" RangeMax="9.27026931282381">
          0.2351363966051595 -1.3107608022835393 0.5404406935343049 0.25845358726544776 0.47235073508745995 0.5829088788863025
          0.4039220538838635 0.46763864131437094 0.39096058913637755 0.4021463509625451 0.391609658029612 0.3935069822732169
          0.3991988265334017 0.3949052685729202 0.3827611918082031 0.3455339621715513 0.29952644205917767 0.4240840139815041
          0.6392119696018675 0.9464661370754095 1.9047730174166193 -8.376647045462647 3.511669180276993 0.8309740461702835
          3.827872672293511 3.3773919664323158 3.7309699102598453 3.7641003660548726 3.672041515926413 3.7172482143911783
          3.66408343722835 3.6891794345050117 3.668033917496709 3.681881369590518 3.6171921879833118 3.6613561673830164
          3.5857314714320587 3.8446020903254317 4.020076081503257 3.81614441850916 0.893372895786215 -15.755660713786629
          6.201843231279697 8.673613610165908 8.28362357910473 8.142489561090976 8.725001673632587 8.188195007829776
          8.718444866423674 8.231346372625968 8.699297510121612 8.240618400352538 8.692644992594682 8.241751048248734
          8.653861683168408 8.24150664652445 8.908297789811877 8.225509308129904 9.27026931282381 8.295628375033797
        </DataArray>
      </CellData>
      <Points>
        <DataArray type="Float32" Name="Points" NumberOfComponents="3" format="ascii" RangeMin="0" RangeMax="4.2201894765504395">
          4.099999904632568 1 0 4.099999904632568 0.6666666865348816 0
          3.690000057220459 1 0 3.690000057220459 0.6666666865348816 0
          4.099999904632568 0.3333333134651184 0 3.690000057220459 0.3333333134651184 0
          3.2799999713897705 1 0 3.2799999713897705 0.6666666865348816 0
          4.099999904632568 0 0 3.2799999713897705 0.3333333134651184 0
          3.690000057220459 0 0 2.869999885559082 1 0
          2.869999885559082 0.6666666865348816 0 3.2799999713897705 0 0
          2.869999885559082 0.3333333134651184 0 2.869999885559082 0 0
          2.4600000381469727 1 0 2.4600000381469727 0.6666666865348816 0
          2.4600000381469727 0.3333333134651184 0 2.4600000381469727 0 0
          2.049999952316284 1 0 2.049999952316284 0.6666666865348816 0
          2.049999952316284 0.3333333134651184 0 2.049999952316284 0 0
          1.6399999856948853 1 0 1.6399999856948853 0.6666666865348816 0
          1.6399999856948853 0.3333333134651184 0 1.6399999856948853 0 0
          1.2300000190734863 1 0 1.2300000190734863 0.6666666865348816 0
          1.2300000190734863 0.3333333134651184 0 1.2300000190734863 0 0
          0.8199999928474426 1 0 0.8199999928474426 0.6666666865348816 0
          0.8199999928474426 0.3333333134651184 0 0.8199999928474426 0 0
          0.4099999964237213 1 0 0.4099999964237213 0.6666666865348816 0
          0.4099999964237213 0.3333333134651184 0 0.4099999964237213 0 0
          0 1 0 0 0.6666666865348816 0
          0 0.3333333134651184 0 0 0 0
          <InformationKey name="L2_NORM_RANGE" location="vtkDataArray" length="2">
            <Value index="0">
              0
            </Value>
            <Value index="1">
              4.2201894766
            </Value>
          </InformationKey>
        </DataArray>
      </Points>
      <Cells>
        <DataArray type="Int64" Name="connectivity" format="ascii" RangeMin="0" RangeMax="43">
          39 38 43 38 42 43
          35 34 39 34 38 39
          31 30 35 30 34 35
          27 26 31 26 30 31
          23 22 27 22 26 27
          19 18 23 18 22 23
          15 14 19 14 18 19
          13 9 15 9 14 15
          10 5 13 5 9 13
          8 4 10 4 5 10
          38 37 42 37 41 42
          34 33 38 33 37 38
          30 29 34 29 33 34
          26 25 30 25 29 30
          22 21 26 21 25 26
          18 17 22 17 21 22
          14 12 18 12 17 18
          9 7 14 7 12 14
          5 3 9 3 7 9
          4 1 5 1 3 5
          37 36 41 36 40 41
          33 32 37 32 36 37
          29 28 33 28 32 33
          25 24 29 24 28 29
          21 20 25 20 24 25
          17 16 21 16 20 21
          12 11 17 11 16 17
          7 6 12 6 11 12
          3 2 7 2 6 7
          1 0 3 0 2 3
        </DataArray>
        <DataArray type="Int64" Name="offsets" format="ascii" RangeMin="3" RangeMax="180">
          3 6 9 12 15 18
          21 24 27 30 33 36
          39 42 45 48 51 54
          57 60 63 66 69 72
          75 78 81 84 87 90
          93 96 99 102 105 108
          111 114 117 120 123 126
          129 132 135 138 141 144
          147 150 153 156 159 162
          165 168 171 174 177 180
        </DataArray>
        <DataArray type="UInt8" Name="types" format="ascii" RangeMin="5" RangeMax="5">
          5 5 5 5 5 5
          5 5 5 5 5 5
          5 5 5 5 5 5
          5 5 5 5 5 5
          5 5 5 5 5 5
          5 5 5 5 5 5
          5 5 5 5 5 5
          5 5 5 5 5 5
          5 5 5 5 5 5
          5 5 5 5 5 5
        </DataArray>
      </Cells>
    </Piece>
  </UnstructuredGrid>
</VTKFile>
