<?xml version="1.0"?>
<VTKFile type="UnstructuredGrid" version="0.1" byte_order="LittleEndian" header_type="UInt32" compressor="vtkZLibDataCompressor">
  <UnstructuredGrid>
    <Piece NumberOfPoints="36" NumberOfCells="50">
      <PointData>
        <DataArray type="Float64" Name="Velocity" NumberOfComponents="3" format="ascii" RangeMin="0" RangeMax="0.06844313444972046">
          0 0 0 0 0 0
          0 0 0 0.033250598851924246 -0.0027946615661121332 0
          0 0 0 0 0 0
          0.01057147146238896 -0.002829214254845336 0 0.0338115018621401 -0.016874127752643325 0
          0.014749191772252201 -0.019526376265922796 0 0 0 0
          0 0 0 0.029563724346310438 -0.006198044113336881 0
          0.0010846084901438569 -0.005180561738007516 0 0.014504571627529383 -0.009117071402317822 0
          0.0036645631010160384 -0.016917505938449096 0 0 0 0
          0 0 0 -0.017299539866064917 -0.01393204109683599 0
          0.01964782953095695 -0.036815640541322414 0 0.005252108833716823 -0.0071853310935294235 0
          -0.010411328955383048 -0.010929670995678886 0 0.003608359603230027 -0.06301677874744871 0
          0 0 0 0 0 0
          -0.005237915619604627 -0.0005152486200196149 0 -0.0020300560574113558 -0.06841302160923957 0
          0 0 0 0 0 0
          0 0 0 0 0 0
          -0.010949520026218407 -0.05631775363718283 0 0 0 0
          0 0 0 0 0 0
          0 0 0 0 0 0
          <InformationKey name="L2_NORM_RANGE" location="vtkDataArray" length="2">
            <Value index="0">
              0
            </Value>
            <Value index="1">
              0.06844313445
            </Value>
          </InformationKey>
        </DataArray>
        <DataArray type="Float64" Name="Pressure" format="ascii" RangeMin="5.619823628787779" RangeMax="7.173494696831552">
          5.861833735351417 5.8165582455473475 6.074934378001586 6.058296534555654 5.755200411601429 6.3106050374376865
          6.305041550480047 6.024745847137196 6.288903461808185 5.7150834461012785 6.553100818290396 5.99543218081296
          6.554229667888689 6.272010979933222 6.552147318971954 5.679201975796441 6.7907434961917605 6.801911674790057
          5.970589486680919 6.547202608150652 6.816591938092115 6.256957662946979 7.002903852969401 5.619823628787779
          6.823731884006298 6.541145261419393 7.047314734980155 5.953700887110956 7.087045658343966 6.250161049249791
          6.827638514802998 7.103623512757243 6.5388101599730275 7.1174615327427 6.8339103586690655 7.173494696831552
        </DataArray>
        <DataArray type="Float64" Name="Temperature" format="ascii" RangeMin="240" RangeMax="960">
          959.9999999999999 653.8919012505527 960 646.6164524686212 576.2562926445295 959.9999999999999
          647.8538384258082 589.906271000971 591.9866746107921 598.1893255525271 960 598.7326357309773
          649.1292210847013 597.097835815077 595.8872543640286 553.2563030071681 960 644.4546641504927
          563.9977461410388 597.3316756480176 599.0714367863235 557.9742377033944 960 240.00000000000003
          599.2274910799957 555.4644855993168 639.1359350056206 240 602.9519354364772 240
          554.2143352708166 606.6351530953057 240 561.2127148106231 240.00000000000003 240
        </DataArray>
        <DataArray type="Float64" Name="Density" format="ascii" RangeMin="0.36421109151596615" RangeMax="1.4568443660638646">
          0.36421109151596615 0.5347101672105806 0.36421109151596615 0.5407264948494251 0.6067485115880699 0.36421109151596615
          0.5396937196589109 0.5927088167109043 0.5906258752955947 0.5845016500961038 0.36421109151596615 0.583971253593781
          0.5386333514166427 0.5855701141137829 0.5867597356625623 0.6319722811197642 0.36421109151596615 0.5425403326333582
          0.6199362501847524 0.5853408786266294 0.5836409923513644 0.626628658151757 0.36421109151596615 1.4568443660638644
          0.5834889971839607 0.6294599509419249 0.5470552173728938 1.4568443660638646 0.5798847757279707 1.4568443660638646
          0.6308798340347417 0.5763639744108214 1.4568443660638646 0.6230126984441393 1.4568443660638644 1.4568443660638646
        </DataArray>
        <DataArray type="Float64" Name="stream" format="ascii" RangeMin="-0.0025842050355918238" RangeMax="0.016587440183889333">
          0 0.002195795576589193 -0.00030037717015030303 0.0015031237860992006 0.00627134578984993 -0.0019051328065992172
          -0.0014295584368315044 0.00430454837888931 0.0010343139840705863 0.009757436354373874 -0.0025666256070685563 0.007566798979904415
          -0.0023086399348820176 0.0032793359933955047 -0.0007025548511893449 0.0136904412984861 -0.0025842050355918238 -0.0024053343961309196
          0.011490967839130803 0.000535190860886049 -0.0008523832893770501 0.008657772982443617 -0.0019455369198933354 0.016587440183889333
          -0.0000823805389250962 0.006175938680198599 -0.0009021699351599064 0.015261061867151288 0.000016844878839290187 0.01331292460227612
          0.0033080854616981243 0.0006985033281702143 0.008935474354579915 0.004106222958272343 0.005395193056177427 0.004106222958272343
        </DataArray>
      </PointData>
      <CellData>
        <DataArray type="UInt8" Name="vtkGhostType" format="ascii" RangeMin="0" RangeMax="0">
          0 0 0 0 0 0
          0 0 0 0 0 0
          0 0 0 0 0 0
          0 0 0 0 0 0
          0 0 0 0 0 0
          0 0 0 0 0 0
          0 0 0 0 0 0
          0 0 0 0 0 0
          0 0
        </DataArray>
      </CellData>
      <Points>
        <DataArray type="Float32" Name="Points" NumberOfComponents="3" format="ascii" RangeMin="0" RangeMax="1.4142135623730951">
          0 1 0 0.20000000298023224 1 0
          0 0.800000011920929 0 0.20000000298023224 0.800000011920929 0
          0.4000000059604645 1 0 0 0.6000000238418579 0
          0.20000000298023224 0.6000000238418579 0 0.4000000059604645 0.800000011920929 0
          0.4000000059604645 0.6000000238418579 0 0.6000000238418579 1 0
          0 0.4000000059604645 0 0.6000000238418579 0.800000011920929 0
          0.20000000298023224 0.4000000059604645 0 0.6000000238418579 0.6000000238418579 0
          0.4000000059604645 0.4000000059604645 0 0.800000011920929 1 0
          0 0.20000000298023224 0 0.20000000298023224 0.20000000298023224 0
          0.800000011920929 0.800000011920929 0 0.6000000238418579 0.4000000059604645 0
          0.4000000059604645 0.20000000298023224 0 0.800000011920929 0.6000000238418579 0
          0 0 0 1 1 0
          0.6000000238418579 0.20000000298023224 0 0.800000011920929 0.4000000059604645 0
          0.20000000298023224 0 0 1 0.800000011920929 0
          0.4000000059604645 0 0 1 0.6000000238418579 0
          0.800000011920929 0.20000000298023224 0 0.6000000238418579 0 0
          1 0.4000000059604645 0 0.800000011920929 0 0
          1 0.20000000298023224 0 1 0 0
          <InformationKey name="L2_NORM_RANGE" location="vtkDataArray" length="2">
            <Value index="0">
              0
            </Value>
            <Value index="1">
              1.4142135624
            </Value>
          </InformationKey>
        </DataArray>
      </Points>
      <Cells>
        <DataArray type="Int64" Name="connectivity" format="ascii" RangeMin="0" RangeMax="35">
          26 17 22 17 16 22
          28 20 26 20 17 26
          31 24 28 24 20 28
          33 30 31 30 24 31
          35 34 33 34 30 33
          17 12 16 12 10 16
          20 14 17 14 12 17
          24 19 20 19 14 20
          30 25 24 25 19 24
          34 32 30 32 25 30
          12 6 10 6 5 10
          14 8 12 8 6 12
          19 13 14 13 8 14
          25 21 19 21 13 19
          32 29 25 29 21 25
          6 3 5 3 2 5
          8 7 6 7 3 6
          13 11 8 11 7 8
          21 18 13 18 11 13
          29 27 21 27 18 21
          3 1 2 1 0 2
          7 4 3 4 1 3
          11 9 7 9 4 7
          18 15 11 15 9 11
          27 23 18 23 15 18
        </DataArray>
        <DataArray type="Int64" Name="offsets" format="ascii" RangeMin="3" RangeMax="150">
          3 6 9 12 15 18
          21 24 27 30 33 36
          39 42 45 48 51 54
          57 60 63 66 69 72
          75 78 81 84 87 90
          93 96 99 102 105 108
          111 114 117 120 123 126
          129 132 135 138 141 144
          147 150
        </DataArray>
        <DataArray type="UInt8" Name="types" format="ascii" RangeMin="5" RangeMax="5">
          5 5 5 5 5 5
          5 5 5 5 5 5
          5 5 5 5 5 5
          5 5 5 5 5 5
          5 5 5 5 5 5
          5 5 5 5 5 5
          5 5 5 5 5 5
          5 5 5 5 5 5
          5 5
        </DataArray>
      </Cells>
    </Piece>
  </UnstructuredGrid>
</VTKFile>
