<?xml version="1.0"?>
<VTKFile type="UnstructuredGrid" version="0.1" byte_order="LittleEndian" header_type="UInt32" compressor="vtkZLibDataCompressor">
  <UnstructuredGrid>
    <Piece NumberOfPoints="36" NumberOfCells="50">
      <PointData>
        <DataArray type="Float64" Name="Velocity" NumberOfComponents="3" format="ascii" RangeMin="0" RangeMax="0.22196473429619368">
          0 0 0 0 0 0
          0 0 0 0.11339859052483738 0.08382453873276746 0
          0 0 0 0 0 0
          0.022389643594988615 0.11753409317641367 0 0.12494321486409671 -0.05663617548720684 0
          0.03601579223872234 -0.046707729081262334 0 0 0 0
          0 0 0 0.13199537196705433 0.01741517057686999 0
          -0.011521853547045643 0.08963070052252886 0 0.061113206920148946 0.02013346452773271 0
          -0.01794908359826701 -0.02576496799294398 0 0 0 0
          0 0 0 -0.09545078118166833 -0.007630927743588589 0
          0.10474536707768922 -0.06494251310159319 0 0.010006637341680252 0.043270627448437404 0
          -0.09362968390671109 -0.019781165249009802 0 0.029424820312752953 -0.19522675935461248 0
          0 0 0 0 0 0
          -0.07401308128529638 0.06916260700261165 0 0.0007230478921279593 -0.2219635566324471 0
          0 0 0 0 0 0
          0 0 0 0 0 0
          -0.052263969128638954 -0.15935485658264056 0 0 0 0
          0 0 0 0 0 0
          0 0 0 0 0 0
          <InformationKey name="L2_NORM_RANGE" location="vtkDataArray" length="2">
            <Value index="0">
              0
            </Value>
            <Value index="1">
              0.2219647343
            </Value>
          </InformationKey>
        </DataArray>
        <DataArray type="Float64" Name="Pressure" format="ascii" RangeMin="-2.577194320109596" RangeMax="-0.6993257360416916">
          -1.9510331554061775 -1.998549081101311 -1.7174190222589476 -1.7457089664522356 -2.115689991634874 -1.4687177893727628
          -1.4860446423577267 -1.845469609552223 -1.5580345469909076 -2.310333917263829 -1.2074288301625615 -2.016572475700471
          -1.220597129275977 -1.7156570920666991 -1.2706234180476461 -2.4747446523789565 -0.9473616281995191 -0.9566239852748811
          -2.1656350652292384 -1.4041819955736425 -0.9869458221947676 -1.8676165596233858 -0.7159209911328962 -2.577194320109596
          -1.0861208270890923 -1.5403594238025164 -0.6993257360416916 -2.2089072096640305 -0.7111396974284412 -1.8961281622106818
          -1.179475230594546 -0.7693005352822225 -1.560742220047742 -0.8118633887870319 -1.1854051013044613 -0.7380151201585847
        </DataArray>
        <DataArray type="Float64" Name="Temperature" format="ascii" RangeMin="239.99999999999994" RangeMax="960.0000000000001">
          960 715.6986672974382 960.0000000000001 678.6069251945145 576.8193531881449 960.0000000000001
          667.6744814514635 591.5376290429505 596.5512502299044 591.7889412275553 959.9999999999999 599.2989448346057
          657.8758118811072 594.5204079733281 601.6251334886593 560.2697387822554 960 638.668678288719
          588.5464554609412 597.1899353431313 599.682772126633 565.4328875806569 959.9999999999999 240.00000000000003
          600.0348961190092 554.1311259432784 650.0881292885518 239.99999999999994 605.2367015266058 240
          547.4712419289458 618.4294706840806 240 510.86464099117626 239.99999999999997 239.99999999999997
        </DataArray>
        <DataArray type="Float64" Name="Density" format="ascii" RangeMin="0.3659220060694956" RangeMax="1.463688024277983">
          0.36592200606949565 0.49082825199774305 0.3659220060694956 0.5176562643035572 0.6090037095411653 0.3659220060694956
          0.5261323228394981 0.5938508534022773 0.5888599272758783 0.5935986655952723 0.3659220060694957 0.5861600939805816
          0.5339687513700547 0.5908714337060663 0.5838937010322518 0.6269928598860844 0.36592200606949565 0.5500271702190984
          0.5968689855613766 0.5882301509734514 0.5857849218862271 0.6212675872635836 0.3659220060694957 1.4636880242779824
          0.5854411603371864 0.6339386282059778 0.5403653904758388 1.463688024277983 0.5804094909324886 1.4636880242779826
          0.6416503716049213 0.568027790522562 1.4636880242779826 0.6876285764173358 1.4636880242779828 1.4636880242779828
        </DataArray>
        <DataArray type="Float64" Name="stream" format="ascii" RangeMin="-0.020967041508677352" RangeMax="0.020557110693988065">
          0 -0.0010689982698881713 -0.00024645043160058215 -0.004584063217016263 0.002136982602584453 -0.004542236514374202
          -0.014653357902879029 -0.007235943723949999 -0.018271771560624785 0.00980730817534082 -0.005850266971180751 -0.00004626008801515442
          -0.014280480393117643 -0.015491644860235541 -0.018272692760247244 0.015058328648823416 -0.005686348415679692 -0.009647529697482922
          0.006887604266146696 -0.020967041508677352 -0.008533890426435407 -0.002756696151939604 -0.0025059272765088096 0.020557110693988065
          -0.009920101166294007 -0.004186747166895568 -0.000725270150654493 0.0170849181562132 0.00034372949153318663 0.016120392571266035
          -0.002326291380444048 -0.003899521477584792 0.010953349802766318 0.002920141459206114 0.005770555544169818 0.002920141459206114
        </DataArray>
      </PointData>
      <CellData>
        <DataArray type="UInt8" Name="vtkGhostType" format="ascii" RangeMin="0" RangeMax="0">
          0 0 0 0 0 0
          0 0 0 0 0 0
          0 0 0 0 0 0
          0 0 0 0 0 0
          0 0 0 0 0 0
          0 0 0 0 0 0
          0 0 0 0 0 0
          0 0 0 0 0 0
          0 0
        </DataArray>
      </CellData>
      <Points>
        <DataArray type="Float32" Name="Points" NumberOfComponents="3" format="ascii" RangeMin="0" RangeMax="1.4142135623730951">
          0 1 0 0.20000000298023224 1 0
          0 0.800000011920929 0 0.20000000298023224 0.800000011920929 0
          0.4000000059604645 1 0 0 0.6000000238418579 0
          0.20000000298023224 0.6000000238418579 0 0.4000000059604645 0.800000011920929 0
          0.4000000059604645 0.6000000238418579 0 0.6000000238418579 1 0
          0 0.4000000059604645 0 0.6000000238418579 0.800000011920929 0
          0.20000000298023224 0.4000000059604645 0 0.6000000238418579 0.6000000238418579 0
          0.4000000059604645 0.4000000059604645 0 0.800000011920929 1 0
          0 0.20000000298023224 0 0.20000000298023224 0.20000000298023224 0
          0.800000011920929 0.800000011920929 0 0.6000000238418579 0.4000000059604645 0
          0.4000000059604645 0.20000000298023224 0 0.800000011920929 0.6000000238418579 0
          0 0 0 1 1 0
          0.6000000238418579 0.20000000298023224 0 0.800000011920929 0.4000000059604645 0
          0.20000000298023224 0 0 1 0.800000011920929 0
          0.4000000059604645 0 0 1 0.6000000238418579 0
          0.800000011920929 0.20000000298023224 0 0.6000000238418579 0 0
          1 0.4000000059604645 0 0.800000011920929 0 0
          1 0.20000000298023224 0 1 0 0
          <InformationKey name="L2_NORM_RANGE" location="vtkDataArray" length="2">
            <Value index="0">
              0
            </Value>
            <Value index="1">
              1.4142135624
            </Value>
          </InformationKey>
        </DataArray>
      </Points>
      <Cells>
        <DataArray type="Int64" Name="connectivity" format="ascii" RangeMin="0" RangeMax="35">
          26 17 22 17 16 22
          28 20 26 20 17 26
          31 24 28 24 20 28
          33 30 31 30 24 31
          35 34 33 34 30 33
          17 12 16 12 10 16
          20 14 17 14 12 17
          24 19 20 19 14 20
          30 25 24 25 19 24
          34 32 30 32 25 30
          12 6 10 6 5 10
          14 8 12 8 6 12
          19 13 14 13 8 14
          25 21 19 21 13 19
          32 29 25 29 21 25
          6 3 5 3 2 5
          8 7 6 7 3 6
          13 11 8 11 7 8
          21 18 13 18 11 13
          29 27 21 27 18 21
          3 1 2 1 0 2
          7 4 3 4 1 3
          11 9 7 9 4 7
          18 15 11 15 9 11
          27 23 18 23 15 18
        </DataArray>
        <DataArray type="Int64" Name="offsets" format="ascii" RangeMin="3" RangeMax="150">
          3 6 9 12 15 18
          21 24 27 30 33 36
          39 42 45 48 51 54
          57 60 63 66 69 72
          75 78 81 84 87 90
          93 96 99 102 105 108
          111 114 117 120 123 126
          129 132 135 138 141 144
          147 150
        </DataArray>
        <DataArray type="UInt8" Name="types" format="ascii" RangeMin="5" RangeMax="5">
          5 5 5 5 5 5
          5 5 5 5 5 5
          5 5 5 5 5 5
          5 5 5 5 5 5
          5 5 5 5 5 5
          5 5 5 5 5 5
          5 5 5 5 5 5
          5 5 5 5 5 5
          5 5
        </DataArray>
      </Cells>
    </Piece>
  </UnstructuredGrid>
</VTKFile>
