<?xml version="1.0"?>
<VTKFile type="UnstructuredGrid" version="0.1" byte_order="LittleEndian" header_type="UInt32" compressor="vtkZLibDataCompressor">
  <UnstructuredGrid>
    <Piece NumberOfPoints="91" NumberOfCells="142">
      <PointData>
        <DataArray type="Float64" Name="ale_BC" NumberOfComponents="3" format="ascii" RangeMin="0" RangeMax="1">
          0 0 0 0 0 0
          0 0 0 0 0 0
          0 0 0 0 0 0
          0 0 0 0 0 0
          0 0 0 0 0 0
          0 0 0 0 1 0
          0 0 0 0 0 0
          0 0 0 0 1 0
          0 0 0 0 0 0
          0 1 0 0 1 0
          0 0 0 0 0 0
          0 0 0 0 0 0
          0 1 0 0 0 0
          0 0 0 0 0 0
          0 1 0 0 0 0
          0 0 0 0 1 0
          0 0 0 0 0 0
          0 1 0 0 0 0
          0 0 0 0 0 0
          0 0 0 0 1 0
          0 0 0 0 0 0
          0 1 0 0 0 0
          0 1 0 0 0 0
          0 0 0 0 1 0
          0 0 0 0 0 0
          0 0 0 0 1 0
          0 0 0 0 1 0
          0 0 0 0 1 0
          0 1 0 0 0 0
          0 0 0 0 0 0
          0 0 0 0 0 0
          0 0 0 0 0 0
          0 0 0 0 0 0
          0 0 0 0 0 0
          0 0 0 0 0 0
          0 0 0 0 0 0
          0 0 0 0 0 0
          0 0 0 0 0 0
          0 1 0 0 0 0
          0 0 0 0 0 0
          0 0 0 0 0 0
          0 0 0 0 0 0
          0 0 0 0 1 0
          0 0 0 0 0 0
          0 0 0 0 0 0
          0 0 0
          <InformationKey name="L2_NORM_RANGE" location="vtkDataArray" length="2">
            <Value index="0">
              0
            </Value>
            <Value index="1">
              1
            </Value>
          </InformationKey>
        </DataArray>
        <DataArray type="Float64" Name="ale_FIXNO" NumberOfComponents="3" format="ascii" RangeMin="1.4142135623730951" RangeMax="1.4142135623730951">
          1 1 0 -1 -1 0
          1 1 0 -1 -1 0
          -1 -1 0 -1 -1 0
          -1 -1 0 -1 -1 0
          -1 -1 0 -1 -1 0
          -1 -1 0 1 1 0
          -1 -1 0 -1 -1 0
          -1 -1 0 1 1 0
          -1 -1 0 -1 -1 0
          1 1 0 1 1 0
          -1 -1 0 -1 -1 0
          -1 -1 0 -1 -1 0
          1 1 0 -1 -1 0
          1 1 0 -1 -1 0
          1 1 0 -1 -1 0
          -1 -1 0 1 1 0
          -1 -1 0 -1 -1 0
          1 1 0 -1 -1 0
          -1 -1 0 -1 -1 0
          -1 -1 0 1 1 0
          -1 -1 0 -1 -1 0
          1 1 0 -1 -1 0
          1 1 0 -1 -1 0
          -1 -1 0 1 1 0
          -1 -1 0 -1 -1 0
          -1 -1 0 1 1 0
          -1 -1 0 1 1 0
          -1 -1 0 1 1 0
          1 1 0 -1 -1 0
          -1 -1 0 -1 -1 0
          -1 -1 0 -1 -1 0
          -1 -1 0 -1 -1 0
          -1 -1 0 -1 -1 0
          1 1 0 -1 -1 0
          -1 -1 0 1 1 0
          -1 -1 0 -1 -1 0
          -1 -1 0 -1 -1 0
          1 1 0 1 1 0
          1 1 0 -1 -1 0
          -1 -1 0 -1 -1 0
          -1 -1 0 -1 -1 0
          -1 -1 0 -1 -1 0
          1 1 0 1 1 0
          -1 -1 0 -1 -1 0
          -1 -1 0 -1 -1 0
          1 1 0
          <InformationKey name="L2_NORM_RANGE" location="vtkDataArray" length="2">
            <Value index="0">
              1.4142135624
            </Value>
            <Value index="1">
              1.4142135624
            </Value>
          </InformationKey>
        </DataArray>
        <DataArray type="Float64" Name="Density" format="ascii" RangeMin="0.9853798203403965" RangeMax="1.0258917751183856">
          1.0007602552634898 1.0016367914013353 1.0032233635807168 0.9949383545495047 1.000232439945875 0.9926502508716577
          0.9904496017712651 0.9894812383078312 0.992529794404025 0.9873002356574152 0.9892654339278091 0.9878534427874913
          0.9976257039598178 1.004549424277956 0.9868237126371703 0.9861228599640346 0.9894316332065904 0.9866017537621979
          0.9854039587260699 0.9853798203403965 0.9872577645804863 0.994660591041081 0.9902827066815503 1.0023039520630075
          0.9861240677869048 0.9884076694553692 1.009361436967298 0.9916310333723575 0.9877035299914559 0.9991323326593001
          0.9900435996043511 0.9897324198006795 0.9933253243031857 0.9919678245997343 0.9922741274594417 0.9973662251892906
          0.9949438236140845 1.007132353514441 0.9944316764937929 0.9956670797470889 0.997901765439059 0.9973825454367065
          0.9995309826755258 1.0057600533578086 1.0037744454670274 1.0005778660167077 1.000578443707242 1.0083375726944026
          1.0019326357312306 1.0050107059985693 1.0040879450458875 1.0126840779983435 1.0040584946561772 1.0167285567175963
          1.0075760629688781 1.0204543970887687 1.0233804592254536 1.010983336307151 1.007291993417844 1.0145371775207428
          1.0176894826519896 1.020236365604848 1.0103809457853625 1.007171838518959 1.013429773467322 1.006293998285464
          0.9999999999999954 1.0161787792314458 1.0185527286479317 0.9999999999999957 1.0123313178763471 1.0086780806777962
          1.0100766138669346 1.0162108007894144 0.9999999999999957 0.9999999999999954 0.9900307225699377 0.98872225310683
          0.9920608151848797 0.9946842648977409 0.9963686105513314 0.997687746149761 0.9992316742141725 0.9998658873938945
          1.0000106071544599 1.0258917751183856 1.02249509857067 1.0206262472020728 1.0190709491561187 1.0198466408410616
          0.9999999999999954
        </DataArray>
        <DataArray type="Float64" Name="Momentum" NumberOfComponents="3" format="ascii" RangeMin="0.0034273742317609793" RangeMax="1.631999587682207">
          0.03421858099413649 0 0 0.15383739634271668 0.08056944911298296 0
          0.21131997955545756 0 0 -0.1365896165311189 0.5057148742301257 0
          0.15666512335220156 0.30094323182571897 0 -0.47614862297745264 0.6172738462840046 0
          -0.55025446579877 0.7732488661210319 0 -0.4572236738432538 1.0439940032935442 0
          -0.07046136595294279 0.9181121579342005 0 -0.3490286929979706 1.2756824416094334 0
          -0.23534027629139226 1.1867546722099251 0 0 1.5694448053689365 0
          0.21010085020543084 0.6112975940098963 0 0.3600253154393703 0.147440034111414 0
          -0.248463757467968 1.4129261019796548 0 0 1.5658168384721498 0
          0.00529582676595436 1.279664174595505 0 -0.09040687293376597 1.4975862898270684 0
          0 1.5635209461310802 0 0 1.5624509433088227 0
          0.09088347774478883 1.54258611320689 0 0.41216033124439183 1.0074300114044628 0
          0.29325350489784796 1.3659831762933135 0 0.4270720704667371 0.3532745815512296 0
          0 1.5628122404404672 0 0.2547030703538162 1.5210085967009273 0
          0.3990093137127677 0 0 0.5013703374624858 1.2595602737130216 0
          0 1.5643773095391738 0 0.5709781491542512 0.5707222993562856 0
          0.4090827411806807 1.4430191969032875 0 0 1.5670475294503734 0
          0.7164837277618631 1.113037330103325 0 0.525543906414062 1.315074756300003 0
          0 1.5708069811663754 0 0.8804020117506374 0.7175580358272647 0
          0.810500646598913 0.9790398475346886 0 0.553013377056594 0.15749930603020992 0
          0.5925677119998063 1.1486381685344593 0 0 1.5757814423457572 0
          0.9387487043362844 0.6200404560668845 0 0.616821027890182 0.9785442988573643 0
          0 1.5818950601447035 0 0.6077454849721383 0.1894439013208065 0
          0 1.5888035862526968 0 0.9065944040040748 0.46558549066112404 0
          0.564568945186973 0.816525419376673 0 0 1.5965896396435488 0
          0.9608075599056585 0.275174277982231 0 0.8152814562605096 0.21987661232073755 0
          0.46370460485699405 0.6893275638146698 0 0 1.6042918037606366 0
          0.8407428141432686 0.15051738683737212 0 0 1.6119255104794226 0
          0.32278640764826133 0.6127185308390348 0 0 1.6194191449105246 0
          0 1.6260291034430399 0 0.1550068318937548 0.5953367354753653 0
          0.6613385763520359 -0.025966774688471847 0 -0.0029633319393773333 0.6481419399388522 0
          -0.1399311216899828 0.752685507493772 0 -0.24394997961100046 0.8981390729727502 0
          0.41231570178171234 -0.034887469834280156 0 0.804391919485206 -0.1968044872928993 0
          0.22532191992102998 -0.10292191714919767 0 0.8034932127459107 -0.06455485784172804 0
          0.9999999999999954 0 0 -0.016104770451461484 0.020120811036294366 0
          -0.19958166961776583 0.18878981180324347 0 0.9999999999999954 0 0
          0.5218730593918415 -0.4114025882051725 0 0.6439015859660084 -0.0658533861796386 0
          0.6592460076503902 -0.26667809028691053 0 0.1713991564959068 -0.32378654996793776 0
          0.9999999999999957 0 0 0.9999999999999954 0 0
          0 1.5739241586007795 0 -0.4154636756086306 1.1144613118174636 0
          -0.6025409723221324 0.5954762040565066 0 -0.5567199422456482 0.19546791425805266 0
          -0.3163775519164982 0.13461484477824745 0 -0.10797461599681327 0.1891408789694213 0
          -0.05180836073291672 0.08777079849725263 0 0.003950344486871589 0.01797048398235241 0
          0.0034273742317609793 0 0 0 1.631999587682207 0
          -0.2946590843855263 1.0509995150625333 0 -0.3514440827252911 0.42514420868745195 0
          -0.19556710137374295 0.10335899540829646 0 0.1658917849553786 -0.06101860122698426 0
          0.9999999999999957 0 0
          <InformationKey name="L2_NORM_RANGE" location="vtkDataArray" length="2">
            <Value index="0">
              0.0034273742318
            </Value>
            <Value index="1">
              1.6319995877
            </Value>
          </InformationKey>
        </DataArray>
        <DataArray type="Float64" Name="Energy" format="ascii" RangeMin="3640.7242998514" RangeMax="3846.9585927587646">
          3726.8009212113648 3731.398992374033 3739.6362914852652 3696.5849588989763 3724.178079444696 3684.5821555482426
          3673.1618365255267 3668.1010844461925 3684.3069316383467 3657.899447069064 3667.1890771849326 3651.605354514004
          3710.6678738535206 3746.597979198919 3654.683245170736 3643.7481432836994 3668.0945524315816 3653.195413674939
          3640.7242998514 3641.1578229079655 3656.166090863829 3695.356136184126 3673.0518646982023 3734.9911231952033
          3645.2510924838816 3662.320450696974 3772.0451605643366 3679.74488781441 3653.60870970122 3718.6555760354863
          3671.0902842957403 3663.8522902223353 3688.63802571562 3681.953410116127 3676.2679789007193 3709.4704832860384
          3697.0685546167038 3760.63800906388 3695.149846248771 3693.0676169437675 3711.6777709912817 3711.7124691038234
          3711.856850583868 3753.121895676312 3732.6191569093994 3725.8782125784887 3728.5942760266616 3754.852552068543
          3733.5373909127093 3749.2383697973837 3747.602444189916 3776.231721866821 3743.5353906161363 3796.6686396269874
          3766.5646799500983 3816.463926183335 3832.6839541901045 3784.83809512389 3760.5571639200857 3802.9582241299245
          3819.567482503432 3832.6492801612517 3776.340336387933 3760.6240221010844 3792.5775800155857 3755.6138567253975
          3723.329999999984 3806.9037978719416 3819.462476346866 3723.3299999999836 3787.357937252401 3769.3309844331197
          3775.4719927071683 3808.039181478671 3723.3299999999845 3723.329999999984 3661.7900768154145 3665.921041156604
          3680.861973002056 3694.9623582870863 3703.9202782946563 3710.8105334291668 3718.847977617983 3722.1371336390634
          3722.884391846403 3846.9585927587646 3844.2392119982496 3830.3498609971266 3822.4561511447837 3828.3888926403347
          3723.329999999984
        </DataArray>
        <DataArray type="Float64" Name="ALEdispl" NumberOfComponents="3" format="ascii" RangeMin="0" RangeMax="0.02513851564592391">
          0 0 0 0 0.003722012664249882 0
          0 0 0 0 0.01368336010625979 0
          0 0.007808634553185983 0 0 0.01755012990789916 0
          0 0.020260525554565433 0 0 0.020534604736287532 0
          0 0.016683504883535104 0 0 0.022890857761035277 0
          0 0.019952422119807734 0 0 0.0251385156459239 0
          0 0.011806885967728793 0 0 0.004255587817864379 0
          0 0.02281434891695622 0 0 0.0251385156459239 0
          0 0.019761043003839632 0 0 0.02273265194865626 0
          0 0.0251385156459239 0 0 0.025138515645923905 0
          0 0.022627065520411625 0 0 0.01600039634919905 0
          0 0.019920091888785272 0 0 0.007817456552804683 0
          0 0.025138515645923905 0 0 0.022517951394035993 0
          0 0 0 0 0.01924499369082312 0
          0 0.025138515645923905 0 0 0.011598898911913104 0
          0 0.02236790045041694 0 0 0.025138515645923905 0
          0 0.01933035746940921 0 0 0.022221199575709144 0
          0 0.025138515645923905 0 0 0.015700914123864967 0
          0 0.01940805824179917 0 0 0.003466846563649412 0
          0 0.022051048866770707 0 0 0.025138515645923905 0
          0 0.018154546732593924 0 0 0.021881697533389633 0
          0 0.02513851564592391 0 0 0.005599640860115174 0
          0 0.025138515645923905 0 0 0.01839110564623431 0
          0 0.021707565152337186 0 0 0.025138515645923905 0
          0 0.01356373880001362 0 0 0.008201095731568077 0
          0 0.021562974728140925 0 0 0.0251385156459239 0
          0 0.017375952478282986 0 0 0.02513851564592391 0
          0 0.02144739542770231 0 0 0.025138515645923898 0
          0 0.02513851564592391 0 0 0.0213823834239216 0
          0 0.017085219131318653 0 0 0.02138108925903251 0
          0 0.02144555470585198 0 0 0.02156540963929911 0
          0 0.01751533353614542 0 0 0.012183995149630082 0
          0 0.016746127024329777 0 0 0.0074656930679811795 0
          0 0 0 0 0.016846531507028188 0
          0 0.017048921317405995 0 0 0 0
          0 0.011476596541512566 0 0 0.0045033030462650284 0
          0 0.006833269068123387 0 0 0.011555674960257634 0
          0 0 0 0 0 0
          0 0.025138515645923905 0 0 0.022948293764623102 0
          0 0.02077939426162991 0 0 0.01764843718802558 0
          0 0.0136212805681123 0 0 0.010382548868014072 0
          0 0.006785944261844674 0 0 0.003211938164134384 0
          0 0 0 0 0.02513851564592391 0
          0 0.021722974643056434 0 0 0.01740723481398931 0
          0 0.013057751520747602 0 0 0.0058708307208703596 0
          0 0 0
          <InformationKey name="L2_NORM_RANGE" location="vtkDataArray" length="2">
            <Value index="0">
              0
            </Value>
            <Value index="1">
              0.025138515646
            </Value>
          </InformationKey>
        </DataArray>
        <DataArray type="Float64" Name="ALEveloc" NumberOfComponents="3" format="ascii" RangeMin="0" RangeMax="1.599532603087585">
          0 0 0 0 0.2368270541279115 0
          0 0 0 0 0.8706552494200033 0
          0 0.4968537414595703 0 0 1.1166930208410684 0
          0 1.2891521375674895 0 0 1.306591456307184 0
          0 1.0615507443182035 0 0 1.4565169167954954 0
          0 1.2695478977643286 0 0 1.5995326030875838 0
          0 0.7512575249995601 0 0 0.27077778003492187 0
          0 1.4516487538437637 0 0 1.599532603087584 0
          0 1.2573706817404098 0 0 1.446450476976117 0
          0 1.599532603087584 0 0 1.599532603087585 0
          0 1.43973214337203 0 0 1.0180853946727464 0
          0 1.2674907652226075 0 0 0.4974150743645551 0
          0 1.5995326030875847 0 0 1.4327893467068042 0
          0 0 0 0 1.2245351033555463 0
          0 1.5995326030875845 0 0 0.7380235663409337 0
          0 1.4232417910824668 0 0 1.5995326030875843 0
          0 1.2299666948183987 0 0 1.4139073961921051 0
          0 1.5995326030875847 0 0 0.9990297117432427 0
          0 1.2349106986917142 0 0 0.2205911513060455 0
          0 1.4030809174047785 0 0 1.5995326030875843 0
          0 1.1551513145037136 0 0 1.3923053018937126 0
          0 1.599532603087585 0 0 0.35629820978662 0
          0 1.5995326030875847 0 0 1.1702032650742373 0
          0 1.3812254742431962 0 0 1.5995326030875845 0
          0 0.8630438939183627 0 0 0.5218255599674827 0
          0 1.372025364703964 0 0 1.599532603087584 0
          0 1.1056103268062585 0 0 1.5995326030875847 0
          0 1.3646711970236778 0 0 1.5995326030875836 0
          0 1.599532603087585 0 0 1.360534563775161 0
          0 1.087111324167269 0 0 1.3604522176667828 0
          0 1.3645540741730577 0 0 1.3721802950840232 0
          0 1.1144789708202472 0 0 0.775252514993037 0
          0 1.06553531354604 0 0 0.4750327996719708 0
          0 0 0 0 1.071923926375624 0
          0 1.0848017392422131 0 0 0 0
          0 0.7302416180490795 0 0 0.2865395930905933 0
          0 0.43479244415552964 0 0 0.7352732798530196 0
          0 0 0 0 0 0
          0 1.5995326030875843 0 0 1.460171498538657 0
          0 1.322167110502302 0 0 1.1229481912695005 0
          0 0.8667052053263047 0 0 0.6606287201460674 0
          0 0.4317812253690346 0 0 0.20437164568494598 0
          0 0 0 0 1.599532603087585 0
          0 1.382205961044786 0 0 1.1076007830673902 0
          0 0.8308485502738464 0 0 0.3735536846131554 0
          0 0 0
          <InformationKey name="L2_NORM_RANGE" location="vtkDataArray" length="2">
            <Value index="0">
              0
            </Value>
            <Value index="1">
              1.5995326031
            </Value>
          </InformationKey>
        </DataArray>
      </PointData>
      <CellData>
        <DataArray type="UInt8" Name="vtkGhostType" format="ascii" RangeMin="0" RangeMax="1">
          1 1 0 1 0 0
          0 0 1 1 0 0
          0 1 0 0 1 1
          0 0 0 1 1 0
          0 1 0 1 1 0
          0 1 1 0 0 0
          0 0 0 0 0 0
          0 0 0 0 0 0
          0 0 0 0 0 0
          0 0 0 0 0 0
          0 0 0 0 0 0
          0 0 0 0 0 0
          0 0 0 0 0 0
          0 0 0 0 0 0
          0 0 0 0 0 0
          0 0 0 0 0 0
          0 0 0 0 0 0
          0 0 0 0 0 0
          0 0 0 0 0 0
          0 0 0 0 0 0
          0 0 0 0 0 0
          0 0 0 0 0 0
          0 0 0 0 0 0
          0 0 0 0
        </DataArray>
      </CellData>
      <Points>
        <DataArray type="Float32" Name="Points" NumberOfComponents="3" format="ascii" RangeMin="2.5330862087033426" RangeMax="4.415217469119645">
          -2.170166015625 -2.283679962158203 0 -2.691119909286499 -1.8072350025177002 0
          -2.74910306930542 -2.283679962158203 0 -2.690108060836792 -1.0087660551071167 0
          -2.8477039337158203 -1.4020040035247803 0 -2.6877200603485107 -0.8177986741065979 0
          -2.706774950027466 -0.7134789824485779 0 -2.7652220726013184 -0.7408525943756104 0
          -2.841264009475708 -0.9035742282867432 0 -2.779505968093872 -0.6740062832832336 0
          -2.8342409133911133 -0.7870715260505676 0 -2.789099931716919 -0.6153690218925476 0
          -2.9563119411468506 -1.1200250387191772 0 -3.0674641132354736 -1.6710790395736694 0
          -2.8320600986480713 -0.7043485045433044 0 -2.8313260078430176 -0.644936203956604 0
          -2.9055979251861572 -0.8061913251876831 0 -2.889085054397583 -0.7251037955284119 0
          -2.878045082092285 -0.6667217016220093 0 -2.9278368949890137 -0.6800634860992432 0
          -2.948848009109497 -0.735641598701477 0 -3.0256359577178955 -0.9197046160697937 0
          -2.988478899002075 -0.8006740808486938 0 -3.1323978900909424 -1.3007270097732544 0
          -2.9791901111602783 -0.6845563054084778 0 -3.0095319747924805 -0.735641598701477 0
          -3.282470941543579 -2.283679962158203 0 -3.0527820587158203 -0.8061913251876831 0
          -3.030543088912964 -0.6800634860992432 0 -3.156229019165039 -1.0495460033416748 0
          -3.0692949295043945 -0.7251037955284119 0 -3.0803349018096924 -0.6667217016220093 0
          -3.1287789344787598 -0.7726597189903259 0 -3.1263198852539062 -0.7043485045433044 0
          -3.12705397605896 -0.644936203956604 0 -3.1992249488830566 -0.8433429002761841 0
          -3.176959991455078 -0.7415673136711121 0 -3.3836259841918945 -1.561750054359436 0
          -3.1788740158081055 -0.6740062832832336 0 -3.1692800521850586 -0.6153690218925476 0
          -3.2516050338745117 -0.7134789824485779 0 -3.2253611087799072 -0.6349989771842957 0
          -3.20573091506958 -0.5789185166358948 0 -3.417664051055908 -1.20107102394104 0
          -3.235297918319702 -0.5366920828819275 0 -3.2887110710144043 -0.6606734991073608 0
          -3.2643680572509766 -0.5885120034217834 0 -3.2570838928222656 -0.4899730086326599 0
          -3.3560099601745605 -0.7656483054161072 0 -3.431668996810913 -0.9636631011962891 0
          -3.294711112976074 -0.5359575748443604 0 -3.270426034927368 -0.4401806890964508 0
          -3.3462131023406982 -0.6007289290428162 0 -3.2749180793762207 -0.38882800936698914 0
          -3.3154659271240234 -0.47893279790878296 0 -3.270426034927368 -0.3374752998352051 0
          -3.2570838928222656 -0.28768301010131836 0 -3.3260040283203125 -0.4191702902317047 0
          -3.3774330615997314 -0.5337768197059631 0 -3.3260040283203125 -0.35848569869995117 0
          -3.3154659271240234 -0.2987231910228729 0 -3.294711112976074 -0.24169839918613434 0
          -3.384929895401001 -0.4598917067050934 0 -3.462165117263794 -0.614043116569519 0
          -3.402992010116577 -0.38882800936698914 0 -3.53951096534729 -0.7811691761016846 0
          -3.778749942779541 -2.283679962158203 0 -3.3965530395507812 -0.31523561477661133 0
          -3.3774330615997314 -0.24387919902801514 0 -3.778749942779541 -1.7314280271530151 0
          -3.5027570724487305 -0.47875070571899414 0 -3.6378090381622314 -0.7895874977111816 0
          -3.5936028957366943 -0.6207522749900818 0 -3.501086950302124 -0.3039725124835968 0
          -3.778749942779541 -1.111603021621704 0 -3.778749942779541 -0.4253365099430084 0
          -2.7526490688323975 -0.5789185166358948 0 -2.7330191135406494 -0.6349989771842957 0
          -2.657727003097534 -0.6464416980743408 0 -2.5426599979400635 -0.6944894194602966 0
          -2.4337658882141113 -0.876357913017273 0 -2.4568591117858887 -1.145993947982788 0
          -2.194478988647461 -1.3969999551773071 0 -1.8212720155715942 -1.7605379819869995 0
          -1.546241044998169 -2.283679962158203 0 -3.235297918319702 -0.24096380174160004 0
          -3.2643680572509766 -0.18914400041103363 0 -3.3462131023406982 -0.1769271045923233 0
          -3.435275077819824 -0.1454842984676361 0 -3.613848924636841 -0.13029329478740692 0
          -3.778749942779541 0.2763518989086151 0
          <InformationKey name="L2_NORM_RANGE" location="vtkDataArray" length="2">
            <Value index="0">
              2.5330862087
            </Value>
            <Value index="1">
              4.4152174691
            </Value>
          </InformationKey>
        </DataArray>
      </Points>
      <Cells>
        <DataArray type="Int64" Name="connectivity" format="ascii" RangeMin="0" RangeMax="90">
          76 11 77 77 11 9
          9 14 7 77 9 6
          6 9 7 6 7 5
          10 16 8 16 21 8
          78 77 6 78 6 79
          7 14 10 7 10 5
          10 8 5 6 5 79
          5 8 3 3 8 12
          5 3 80 79 5 80
          8 21 12 12 23 4
          3 12 4 80 3 81
          81 3 4 4 23 13
          4 13 1 82 81 1
          1 13 26 4 1 81
          83 82 1 26 2 1
          1 2 0 0 84 83
          0 83 1 19 24 20
          34 39 38 28 31 30
          15 18 14 42 44 46
          24 28 25 11 15 9
          39 42 41 31 34 33
          18 19 17 17 19 20
          41 42 46 30 31 33
          38 39 41 14 18 17
          33 34 38 25 28 30
          20 24 25 9 15 14
          41 46 45 17 20 16
          30 33 32 38 41 40
          33 38 36 25 30 27
          20 25 22 14 17 10
          32 33 36 32 36 35
          27 30 32 27 32 35
          10 17 16 16 20 22
          36 38 40 36 40 35
          40 41 45 40 45 48
          22 25 27 22 27 21
          40 48 35 21 27 35
          22 21 16 21 35 29
          29 35 49 21 29 12
          35 48 49 12 29 23
          23 29 43 29 49 43
          43 49 74 23 43 37
          37 43 74 23 37 13
          13 37 26 66 26 69
          37 74 69 37 69 26
          47 51 54 56 85 61
          53 55 59 51 53 57
          55 56 60 44 47 50
          60 56 61 59 55 60
          54 51 57 50 47 54
          57 53 59 61 85 86
          46 44 50 61 86 87
          60 61 68 59 60 67
          50 54 58 57 59 64
          54 57 62 46 50 52
          64 59 67 64 67 73
          52 50 58 52 58 63
          62 57 64 62 64 70
          67 60 68 67 68 73
          45 46 52 45 52 48
          68 61 87 68 87 88
          58 54 62 58 70 63
          48 52 63 68 88 73
          64 73 70 70 73 75
          62 70 58 63 70 72
          48 63 65 65 63 72
          65 72 71 48 65 49
          73 88 89 72 70 75
          49 65 71 71 72 75
          73 89 75 75 89 90
          49 71 74 74 71 75
        </DataArray>
        <DataArray type="Int64" Name="offsets" format="ascii" RangeMin="3" RangeMax="426">
          3 6 9 12 15 18
          21 24 27 30 33 36
          39 42 45 48 51 54
          57 60 63 66 69 72
          75 78 81 84 87 90
          93 96 99 102 105 108
          111 114 117 120 123 126
          129 132 135 138 141 144
          147 150 153 156 159 162
          165 168 171 174 177 180
          183 186 189 192 195 198
          201 204 207 210 213 216
          219 222 225 228 231 234
          237 240 243 246 249 252
          255 258 261 264 267 270
          273 276 279 282 285 288
          291 294 297 300 303 306
          309 312 315 318 321 324
          327 330 333 336 339 342
          345 348 351 354 357 360
          363 366 369 372 375 378
          381 384 387 390 393 396
          399 402 405 408 411 414
          417 420 423 426
        </DataArray>
        <DataArray type="UInt8" Name="types" format="ascii" RangeMin="5" RangeMax="5">
          5 5 5 5 5 5
          5 5 5 5 5 5
          5 5 5 5 5 5
          5 5 5 5 5 5
          5 5 5 5 5 5
          5 5 5 5 5 5
          5 5 5 5 5 5
          5 5 5 5 5 5
          5 5 5 5 5 5
          5 5 5 5 5 5
          5 5 5 5 5 5
          5 5 5 5 5 5
          5 5 5 5 5 5
          5 5 5 5 5 5
          5 5 5 5 5 5
          5 5 5 5 5 5
          5 5 5 5 5 5
          5 5 5 5 5 5
          5 5 5 5 5 5
          5 5 5 5 5 5
          5 5 5 5 5 5
          5 5 5 5 5 5
          5 5 5 5 5 5
          5 5 5 5
        </DataArray>
      </Cells>
    </Piece>
  </UnstructuredGrid>
</VTKFile>
