<?xml version="1.0"?>
<VTKFile type="UnstructuredGrid" version="0.1" byte_order="LittleEndian" header_type="UInt32" compressor="vtkZLibDataCompressor">
  <UnstructuredGrid>
    <Piece NumberOfPoints="88" NumberOfCells="140">
      <PointData>
        <DataArray type="Float64" Name="ale_BC" NumberOfComponents="3" format="ascii" RangeMin="0" RangeMax="1">
          0 0 0 0 0 0
          0 0 0 0 0 0
          0 0 0 0 0 0
          0 0 0 0 1 0
          0 0 0 0 0 0
          0 0 0 0 1 0
          0 1 0 0 0 0
          0 0 0 0 0 0
          0 0 0 0 1 0
          0 0 0 0 0 0
          0 0 0 0 1 0
          0 0 0 0 1 0
          0 0 0 0 0 0
          0 0 0 0 1 0
          0 0 0 0 0 0
          0 0 0 0 1 0
          0 1 0 0 0 0
          0 0 0 0 0 0
          0 1 0 0 0 0
          0 0 0 0 1 0
          0 0 0 0 0 0
          0 1 0 0 1 0
          0 1 0 0 0 0
          0 0 0 0 0 0
          0 0 0 0 0 0
          0 0 0 0 0 0
          0 0 0 0 0 0
          0 0 0 0 0 0
          0 0 0 0 0 0
          0 0 0 0 0 0
          0 0 0 0 0 0
          0 0 0 0 0 0
          0 0 0 0 0 0
          0 0 0 0 0 0
          0 0 0 0 0 0
          0 0 0 0 0 0
          0 0 0 0 0 0
          0 0 0 0 0 0
          0 0 0 0 0 0
          0 0 0 0 0 0
          0 0 0 0 1 0
          0 0 0 0 1 0
          0 0 0 0 0 0
          0 0 0 0 0 0
          <InformationKey name="L2_NORM_RANGE" location="vtkDataArray" length="2">
            <Value index="0">
              0
            </Value>
            <Value index="1">
              1
            </Value>
          </InformationKey>
        </DataArray>
        <DataArray type="Float64" Name="ale_FIXNO" NumberOfComponents="3" format="ascii" RangeMin="1.4142135623730951" RangeMax="1.4142135623730951">
          -1 -1 0 -1 -1 0
          -1 -1 0 -1 -1 0
          -1 -1 0 -1 -1 0
          -1 -1 0 1 1 0
          -1 -1 0 -1 -1 0
          -1 -1 0 1 1 0
          1 1 0 -1 -1 0
          -1 -1 0 -1 -1 0
          -1 -1 0 1 1 0
          -1 -1 0 -1 -1 0
          -1 -1 0 1 1 0
          -1 -1 0 1 1 0
          -1 -1 0 -1 -1 0
          -1 -1 0 1 1 0
          -1 -1 0 -1 -1 0
          -1 -1 0 1 1 0
          1 1 0 -1 -1 0
          -1 -1 0 -1 -1 0
          1 1 0 -1 -1 0
          -1 -1 0 1 1 0
          -1 -1 0 -1 -1 0
          1 1 0 1 1 0
          1 1 0 -1 -1 0
          -1 -1 0 -1 -1 0
          -1 -1 0 -1 -1 0
          -1 -1 0 -1 -1 0
          -1 -1 0 1 1 0
          -1 -1 0 -1 -1 0
          -1 -1 0 -1 -1 0
          -1 -1 0 -1 -1 0
          -1 -1 0 -1 -1 0
          -1 -1 0 -1 -1 0
          -1 -1 0 -1 -1 0
          -1 -1 0 1 1 0
          -1 -1 0 -1 -1 0
          1 1 0 1 1 0
          1 1 0 1 1 0
          -1 -1 0 -1 -1 0
          -1 -1 0 -1 -1 0
          -1 -1 0 -1 -1 0
          1 1 0 1 1 0
          -1 -1 0 1 1 0
          -1 -1 0 -1 -1 0
          -1 -1 0 1 1 0
          <InformationKey name="L2_NORM_RANGE" location="vtkDataArray" length="2">
            <Value index="0">
              1.4142135624
            </Value>
            <Value index="1">
              1.4142135624
            </Value>
          </InformationKey>
        </DataArray>
        <DataArray type="Float64" Name="Density" format="ascii" RangeMin="0.9999999999999648" RangeMax="1.0294172475326009">
          1.0064110452597042 1.0067788400684066 1.0050388713322098 1.009044124943108 1.0094746676052841 1.0093212104153861
          1.0068526060908676 1.0116599975322675 1.0087979656584147 1.0118276693823987 1.0095014542629848 1.0141731202268558
          1.0165468224126384 1.0127248927393495 1.0129938847736686 1.0139854027805102 1.0066597532066133 1.0191871702886115
          1.0158497227478298 1.0129182621802726 1.0169718556900085 1.0212605207822223 1.018508126918599 1.0228696051959814
          1.0188272770944673 1.017142924782198 1.020548399509435 1.024162335051055 1.0114169479931905 1.0204936184784597
          1.0225582301182434 1.025599985247769 1.0269993091961795 1.02397300059792 1.019186646893861 1.022032550717491
          1.028221510317616 1.0250777753650646 1.0231545239191813 1.0290419037129703 1.016797201952012 1.0255840938225076
          1.0294022941420509 1.0294172475326009 1.0288394686506204 1.0251957474942124 1.0242238229809524 1.0211784338377883
          1.0245967875371498 1.0232945188441882 1.024359127722849 1.00932564094662 1.0245390432819952 1.0043903211774419
          1.0239164471076705 1.0223969136787419 1.014477046570286 1.0223746620040366 1.0181929301238701 1.0228694372574116
          1.0210474102464029 1.0208133345432129 1.0246778329456678 1.0233761024126382 1.0181598505522764 1.0224494814346534
          1.0196870539106977 1.0092386294662217 1.0150653245963612 1.017829229283799 0.9999999999999648 1.012511030054682
          0.9999999999999648 0.9999999999999648 1.0067093397900362 1.00498093467565 1.0033671450247699 1.0040884793346756
          1.0034289994117405 1.0026017911544343 1.0014798793712538 1.0089397114052958 1.0040477607384455 1.0273224979855038
          1.021448383528689 1.0205942773439676 1.018558539115133 0.9999999999999648
        </DataArray>
        <DataArray type="Float64" Name="Momentum" NumberOfComponents="3" format="ascii" RangeMin="0.06062821001872244" RangeMax="1.6455585222118314">
          0.47851484471688305 -0.04554530866807468 0 0.608758942017854 -0.20738364824039754 0
          0.2959615221809438 0.06230885173143056 0 0.8052082159675622 0.01683378869180808 0
          0.7813871279382497 0.04775088659507721 0 0.6734065349414342 0.3661577764358501 0
          0.3465464794184748 0.8262338086421205 0 0 1.6149962850757618 0
          0.5743594872177301 0.13394294439254534 0 0.8138987544189505 0.4702098656986803 0
          0.4557341125529241 0.9351466917482106 0 0 1.6204236736592528 0
          0 1.6255362050025879 0 0.519011258042177 1.0696657094597362 0
          0.9838325079858825 0.4487239750755929 0 0.8813673008463351 0.7096996849424836 0
          0.2820738129392855 0.10837507050947282 0 0 1.6309069070854652 0
          0.5327107443382131 1.2103748276668036 0 0.8031624209065407 0.39964601155269575 0
          0.8542058328920328 0.9084073070468208 0 0 1.6351416843090503 0
          0.48468742732180425 1.3579601989951964 0 0 1.63842801965887 0
          0.723243290652265 1.1855981980421157 0 0.8649778976947768 0.8145738156241417 0
          0.4128487995097026 1.4885237420195634 0 0 1.6407930261447932 0
          0.4861740301627798 0.2815815941564504 0 0.6002608842277396 1.325433831826015 0
          0.30974151389099613 1.5713241545924925 0 0 1.642919621379834 0
          0 1.6445740769308725 0 0.19018682627232908 1.6144349348776847 0
          0.6332312700095297 1.1279175193496809 0 0.4268711991039459 1.4299691080532018 0
          0 1.6455585222118314 0 0.0641920927251107 1.6044180802557257 0
          0.22077718576382446 1.4564937118415962 0 0 1.6455563378693407 0
          0.5870416993286046 0.6549759856843989 0 -0.06754316193176176 1.54243380654648 0
          0 1.6446341671580678 0 0 1.642848209748819 0
          0 1.6401644110727132 0 -0.17264236484525872 1.4482305880932498 0
          0.006977630881497361 1.3536237579565384 0 0.31326340234526373 1.0650938886767798 0
          -0.22809327729607937 1.3090056695934036 0 -0.2541199535835832 1.142640782483926 0
          -0.1694748160155712 1.2363088203366062 0 0.35630525151582987 0.1696795929262238 0
          -0.3106889272704535 1.0478214484536539 0 0.19698985573347502 0 0
          -0.3481542813708804 0.7618602295072622 0 -0.04528371754530959 1.0060666768045972 0
          0.46230301211220604 0.3621913539236696 0 -0.3384495623862002 0.5135210033743426 0
          0.4053667697407444 0.6534544861804592 0 -0.29648685297771366 0.6205583057638786 0
          -0.23950184141803496 0.12177661802206627 0 0.1695030528657777 0.747886984086001 0
          -0.06027683193297217 0.44028217805116104 0 -0.09360628303905312 0.2374022840298059 0
          0.32996661983202674 0.5236103696765735 0 0.09452757273500416 -0.10918629968589373 0
          0.32912705309179247 0.3904718291218137 0 0.36160277799399604 0 0
          0.3833551081870178 0.14075010883728387 0 0.19138846234166104 0.1980729837558734 0
          0.9999999999999648 0 0 0.5290301149793117 0 0
          0.9999999999999648 0 0 0.9999999999999646 0 0
          0.4924434327159142 0.1179475872827394 0 0.4335851195724319 -0.30158476332745926 0
          0.27663459596422635 -0.39952878401182335 0 0.29474115336963674 -0.1967098497532547 0
          0.21308031221659374 -0.04474895171699475 0 0.13280103854863773 0.01047315677656506 0
          0.06062821001872244 0 0 0 1.6092787952040808 0
          0.2191555254091612 0.7562078299413999 0 0 1.6361493959878393 0
          -0.22221565751540284 0.9838391443154765 0 -0.20017679773731226 0.2516671679852546 0
          0.14616034272743209 -0.39945943568385484 0 0.9999999999999648 0 0
          <InformationKey name="L2_NORM_RANGE" location="vtkDataArray" length="2">
            <Value index="0">
              0.060628210019
            </Value>
            <Value index="1">
              1.6455585222
            </Value>
          </InformationKey>
        </DataArray>
        <DataArray type="Float64" Name="Energy" format="ascii" RangeMin="3723.3299999998676" RangeMax="3867.429966188914">
          3756.39696084808 3758.4917761277306 3749.3088498641573 3770.536013342698 3772.6556363674217 3770.6737870415177
          3765.957866863098 3759.583452472095 3769.1345589680327 3783.440266201513 3779.545689373018 3775.100416103874
          3790.6948802650086 3794.7849487968924 3791.5150333077845 3795.873312837491 3757.7693775633834 3808.25049226589
          3810.290313070198 3790.8337929541044 3811.036510998456 3823.4733328600155 3823.3132699484445 3835.8008551313824
          3821.8340175842027 3813.2376728420363 3833.1731110312962 3845.341566307576 3782.911640578164 3830.490589646001
          3842.813421251581 3854.2260605776733 3861.5111042623425 3850.1476324402543 3824.243805214813 3839.279558342555
          3866.138126001528 3856.38620649665 3845.0437953650726 3867.429966188914 3811.4938407885857 3859.5403987468208
          3865.9985289929373 3861.5951229783927 3854.2757493451736 3858.505645476239 3850.0045945952606 3834.4507094261508
          3856.5781809212344 3850.6849559022135 3850.992902953399 3771.8447289022183 3850.707329135533 3745.9629027034125
          3848.6644740665615 3841.2027795698937 3798.9448004622413 3839.359038956125 3819.1453523841915 3843.4851013225352
          3833.0352793650027 3832.541532709627 3852.2727387498985 3845.5325036646636 3817.9071958790546 3842.9595359325654
          3827.0617335473958 3771.4792480677675 3802.272216880062 3817.074183194267 3723.3299999998685 3788.8113373562674
          3723.3299999998685 3723.3299999998685 3756.608379096 3749.082764026398 3740.4448101917574 3744.3011764839152
          3740.8396593465254 3736.4600365802803 3730.6093522653355 3744.509057908852 3751.4296371289515 3843.30677345677
          3841.7842488614187 3829.991832916457 3820.476051556878 3723.3299999998676
        </DataArray>
        <DataArray type="Float64" Name="ALEdispl" NumberOfComponents="3" format="ascii" RangeMin="0" RangeMax="0.037211270132493916">
          0 0.016481766367025478 0 0 0.02155287635308854 0
          0 0.011027222539779903 0 0 0.0266755326222196 0
          0 0.021134135073057073 0 0 0.030870881520564702 0
          0 0.03410095421550291 0 0 0.03721127013249391 0
          0 0.015647735611831175 0 0 0.030196985712039635 0
          0 0.03406048816692094 0 0 0.03721127013249391 0
          0 0.03721127013249391 0 0 0.03398623951418819 0
          0 0.026199360638839868 0 0 0.030045760399866304 0
          0 0.009563987817247455 0 0 0.0372112701324939 0
          0 0.033890746042765055 0 0 0.019980158467205522 0
          0 0.029770988135012645 0 0 0.037211270132493895 0
          0 0.03377676788939626 0 0 0.03721127013249391 0
          0 0.03019356033203662 0 0 0.025096821871914313 0
          0 0.03365866855322954 0 0 0.03721127013249391 0
          0 0.013174963191232293 0 0 0.0292608301849757 0
          0 0.0335148423107716 0 0 0.0372112701324939 0
          0 0.037211270132493916 0 0 0.03334309907454369 0
          0 0.024448699175699064 0 0 0.028915695161504485 0
          0 0.037211270132493916 0 0 0.03314083646028429 0
          0 0.02889568345638037 0 0 0.03721127013249391 0
          0 0.017660434558094667 0 0 0.03291574197869898 0
          0 0.03721127013249391 0 0 0.03721127013249391 0
          0 0.03721127013249391 0 0 0.03265992676369671 0
          0 0.028026850682591063 0 0 0.022279852429634893 0
          0 0.03241907537442706 0 0 0.032155417961408445 0
          0 0.027513581046004057 0 0 0.006534580132566194 0
          0 0.02766984985652776 0 0 0 0
          0 0.026310366347757057 0 0 0.02207520036548534 0
          0 0.010999842951443895 0 0 0.0257670471099648 0
          0 0.014952013106851044 0 0 0.0213369949497527 0
          0 0.01932872751937157 0 0 0.015768441154700802 0
          0 0.013721419518727665 0 0 0.01169797379608442 0
          0 0.009623911445735508 0 0 0.008690293052043165 0
          0 0.008354002644457533 0 0 0 0
          0 0.003761587125578058 0 0 0.0050063298302684784 0
          0 0 0 0 0 0
          0 0 0 0 0 0
          0 0.030431967157998275 0 0 0.026360202343898412 0
          0 0.021433410340549883 0 0 0.016975069540264592 0
          0 0.011886336352311717 0 0 0.006457916014148861 0
          0 0 0 0 0.03721127013249391 0
          0 0.03413910184868836 0 0 0.03721127013249391 0
          0 0.03192218247523955 0 0 0.02523665380825679 0
          0 0.01710527974547158 0 0 0 0
          <InformationKey name="L2_NORM_RANGE" location="vtkDataArray" length="2">
            <Value index="0">
              0
            </Value>
            <Value index="1">
              0.037211270132
            </Value>
          </InformationKey>
        </DataArray>
        <DataArray type="Float64" Name="ALEveloc" NumberOfComponents="3" format="ascii" RangeMin="0" RangeMax="1.5987694324613346">
          0 0.7081334275004922 0 0 0.9260119252109846 0
          0 0.47378082658225995 0 0 1.1461050912580477 0
          0 0.9080208500275697 0 0 1.3263568148165894 0
          0 1.465135778042189 0 0 1.5987694324613337 0
          0 0.6722995827435274 0 0 1.297403113008039 0
          0 1.463397168172249 0 0 1.5987694324613337 0
          0 1.5987694324613337 0 0 1.4602071003253871 0
          0 1.125646525643079 0 0 1.290905769443675 0
          0 0.4109134496136331 0 0 1.5987694324613329 0
          0 1.456104256144919 0 0 0.8584406417562072 0
          0 1.2791002735180572 0 0 1.598769432461332 0
          0 1.451207223957475 0 0 1.5987694324613337 0
          0 1.2972559427334436 0 0 1.0782763264430004 0
          0 1.4461331265674922 0 0 1.5987694324613333 0
          0 0.5660577655357155 0 0 1.2571815125259667 0
          0 1.439953681490536 0 0 1.5987694324613329 0
          0 1.5987694324613342 0 0 1.4325747923707741 0
          0 1.0504299575471268 0 0 1.2423529048586417 0
          0 1.5987694324613342 0 0 1.4238846486627987 0
          0 1.2414931088256145 0 0 1.5987694324613333 0
          0 0.7587745012447182 0 0 1.4142135416220283 0
          0 1.5987694324613342 0 0 1.5987694324613337 0
          0 1.5987694324613333 0 0 1.4032225288281128 0
          0 1.2041640073004838 0 0 0.9572462024924266 0
          0 1.3928744316640231 0 0 1.3815464815275447 0
          0 1.1821115537651972 0 0 0.2807559895891083 0
          0 1.1888255895028315 0 0 0 0
          0 1.1304158477762267 0 0 0.9484533968911282 0
          0 0.4726044719792294 0 0 1.1070723234526127 0
          0 0.6424081044231895 0 0 0.9167366549108495 0
          0 0.8304521349665193 0 0 0.6774856549088002 0
          0 0.5895360738402682 0 0 0.5025994237853766 0
          0 0.41348804771705006 0 0 0.3733754542983281 0
          0 0.3589268525128064 0 0 0 0
          0 0.1616152980669901 0 0 0.21509524058044155 0
          0 0 0 0 0 0
          0 0 0 0 0 0
          0 1.3074990100751527 0 0 1.1325570342227902 0
          0 0.9208791090403778 0 0 0.7293280288001187 0
          0 0.5106923562771786 0 0 0.27746214208925646 0
          0 0 0 0 1.5987694324613346 0
          0 1.4667747779914113 0 0 1.5987694324613333 0
          0 1.371525599022744 0 0 1.0842841575304685 0
          0 0.734922465516151 0 0 0 0
          <InformationKey name="L2_NORM_RANGE" location="vtkDataArray" length="2">
            <Value index="0">
              0
            </Value>
            <Value index="1">
              1.5987694325
            </Value>
          </InformationKey>
        </DataArray>
      </PointData>
      <CellData>
        <DataArray type="UInt8" Name="vtkGhostType" format="ascii" RangeMin="0" RangeMax="1">
          1 1 0 1 0 1
          1 1 0 0 1 1
          0 1 1 1 0 0
          1 0 0 0 0 0
          0 0 0 1 0 0
          0 0 0 0 0 0
          0 0 0 0 0 0
          1 0 0 0 0 0
          0 0 0 1 1 0
          0 0 0 0 0 0
          0 0 0 0 0 0
          0 0 0 0 0 0
          0 0 1 0 0 0
          0 0 0 0 1 0
          1 0 0 0 0 0
          0 0 0 0 0 0
          0 0 0 1 1 0
          0 0 0 1 0 0
          0 0 0 0 0 0
          0 0 1 0 0 0
          0 0 0 1 0 0
          0 0 1 0 0 0
          0 0 0 0 0 0
          0 0
        </DataArray>
      </CellData>
      <Points>
        <DataArray type="Float32" Name="Points" NumberOfComponents="3" format="ascii" RangeMin="1.8803550135780176" RangeMax="4.055759004528563">
          -2.2300779819488525 0.13570579886436462 0 -2.3709781169891357 -0.062260668724775314 0
          -2.059462070465088 0.44021978974342346 0 -2.5443649291992188 -0.10779819637537003 0
          -2.4642961025238037 0.07101144641637802 0 -2.6271650791168213 -0.17486029863357544 0
          -2.6636691093444824 -0.24169839918613434 0 -2.701296091079712 -0.28768301010131836 0
          -2.383152961730957 0.3095952868461609 0 -2.654539108276367 -0.11641339957714081 0
          -2.694011926651001 -0.18914400041103363 0 -2.7230820655822754 -0.2409639060497284 0
          -2.7526490688323975 -0.1987375020980835 0 -2.7330191135406494 -0.14265699684619904 0
          -2.650291919708252 0.011698920279741287 0 -2.706774950027466 -0.06417694687843323 0
          -2.265990972518921 0.6523954272270203 0 -2.789099931716919 -0.16228699684143066 0
          -2.779505968093872 -0.10364969819784164 0 -2.617074966430664 0.21585670113563538 0
          -2.76728892326355 -0.021804839372634888 0 -2.8313260078430176 -0.13271979987621307 0
          -2.8320600986480713 -0.07330747693777084 0 -2.878045082092285 -0.1109343022108078 0
          -2.8383469581604004 -0.0027822840493172407 0 -2.7977020740509033 0.10521770268678665 0
          -2.889085054397583 -0.05255214869976044 0 -2.9278368949890137 -0.09759248048067093 0
          -2.6022489070892334 0.5176013708114624 0 -2.9055979251861572 0.02853533998131752 0
          -2.948848009109497 -0.04201440140604973 0 -2.9791901111602783 -0.0930996984243393 0
          -3.030543088912964 -0.09759248048067093 0 -3.0095319747924805 -0.04201440140604973 0
          -2.923835039138794 0.1344859004020691 0 -2.9791901111602783 0.03497384116053581 0
          -3.0803349018096924 -0.1109343022108078 0 -3.0692949295043945 -0.05255214869976044 0
          -3.0480120182037354 0.022753920406103134 0 -3.12705397605896 -0.13271979987621307 0
          -2.878783941268921 0.3397555947303772 0 -3.1263198852539062 -0.07330747693777084 0
          -3.1692800521850586 -0.16228699684143066 0 -3.20573091506958 -0.1987375020980835 0
          -3.235297918319702 -0.24096380174160004 0 -3.1788740158081055 -0.10364969819784164 0
          -3.1241390705108643 0.009415465407073498 0 -3.0579030513763428 0.16394680738449097 0
          -3.2253611087799072 -0.14265699684619904 0 -3.2643680572509766 -0.18914400041103363 0
          -3.1910910606384277 -0.021804839372634888 0 -2.6045689582824707 0.9419500827789307 0
          -3.25103497505188 -0.07930652797222137 0 -2.1272919178009033 1.4731700420379639 0
          -3.3038411140441895 -0.11641339957714081 0 -3.2044050693511963 0.0941474512219429 0
          -2.892124891281128 0.6298788785934448 0 -3.3462131023406982 -0.1769271045923233 0
          -3.0603749752044678 0.3931475877761841 0 -3.33001708984375 -0.012432189658284187 0
          -3.435275077819824 -0.1454842984676361 0 -3.2308011054992676 0.26955080032348633 0
          -3.4064109325408936 0.15343579649925232 0 -3.518059015274048 0.028400490060448647 0
          -3.280010938644409 0.5167043805122375 0 -3.613848924636841 -0.13029329478740692 0
          -3.444891929626465 0.4024854004383087 0 -2.7232348918914795 1.4731700420379639 0
          -3.235137939453125 1.018826961517334 0 -3.5035080909729004 0.6253349184989929 0
          -3.778749942779541 0.2763518989086151 0 -3.2737109661102295 1.4731700420379639 0
          -3.778749942779541 0.9123057126998901 0 -3.778749942779541 1.4731700420379639 0
          -2.580946922302246 -0.24387919902801514 0 -2.4644439220428467 -0.2509022057056427 0
          -2.2871220111846924 -0.25536561012268066 0 -2.119029998779297 -0.06761106103658676 0
          -1.8855739831924438 0.1918828934431076 0 -1.733451008796692 0.7286168932914734 0
          -1.4868500232696533 1.4731700420379639 0 -2.6879539489746094 -0.3374752998352051 0
          -2.642914056777954 -0.2987231910228729 0 -3.2570838928222656 -0.28768301010131836 0
          -3.294711112976074 -0.24169839918613434 0 -3.3774330615997314 -0.24387919902801514 0
          -3.501086950302124 -0.3039725124835968 0 -3.778749942779541 -0.4253365099430084 0
          <InformationKey name="L2_NORM_RANGE" location="vtkDataArray" length="2">
            <Value index="0">
              1.8803550136
            </Value>
            <Value index="1">
              4.0557590045
            </Value>
          </InformationKey>
        </DataArray>
      </Points>
      <Cells>
        <DataArray type="Int64" Name="connectivity" format="ascii" RangeMin="0" RangeMax="87">
          74 75 3 75 76 1
          4 3 1 1 3 75
          4 1 0 1 76 77
          0 1 77 0 77 78
          4 0 8 8 0 2
          0 78 2 2 78 79
          8 2 16 16 2 79
          80 53 79 16 79 53
          12 11 10 27 23 26
          7 81 82 32 31 33
          21 17 18 11 7 6
          36 32 37 23 21 22
          31 27 30 17 12 13
          26 23 22 6 7 82
          10 11 6 22 21 18
          37 32 33 18 17 13
          33 31 30 13 12 10
          30 27 26 33 30 35
          10 6 5 22 18 20
          13 10 9 26 22 24
          18 13 15 30 26 29
          6 82 74 20 18 15
          20 15 14 35 30 29
          35 29 34 15 13 9
          15 9 14 9 10 5
          9 5 3 5 6 74
          5 74 3 29 26 24
          29 25 34 24 22 20
          24 20 25 9 3 14
          20 14 25 25 14 19
          24 25 29 34 25 40
          19 14 4 25 19 40
          14 3 4 19 4 8
          19 8 28 40 19 28
          56 40 28 28 8 16
          56 28 51 28 16 51
          51 16 53 39 36 41
          83 44 84 43 42 48
          44 43 49 42 39 45
          48 42 45 41 36 37
          45 39 41 49 43 48
          84 44 49 37 33 38
          84 49 57 49 48 54
          48 45 52 41 37 46
          45 41 50 54 48 52
          54 52 59 57 49 54
          57 54 60 52 45 50
          52 50 59 50 41 46
          50 46 55 38 33 35
          38 35 47 85 84 57
          85 57 60 46 37 38
          46 47 55 60 54 59
          50 55 59 85 60 86
          46 38 47 47 35 34
          47 34 40 55 47 61
          61 47 58 55 61 62
          60 59 63 63 59 62
          62 59 55 60 63 65
          86 60 65 63 62 70
          58 47 40 58 40 56
          62 61 66 61 58 64
          65 63 70 86 65 87
          66 61 64 66 64 69
          64 58 56 62 66 70
          87 65 70 69 64 68
          66 69 70 64 56 68
          68 56 51 69 68 72
          71 73 68 70 69 72
          72 68 73 67 71 68
          68 51 67 67 51 53
        </DataArray>
        <DataArray type="Int64" Name="offsets" format="ascii" RangeMin="3" RangeMax="420">
          3 6 9 12 15 18
          21 24 27 30 33 36
          39 42 45 48 51 54
          57 60 63 66 69 72
          75 78 81 84 87 90
          93 96 99 102 105 108
          111 114 117 120 123 126
          129 132 135 138 141 144
          147 150 153 156 159 162
          165 168 171 174 177 180
          183 186 189 192 195 198
          201 204 207 210 213 216
          219 222 225 228 231 234
          237 240 243 246 249 252
          255 258 261 264 267 270
          273 276 279 282 285 288
          291 294 297 300 303 306
          309 312 315 318 321 324
          327 330 333 336 339 342
          345 348 351 354 357 360
          363 366 369 372 375 378
          381 384 387 390 393 396
          399 402 405 408 411 414
          417 420
        </DataArray>
        <DataArray type="UInt8" Name="types" format="ascii" RangeMin="5" RangeMax="5">
          5 5 5 5 5 5
          5 5 5 5 5 5
          5 5 5 5 5 5
          5 5 5 5 5 5
          5 5 5 5 5 5
          5 5 5 5 5 5
          5 5 5 5 5 5
          5 5 5 5 5 5
          5 5 5 5 5 5
          5 5 5 5 5 5
          5 5 5 5 5 5
          5 5 5 5 5 5
          5 5 5 5 5 5
          5 5 5 5 5 5
          5 5 5 5 5 5
          5 5 5 5 5 5
          5 5 5 5 5 5
          5 5 5 5 5 5
          5 5 5 5 5 5
          5 5 5 5 5 5
          5 5 5 5 5 5
          5 5 5 5 5 5
          5 5 5 5 5 5
          5 5
        </DataArray>
      </Cells>
    </Piece>
  </UnstructuredGrid>
</VTKFile>
