<?xml version="1.0"?>
<VTKFile type="UnstructuredGrid" version="0.1" byte_order="LittleEndian" header_type="UInt32" compressor="vtkZLibDataCompressor">
  <UnstructuredGrid>
    <Piece NumberOfPoints="91" NumberOfCells="142">
      <PointData>
        <DataArray type="Float64" Name="ale_BC" NumberOfComponents="3" format="ascii" RangeMin="0" RangeMax="1">
          0 0 0 0 0 0
          0 0 0 0 0 0
          0 0 0 0 0 0
          0 0 0 0 0 0
          0 0 0 0 0 0
          0 0 0 0 1 0
          0 0 0 0 0 0
          0 0 0 0 1 0
          0 0 0 0 0 0
          0 1 0 0 1 0
          0 0 0 0 0 0
          0 0 0 0 0 0
          0 1 0 0 0 0
          0 0 0 0 0 0
          0 1 0 0 0 0
          0 0 0 0 1 0
          0 0 0 0 0 0
          0 1 0 0 0 0
          0 0 0 0 0 0
          0 0 0 0 1 0
          0 0 0 0 0 0
          0 1 0 0 0 0
          0 1 0 0 0 0
          0 0 0 0 1 0
          0 0 0 0 0 0
          0 0 0 0 1 0
          0 0 0 0 1 0
          0 0 0 0 1 0
          0 1 0 0 0 0
          0 0 0 0 0 0
          0 0 0 0 0 0
          0 0 0 0 0 0
          0 0 0 0 0 0
          0 0 0 0 0 0
          0 0 0 0 0 0
          0 0 0 0 0 0
          0 0 0 0 0 0
          0 0 0 0 0 0
          0 1 0 0 0 0
          0 0 0 0 0 0
          0 0 0 0 0 0
          0 0 0 0 0 0
          0 0 0 0 1 0
          0 0 0 0 0 0
          0 0 0 0 0 0
          0 0 0
          <InformationKey name="L2_NORM_RANGE" location="vtkDataArray" length="2">
            <Value index="0">
              0
            </Value>
            <Value index="1">
              1
            </Value>
          </InformationKey>
        </DataArray>
        <DataArray type="Float64" Name="ale_FIXNO" NumberOfComponents="3" format="ascii" RangeMin="1.4142135623730951" RangeMax="1.4142135623730951">
          1 1 0 -1 -1 0
          1 1 0 -1 -1 0
          -1 -1 0 -1 -1 0
          -1 -1 0 -1 -1 0
          -1 -1 0 -1 -1 0
          -1 -1 0 1 1 0
          -1 -1 0 -1 -1 0
          -1 -1 0 1 1 0
          -1 -1 0 -1 -1 0
          1 1 0 1 1 0
          -1 -1 0 -1 -1 0
          -1 -1 0 -1 -1 0
          1 1 0 -1 -1 0
          1 1 0 -1 -1 0
          1 1 0 -1 -1 0
          -1 -1 0 1 1 0
          -1 -1 0 -1 -1 0
          1 1 0 -1 -1 0
          -1 -1 0 -1 -1 0
          -1 -1 0 1 1 0
          -1 -1 0 -1 -1 0
          1 1 0 -1 -1 0
          1 1 0 -1 -1 0
          -1 -1 0 1 1 0
          -1 -1 0 -1 -1 0
          -1 -1 0 1 1 0
          -1 -1 0 1 1 0
          -1 -1 0 1 1 0
          1 1 0 -1 -1 0
          -1 -1 0 -1 -1 0
          -1 -1 0 -1 -1 0
          -1 -1 0 -1 -1 0
          -1 -1 0 -1 -1 0
          1 1 0 -1 -1 0
          -1 -1 0 1 1 0
          -1 -1 0 -1 -1 0
          -1 -1 0 -1 -1 0
          1 1 0 1 1 0
          1 1 0 -1 -1 0
          -1 -1 0 -1 -1 0
          -1 -1 0 -1 -1 0
          -1 -1 0 -1 -1 0
          1 1 0 1 1 0
          -1 -1 0 -1 -1 0
          -1 -1 0 -1 -1 0
          1 1 0
          <InformationKey name="L2_NORM_RANGE" location="vtkDataArray" length="2">
            <Value index="0">
              1.4142135624
            </Value>
            <Value index="1">
              1.4142135624
            </Value>
          </InformationKey>
        </DataArray>
      </PointData>
      <CellData>
        <DataArray type="UInt8" Name="vtkGhostType" format="ascii" RangeMin="0" RangeMax="1">
          1 1 0 1 0 0
          0 0 1 1 0 0
          0 1 0 0 1 1
          0 0 0 1 1 0
          0 1 0 1 1 0
          0 1 1 0 0 0
          0 0 0 0 0 0
          0 0 0 0 0 0
          0 0 0 0 0 0
          0 0 0 0 0 0
          0 0 0 0 0 0
          0 0 0 0 0 0
          0 0 0 0 0 0
          0 0 0 0 0 0
          0 0 0 0 0 0
          0 0 0 0 0 0
          0 0 0 0 0 0
          0 0 0 0 0 0
          0 0 0 0 0 0
          0 0 0 0 0 0
          0 0 0 0 0 0
          0 0 0 0 0 0
          0 0 0 0 0 0
          0 0 0 0
        </DataArray>
      </CellData>
      <Points>
        <DataArray type="Float32" Name="Points" NumberOfComponents="3" format="ascii" RangeMin="2.5330862087033426" RangeMax="4.415217469119645">
          -2.170166015625 -2.283679962158203 0 -2.691119909286499 -1.8072350025177002 0
          -2.74910306930542 -2.283679962158203 0 -2.690108060836792 -1.0087660551071167 0
          -2.8477039337158203 -1.4020040035247803 0 -2.6877200603485107 -0.8177986741065979 0
          -2.706774950027466 -0.7134789824485779 0 -2.7652220726013184 -0.7408525943756104 0
          -2.841264009475708 -0.9035742282867432 0 -2.779505968093872 -0.6740062832832336 0
          -2.8342409133911133 -0.7870715260505676 0 -2.789099931716919 -0.6153690218925476 0
          -2.9563119411468506 -1.1200250387191772 0 -3.0674641132354736 -1.6710790395736694 0
          -2.8320600986480713 -0.7043485045433044 0 -2.8313260078430176 -0.644936203956604 0
          -2.9055979251861572 -0.8061913251876831 0 -2.889085054397583 -0.7251037955284119 0
          -2.878045082092285 -0.6667217016220093 0 -2.9278368949890137 -0.6800634860992432 0
          -2.948848009109497 -0.735641598701477 0 -3.0256359577178955 -0.9197046160697937 0
          -2.988478899002075 -0.8006740808486938 0 -3.1323978900909424 -1.3007270097732544 0
          -2.9791901111602783 -0.6845563054084778 0 -3.0095319747924805 -0.735641598701477 0
          -3.282470941543579 -2.283679962158203 0 -3.0527820587158203 -0.8061913251876831 0
          -3.030543088912964 -0.6800634860992432 0 -3.156229019165039 -1.0495460033416748 0
          -3.0692949295043945 -0.7251037955284119 0 -3.0803349018096924 -0.6667217016220093 0
          -3.1287789344787598 -0.7726597189903259 0 -3.1263198852539062 -0.7043485045433044 0
          -3.12705397605896 -0.644936203956604 0 -3.1992249488830566 -0.8433429002761841 0
          -3.176959991455078 -0.7415673136711121 0 -3.3836259841918945 -1.561750054359436 0
          -3.1788740158081055 -0.6740062832832336 0 -3.1692800521850586 -0.6153690218925476 0
          -3.2516050338745117 -0.7134789824485779 0 -3.2253611087799072 -0.6349989771842957 0
          -3.20573091506958 -0.5789185166358948 0 -3.417664051055908 -1.20107102394104 0
          -3.235297918319702 -0.5366920828819275 0 -3.2887110710144043 -0.6606734991073608 0
          -3.2643680572509766 -0.5885120034217834 0 -3.2570838928222656 -0.4899730086326599 0
          -3.3560099601745605 -0.7656483054161072 0 -3.431668996810913 -0.9636631011962891 0
          -3.294711112976074 -0.5359575748443604 0 -3.270426034927368 -0.4401806890964508 0
          -3.3462131023406982 -0.6007289290428162 0 -3.2749180793762207 -0.38882800936698914 0
          -3.3154659271240234 -0.47893279790878296 0 -3.270426034927368 -0.3374752998352051 0
          -3.2570838928222656 -0.28768301010131836 0 -3.3260040283203125 -0.4191702902317047 0
          -3.3774330615997314 -0.5337768197059631 0 -3.3260040283203125 -0.35848569869995117 0
          -3.3154659271240234 -0.2987231910228729 0 -3.294711112976074 -0.24169839918613434 0
          -3.384929895401001 -0.4598917067050934 0 -3.462165117263794 -0.614043116569519 0
          -3.402992010116577 -0.38882800936698914 0 -3.53951096534729 -0.7811691761016846 0
          -3.778749942779541 -2.283679962158203 0 -3.3965530395507812 -0.31523561477661133 0
          -3.3774330615997314 -0.24387919902801514 0 -3.778749942779541 -1.7314280271530151 0
          -3.5027570724487305 -0.47875070571899414 0 -3.6378090381622314 -0.7895874977111816 0
          -3.5936028957366943 -0.6207522749900818 0 -3.501086950302124 -0.3039725124835968 0
          -3.778749942779541 -1.111603021621704 0 -3.778749942779541 -0.4253365099430084 0
          -2.7526490688323975 -0.5789185166358948 0 -2.7330191135406494 -0.6349989771842957 0
          -2.657727003097534 -0.6464416980743408 0 -2.5426599979400635 -0.6944894194602966 0
          -2.4337658882141113 -0.876357913017273 0 -2.4568591117858887 -1.145993947982788 0
          -2.194478988647461 -1.3969999551773071 0 -1.8212720155715942 -1.7605379819869995 0
          -1.546241044998169 -2.283679962158203 0 -3.235297918319702 -0.24096380174160004 0
          -3.2643680572509766 -0.18914400041103363 0 -3.3462131023406982 -0.1769271045923233 0
          -3.435275077819824 -0.1454842984676361 0 -3.613848924636841 -0.13029329478740692 0
          -3.778749942779541 0.2763518989086151 0
          <InformationKey name="L2_NORM_RANGE" location="vtkDataArray" length="2">
            <Value index="0">
              2.5330862087
            </Value>
            <Value index="1">
              4.4152174691
            </Value>
          </InformationKey>
        </DataArray>
      </Points>
      <Cells>
        <DataArray type="Int64" Name="connectivity" format="ascii" RangeMin="0" RangeMax="90">
          76 11 77 77 11 9
          9 14 7 77 9 6
          6 9 7 6 7 5
          10 16 8 16 21 8
          78 77 6 78 6 79
          7 14 10 7 10 5
          10 8 5 6 5 79
          5 8 3 3 8 12
          5 3 80 79 5 80
          8 21 12 12 23 4
          3 12 4 80 3 81
          81 3 4 4 23 13
          4 13 1 82 81 1
          1 13 26 4 1 81
          83 82 1 26 2 1
          1 2 0 0 84 83
          0 83 1 19 24 20
          34 39 38 28 31 30
          15 18 14 42 44 46
          24 28 25 11 15 9
          39 42 41 31 34 33
          18 19 17 17 19 20
          41 42 46 30 31 33
          38 39 41 14 18 17
          33 34 38 25 28 30
          20 24 25 9 15 14
          41 46 45 17 20 16
          30 33 32 38 41 40
          33 38 36 25 30 27
          20 25 22 14 17 10
          32 33 36 32 36 35
          27 30 32 27 32 35
          10 17 16 16 20 22
          36 38 40 36 40 35
          40 41 45 40 45 48
          22 25 27 22 27 21
          40 48 35 21 27 35
          22 21 16 21 35 29
          29 35 49 21 29 12
          35 48 49 12 29 23
          23 29 43 29 49 43
          43 49 74 23 43 37
          37 43 74 23 37 13
          13 37 26 66 26 69
          37 74 69 37 69 26
          47 51 54 56 85 61
          53 55 59 51 53 57
          55 56 60 44 47 50
          60 56 61 59 55 60
          54 51 57 50 47 54
          57 53 59 61 85 86
          46 44 50 61 86 87
          60 61 68 59 60 67
          50 54 58 57 59 64
          54 57 62 46 50 52
          64 59 67 64 67 73
          52 50 58 52 58 63
          62 57 64 62 64 70
          67 60 68 67 68 73
          45 46 52 45 52 48
          68 61 87 68 87 88
          58 54 62 58 70 63
          48 52 63 68 88 73
          64 73 70 70 73 75
          62 70 58 63 70 72
          48 63 65 65 63 72
          65 72 71 48 65 49
          73 88 89 72 70 75
          49 65 71 71 72 75
          73 89 75 75 89 90
          49 71 74 74 71 75
        </DataArray>
        <DataArray type="Int64" Name="offsets" format="ascii" RangeMin="3" RangeMax="426">
          3 6 9 12 15 18
          21 24 27 30 33 36
          39 42 45 48 51 54
          57 60 63 66 69 72
          75 78 81 84 87 90
          93 96 99 102 105 108
          111 114 117 120 123 126
          129 132 135 138 141 144
          147 150 153 156 159 162
          165 168 171 174 177 180
          183 186 189 192 195 198
          201 204 207 210 213 216
          219 222 225 228 231 234
          237 240 243 246 249 252
          255 258 261 264 267 270
          273 276 279 282 285 288
          291 294 297 300 303 306
          309 312 315 318 321 324
          327 330 333 336 339 342
          345 348 351 354 357 360
          363 366 369 372 375 378
          381 384 387 390 393 396
          399 402 405 408 411 414
          417 420 423 426
        </DataArray>
        <DataArray type="UInt8" Name="types" format="ascii" RangeMin="5" RangeMax="5">
          5 5 5 5 5 5
          5 5 5 5 5 5
          5 5 5 5 5 5
          5 5 5 5 5 5
          5 5 5 5 5 5
          5 5 5 5 5 5
          5 5 5 5 5 5
          5 5 5 5 5 5
          5 5 5 5 5 5
          5 5 5 5 5 5
          5 5 5 5 5 5
          5 5 5 5 5 5
          5 5 5 5 5 5
          5 5 5 5 5 5
          5 5 5 5 5 5
          5 5 5 5 5 5
          5 5 5 5 5 5
          5 5 5 5 5 5
          5 5 5 5 5 5
          5 5 5 5 5 5
          5 5 5 5 5 5
          5 5 5 5 5 5
          5 5 5 5 5 5
          5 5 5 5
        </DataArray>
      </Cells>
    </Piece>
  </UnstructuredGrid>
</VTKFile>
