<?xml version="1.0"?>
<VTKFile type="UnstructuredGrid" version="0.1" byte_order="LittleEndian" header_type="UInt32" compressor="vtkZLibDataCompressor">
  <UnstructuredGrid>
    <Piece NumberOfPoints="90" NumberOfCells="138">
      <PointData>
        <DataArray type="Float64" Name="ale_BC" NumberOfComponents="3" format="ascii" RangeMin="0" RangeMax="1">
          0 0 0 0 0 0
          0 0 0 0 0 0
          0 0 0 0 0 0
          0 0 0 0 0 0
          0 0 0 0 0 0
          0 0 0 0 0 0
          0 0 0 0 0 0
          0 0 0 0 0 0
          0 0 0 0 0 0
          0 0 0 0 0 0
          0 0 0 0 0 0
          0 0 0 0 0 0
          0 0 0 0 0 0
          0 0 0 0 0 0
          0 0 0 0 0 0
          0 0 0 0 0 0
          0 0 0 0 0 0
          0 0 0 0 0 0
          0 0 0 0 0 0
          0 0 0 0 0 0
          0 0 0 0 0 0
          0 0 0 0 0 0
          0 0 0 0 0 0
          0 0 0 0 0 0
          0 0 0 0 0 0
          0 0 0 0 0 0
          0 0 0 0 0 0
          0 0 0 0 0 0
          0 0 0 0 0 0
          0 0 0 0 0 0
          0 0 0 0 0 0
          0 0 0 0 0 0
          0 0 0 0 1 0
          0 1 0 0 1 0
          0 1 0 0 1 0
          0 0 0 0 1 0
          0 0 0 0 1 0
          0 0 0 0 0 0
          0 0 0 0 0 0
          0 0 0 0 0 0
          0 0 0 0 0 0
          0 0 0 0 0 0
          0 0 0 0 0 0
          0 0 0 0 1 0
          0 0 0 0 0 0
          <InformationKey name="L2_NORM_RANGE" location="vtkDataArray" length="2">
            <Value index="0">
              0
            </Value>
            <Value index="1">
              1
            </Value>
          </InformationKey>
        </DataArray>
        <DataArray type="Float64" Name="ale_FIXNO" NumberOfComponents="3" format="ascii" RangeMin="1.4142135623730951" RangeMax="1.4142135623730951">
          1 1 0 1 1 0
          1 1 0 -1 -1 0
          1 1 0 1 1 0
          -1 -1 0 -1 -1 0
          1 1 0 -1 -1 0
          1 1 0 -1 -1 0
          -1 -1 0 1 1 0
          1 1 0 -1 -1 0
          -1 -1 0 -1 -1 0
          -1 -1 0 1 1 0
          -1 -1 0 1 1 0
          -1 -1 0 -1 -1 0
          -1 -1 0 -1 -1 0
          -1 -1 0 -1 -1 0
          -1 -1 0 -1 -1 0
          -1 -1 0 1 1 0
          -1 -1 0 1 1 0
          -1 -1 0 -1 -1 0
          -1 -1 0 1 1 0
          -1 -1 0 -1 -1 0
          1 1 0 -1 -1 0
          -1 -1 0 -1 -1 0
          -1 -1 0 -1 -1 0
          -1 -1 0 -1 -1 0
          -1 -1 0 -1 -1 0
          -1 -1 0 -1 -1 0
          1 1 0 -1 -1 0
          -1 -1 0 -1 -1 0
          -1 -1 0 -1 -1 0
          -1 -1 0 -1 -1 0
          -1 -1 0 -1 -1 0
          -1 -1 0 -1 -1 0
          -1 -1 0 1 1 0
          1 1 0 1 1 0
          1 1 0 1 1 0
          -1 -1 0 1 1 0
          1 1 0 1 1 0
          -1 -1 0 -1 -1 0
          -1 -1 0 -1 -1 0
          -1 -1 0 -1 -1 0
          -1 -1 0 -1 -1 0
          -1 -1 0 -1 -1 0
          -1 -1 0 1 1 0
          1 1 0 1 1 0
          -1 -1 0 -1 -1 0
          <InformationKey name="L2_NORM_RANGE" location="vtkDataArray" length="2">
            <Value index="0">
              1.4142135624
            </Value>
            <Value index="1">
              1.4142135624
            </Value>
          </InformationKey>
        </DataArray>
        <DataArray type="Float64" Name="Density" format="ascii" RangeMin="0.9929494670876948" RangeMax="1.0116599975322675">
          0.9999999999999648 1.0000007180528883 0.9999999999999648 0.9999985624645237 0.9999970843154603 0.9999999999999648
          0.9999903753808471 0.9999979724465577 0.9999898792806079 1.000000875336422 0.9999999999999646 1.0000080843017014
          0.9999717061984357 0.9999704152315916 0.9999999999999648 1.0000678705924513 0.9998770919527498 1.0000037512376359
          0.9998923938386014 1.0001237687961937 1.0003129561930881 0.9999999999999648 1.0002157804423917 1.0000845031627916
          1.0000078268268864 0.9995683437668147 1.00002859637307 0.9999110726381297 0.999605890784246 1.00115042623089
          1.0014170509257985 0.9999999999999648 1.0004394396415837 1.0000045216341167 0.9989562989297454 1.0006755571422186
          0.9994885911172104 1.000013544195221 0.9986452661073395 1.0003630096496905 1.000090570003562 0.9979699270299922
          0.9988725739900194 1.0034289994117405 1.0040884793346756 1.0033671450247699 0.9995951877787735 0.9974412223514009
          1.0021120585065257 1.0026017911544343 0.9972637882990691 1.0004408262075823 1.000389757293658 0.9986247238667396
          1.00498093467565 0.9959403541402895 1.0024377416723262 0.9959158420437654 1.0042548924269303 0.997263110204283
          0.9943016239866914 0.999322060074771 0.9934498480293799 1.0015042790920856 1.0067093397900362 1.0007264925738815
          0.9983637660061184 1.0034508186415858 0.9957872447477145 1.0062039659221007 1.0040477607384455 1.0089397114052958
          1.0014798793712538 0.9939420334649048 0.9929494670876948 0.9949216425410431 1.009044124943108 0.9963840857053057
          1.0067788400684066 0.9974060343372687 1.0064110452597042 1.0015690310248195 1.0050388713322098 1.0066597532066133
          1.002781034386532 1.0015329580009955 1.0043903211774419 1.0116599975322675 1.0068526060908676 1.0093212104153861
        </DataArray>
        <DataArray type="Float64" Name="Momentum" NumberOfComponents="3" format="ascii" RangeMin="0.000019006815820961466" RangeMax="1.6149962850757618">
          -0.00006774184743793183 0.0000502362512680246 0 0.0001159897719497989 0 0
          -0.00013354938665279957 0.0001891608325041219 0 -0.0002301966110992413 -0.0002847051343774647 0
          -0.000019006815820961466 0 0 0.00009688605883682347 0.00020748987954677286 0
          -0.0006781529213345595 0.0005870523451268801 0 0.0005721379748376352 -0.0005245858790973476 0
          0.0005759612433505737 0 0 -0.0005029428022669109 0.00005613288158970685 0
          -0.00029687320492827673 -0.0004186835838706647 0 -0.00014622804341610986 -0.0006259040934941898 0
          -0.0031863715868178932 -0.0007606325547672103 0 -0.00028138003976980477 0 0
          -0.000059425291998382885 -0.00018116663391831044 0 0.004596504154672855 -0.004985879568232103 0
          -0.005221512616122593 0.01066817061572599 0 0.0009912081630177793 0.0006030317361271919 0
          -0.00992689798877947 -0.002964038453194315 0 0.013265137466346439 0 0
          0.013058837546209446 -0.02342471627928972 0 0.00014869911909611266 -0.00006083317021830635 0
          0.011407366365670402 -0.003914048440862433 0 0.02291699153937419 0.040646382396444546 0
          0.0005877915485212264 0.0002952262367694439 0 -0.05654407417958474 0.014194140824325784 0
          0.002081241492624881 -0.0002835860323894102 0 -0.04152082975860697 -0.06308720953924139 0
          -0.05605825097034763 0.14502766549433904 0 0.06484454659598708 -0.01515285343852047 0
          0.0822516350376315 -0.08261891425177735 0 -0.00010540275710069975 -0.00011579998576627061 0
          0.0266211060401814 -0.00028864648552570665 0 -0.00006679176947764834 0 0
          -0.14071496401107814 0.07527320697613003 0 0.0029886339770815737 -0.21360244276871437 0
          -0.1929535905628791 -0.1109969879092143 0 -0.00021672993923974311 0 0
          -0.10452815071002027 0.2684075176257043 0 -0.1516223635536938 -0.29921921674956914 0
          0.0007836065774567263 0 0 -0.35070954185358383 0.1678655690607623 0
          -0.3894934799156695 -0.09368139573104232 0 0.21308031221659374 -0.04474895171699475 0
          0.29474115336963674 -0.1967098497532547 0 0.27663459596422635 -0.39952878401182335 0
          -0.3865768332552267 -0.12896140012978335 0 -0.5646588038752625 0.2590010544040721 0
          0.029133413680838355 -0.3544049519297932 0 0.13280103854863773 0.01047315677656506 0
          -0.5194066951856049 0.4659489686469857 0 -0.212501282354333 0.08836780584611728 0
          0.01697347023845833 0 0 -0.3894330636680724 0.32595977583082414 0
          0.4335851195724319 -0.30158476332745926 0 -0.5434762219615789 0.7065459731242621 0
          0.021257311401017193 0.0509595028968507 0 -0.3059436303484993 0.9269630267365979 0
          0.26634265562252074 0.03789154851272476 0 -0.20046442002781042 0.8240203094833776 0
          -0.35088904328219017 1.0537529354923498 0 -0.07520794797073056 0.7564590828599788 0
          -0.3474149160886053 1.1980701967502483 0 0.0708716975714057 0.7334181310627574 0
          0.4924434327159142 0.1179475872827394 0 0 1.5924682761061242 0
          0 1.5876791848322693 0 0 1.5978371520874726 0
          0 1.5828308564423685 0 0 1.6035629055322755 0
          0.2191555254091612 0.7562078299413999 0 0 1.6092787952040808 0
          0.06062821001872244 0 0 0 1.5793498880802772 0
          -0.2688733311637058 1.3474563690153896 0 -0.4695125651092607 0.8872155351166003 0
          0.8052082159675622 0.01683378869180808 0 -0.41225706404538887 0.7236854750138035 0
          0.608758942017854 -0.20738364824039754 0 -0.07455640093953639 0.62321870804407 0
          0.47851484471688305 -0.04554530866807468 0 0.2691248108824599 0.43415135804184596 0
          0.2959615221809438 0.06230885173143056 0 0.2820738129392855 0.10837507050947282 0
          0.264519010011942 0.13943193593227055 0 0.0870346409113683 0 0
          0.19698985573347502 0 0 0 1.6149962850757618 0
          0.3465464794184748 0.8262338086421205 0 0.6734065349414342 0.3661577764358501 0
          <InformationKey name="L2_NORM_RANGE" location="vtkDataArray" length="2">
            <Value index="0">
              1.9006815821e-05
            </Value>
            <Value index="1">
              1.6149962851
            </Value>
          </InformationKey>
        </DataArray>
        <DataArray type="Float64" Name="Energy" format="ascii" RangeMin="3681.4997384534704" RangeMax="3770.6737870415177">
          3722.840316893862 3722.8309200960466 3722.835340173385 3722.8209396755024 3722.815623813518 3722.833961643949
          3722.779908082312 3722.8191555167714 3722.77674561695 3722.832293011279 3722.8396238177475 3722.872974555413
          3722.6818263392024 3722.6759931696683 3722.844470970646 3723.183438666597 3722.187448563601 3722.846469889698
          3722.2657285689224 3723.4743370382294 3724.457773918901 3722.8396725185876 3723.960550215365 3723.2882327847783
          3722.867031505669 3720.5766566367924 3722.980068475529 3722.3381112489697 3720.8036824075994 3728.8570513097857
          3730.211429750737 3722.8439237852167 3725.1352526017963 3722.849580104056 3717.3840224190194 3726.2797665901553
          3720.1572026054628 3722.9024077738236 3715.8518456087513 3724.6197016354986 3723.306563881834 3712.2777987813456
          3716.9121011299662 3740.8396593465254 3744.3011764839152 3740.4448101917574 3720.930028554328 3709.586998573329
          3734.028158925141 3736.4600365802803 3708.0487625218693 3723.972391108284 3724.868732184299 3714.8268625368414
          3749.082764026398 3701.4055890569743 3733.5272984954236 3707.3202244945937 3744.0215441510163 3715.3763377230894
          3697.8689819761403 3726.46120955593 3692.092783417132 3738.5761873485267 3756.608379096 3707.0211628484785
          3697.166860768084 3717.98632575314 3687.445980695333 3730.771851808861 3751.4296371289515 3744.509057908852
          3730.6093522653355 3681.4997384534704 3687.8726072838854 3696.684013735956 3770.536013342698 3704.474251573194
          3758.4917761277306 3709.5265833077215 3756.39696084808 3731.2241725618014 3749.3088498641573 3757.7693775633834
          3737.398106939204 3730.833419521312 3745.9629027034125 3759.583452472095 3765.957866863098 3770.6737870415177
        </DataArray>
        <DataArray type="Float64" Name="ALEdispl" NumberOfComponents="3" format="ascii" RangeMin="0" RangeMax="0.037211270132493916">
          0 0 0 0 0 0
          0 0 0 0 0.0005925736497178467 0
          0 0 0 0 0 0
          0 0.0012261701685275987 0 0 0.001386662766475017 0
          0 0 0 0 0.0009246112475052205 0
          0 0 0 0 0.0021351694310089916 0
          0 0.0033713781085838498 0 0 0 0
          0 0 0 0 0.004672906565452477 0
          0 0.004371378721959559 0 0 0.0013504101261840832 0
          0 0.00657770827305619 0 0 0 0
          0 0.007139353945441993 0 0 0 0
          0 0.004358398016809602 0 0 0.0047544692120217065 0
          0 0.0005723153042216315 0 0 0.009094474894335682 0
          0 0.0011857800393152058 0 0 0.011938655162399224 0
          0 0.010044889228473323 0 0 0.007795727134167635 0
          0 0.012025002226338115 0 0 0 0
          0 0.003716255581682567 0 0 0 0
          0 0.01435557408691323 0 0 0.015431104414556866 0
          0 0.016786095987362897 0 0 0 0
          0 0.01536876067120276 0 0 0.020797912862807945 0
          0 0 0 0 0.02016289099602039 0
          0 0.02183950787045582 0 0 0.011886336352311717 0
          0 0.016975069540264592 0 0 0.021433410340549883 0
          0 0.026368249661068408 0 0 0.02612408675475854 0
          0 0.026554413928822417 0 0 0.006457916014148861 0
          0 0.030362174791465014 0 0 0.030239063381663225 0
          0 0 0 0 0.03091992897148317 0
          0 0.026360202343898412 0 0 0.030758683764388433 0
          0 0.03050930351632769 0 0 0.034110764622076836 0
          0 0.030482043146767078 0 0 0.03414265310362043 0
          0 0.03405605637000843 0 0 0.034157982911879485 0
          0 0.03396919573068259 0 0 0.034157437918038 0
          0 0.030431967157998275 0 0 0.03721127013249391 0
          0 0.037211270132493916 0 0 0.03721127013249391 0
          0 0.037211270132493916 0 0 0.037211270132493916 0
          0 0.03413910184868836 0 0 0.03721127013249391 0
          0 0 0 0 0.03721127013249391 0
          0 0.03388417612670354 0 0 0.02999062872510831 0
          0 0.0266755326222196 0 0 0.025978567472383238 0
          0 0.02155287635308854 0 0 0.020254784188770664 0
          0 0.016481766367025478 0 0 0.01155872581409332 0
          0 0.011027222539779903 0 0 0.009563987817247455 0
          0 0.005509506632640936 0 0 0 0
          0 0 0 0 0.03721127013249391 0
          0 0.03410095421550291 0 0 0.030870881520564702 0
          <InformationKey name="L2_NORM_RANGE" location="vtkDataArray" length="2">
            <Value index="0">
              0
            </Value>
            <Value index="1">
              0.037211270132
            </Value>
          </InformationKey>
        </DataArray>
        <DataArray type="Float64" Name="ALEveloc" NumberOfComponents="3" format="ascii" RangeMin="0" RangeMax="1.5987694324613346">
          0 0 0 0 0 0
          0 0 0 0 0.025459723204225092 0
          0 0 0 0 0 0
          0 0.052681979880231086 0 0 0.05957748919289428 0
          0 0 0 0 0.03972560447837134 0
          0 0 0 0 0.09173682078758566 0
          0 0.14485010175899415 0 0 0 0
          0 0 0 0 0.20076982459863674 0
          0 0.18781478443214972 0 0 0.05801990696211334 0
          0 0.2826089753229678 0 0 0 0
          0 0.30673988861045876 0 0 0 0
          0 0.18725707289659482 0 0 0.20427413567700736 0
          0 0.024589330352374893 0 0 0.390740988243081 0
          0 0.05094663185991319 0 0 0.5129402159716427 0
          0 0.4315752134706009 0 0 0.33494073708150773 0
          0 0.5166500878979909 0 0 0 0
          0 0.15966764386308002 0 0 0 0
          0 0.6167823069159153 0 0 0.6629920978045156 0
          0 0.7212088450461873 0 0 0 0
          0 0.6603135202976247 0 0 0.893575178317173 0
          0 0 0 0 0.866291682055164 0
          0 0.9383269498450579 0 0 0.5106923562771786 0
          0 0.7293280288001187 0 0 0.9208791090403778 0
          0 1.1329027844392945 0 0 1.1224124090836765 0
          0 1.14090126822235 0 0 0.27746214208925646 0
          0 1.3045004050333135 0 0 1.2992109656221484 0
          0 0 0 0 1.3284641216886572 0
          0 1.1325570342227902 0 0 1.3215362767826355 0
          0 1.3108217401317916 0 0 1.4655572787889937 0
          0 1.3096505077224712 0 0 1.4669273564390708 0
          0 1.4632067575410246 0 0 1.4675859963823679 0
          0 1.4594748200246817 0 0 1.4675625809092723 0
          0 1.3074990100751527 0 0 1.5987694324613342 0
          0 1.5987694324613346 0 0 1.5987694324613337 0
          0 1.5987694324613346 0 0 1.5987694324613342 0
          0 1.4667747779914113 0 0 1.5987694324613346 0
          0 0 0 0 1.5987694324613342 0
          0 1.4558219819592857 0 0 1.2885370559853677 0
          0 1.1461050912580477 0 0 1.1161602231285346 0
          0 0.9260119252109846 0 0 0.8702398414997976 0
          0 0.7081334275004922 0 0 0.49661668209592014 0
          0 0.47378082658225995 0 0 0.4109134496136331 0
          0 0.2367140589624092 0 0 0 0
          0 0 0 0 1.5987694324613337 0
          0 1.465135778042189 0 0 1.3263568148165894 0
          <InformationKey name="L2_NORM_RANGE" location="vtkDataArray" length="2">
            <Value index="0">
              0
            </Value>
            <Value index="1">
              1.5987694325
            </Value>
          </InformationKey>
        </DataArray>
      </PointData>
      <CellData>
        <DataArray type="UInt8" Name="vtkGhostType" format="ascii" RangeMin="0" RangeMax="0">
          0 0 0 0 0 0
          0 0 0 0 0 0
          0 0 0 0 0 0
          0 0 0 0 0 0
          0 0 0 0 0 0
          0 0 0 0 0 0
          0 0 0 0 0 0
          0 0 0 0 0 0
          0 0 0 0 0 0
          0 0 0 0 0 0
          0 0 0 0 0 0
          0 0 0 0 0 0
          0 0 0 0 0 0
          0 0 0 0 0 0
          0 0 0 0 0 0
          0 0 0 0 0 0
          0 0 0 0 0 0
          0 0 0 0 0 0
          0 0 0 0 0 0
          0 0 0 0 0 0
          0 0 0 0 0 0
          0 0 0 0 0 0
          0 0 0 0 0 0
        </DataArray>
      </CellData>
      <Points>
        <DataArray type="Float32" Name="Points" NumberOfComponents="3" format="ascii" RangeMin="0.4925037585854992" RangeMax="3.241639202700283">
          1.4129199981689453 -2.283679962158203 0 0.907881498336792 -2.283679962158203 0
          1.4129199981689453 -1.722815990447998 0 0.6326431035995483 -1.7119890451431274 0
          0.35740479826927185 -2.283679962158203 0 1.4129199981689453 -1.0868619680404663 0
          0.059433531016111374 -1.6774619817733765 0 0.3824875056743622 -1.0896049737930298 0
          -0.23853769898414612 -2.283679962158203 0 0.806702196598053 -0.7360177040100098 0
          1.4129199981689453 -0.385173499584198 0 0.2064553052186966 -0.44714221358299255 0
          -0.619378924369812 -1.3252979516983032 0 -0.878979504108429 -2.283679962158203 0
          1.4129199981689453 0.30109289288520813 0 -0.6569300293922424 -0.6375854015350342 0
          -1.2383860349655151 -1.5356910228729248 0 0.4232785999774933 0.2915497124195099 0
          -1.2108949422836304 -1.0468310117721558 0 -1.546241044998169 -2.283679962158203 0
          -1.110461950302124 -0.38141998648643494 0 1.4129199981689453 0.9209179282188416 0
          -0.6843001842498779 0.15095679461956024 0 -1.8212720155715942 -1.7605379819869995 0
          0.649957001209259 0.9192463755607605 0 -1.7890180349349976 -1.240535020828247 0
          0.09380452334880829 0.87192302942276 0 -1.7670819759368896 -0.7970244288444519 0
          -2.194478988647461 -1.3969999551773071 0 -1.3651809692382812 0.18890820443630219 0
          -1.7087509632110596 -0.20195959508419037 0 1.4129199981689453 1.4731700420379639 0
          -0.9438074827194214 0.680571973323822 0 0.9166414141654968 1.4731700420379639 0
          -2.171736001968384 -1.0346059799194336 0 -1.9640419483184814 -0.49340009689331055 0
          -2.1254830360412598 -0.7467296123504639 0 0.38327258825302124 1.4731700420379639 0
          -2.4568591117858887 -1.145993947982788 0 -2.260205030441284 -0.5436676740646362 0
          -0.19566360116004944 1.4731700420379639 0 -2.4337658882141113 -0.876357913017273 0
          -2.3592519760131836 -0.6779099106788635 0 -1.8855739831924438 0.1918828934431076 0
          -2.119029998779297 -0.06761106103658676 0 -2.2871220111846924 -0.25536561012268066 0
          -2.4737329483032227 -0.5579921007156372 0 -2.5426599979400635 -0.6944894194602966 0
          -2.452078104019165 -0.39634451270103455 0 -1.733451008796692 0.7286168932914734 0
          -2.6121668815612793 -0.6007289290428162 0 -2.556238889694214 -0.4625073969364166 0
          -0.8195893168449402 1.4731700420379639 0 -2.589745044708252 -0.5272238254547119 0
          -2.4644439220428467 -0.2509022057056427 0 -2.657727003097534 -0.6464416980743408 0
          -2.5553879737854004 -0.38882800936698914 0 -2.6636691093444824 -0.5359575748443604 0
          -2.5618269443511963 -0.31523561477661133 0 -2.642914056777954 -0.47893279790878296 0
          -2.694011926651001 -0.5885120034217834 0 -2.632375955581665 -0.4191702902317047 0
          -2.7330191135406494 -0.6349989771842957 0 -2.632375955581665 -0.35848569869995117 0
          -2.580946922302246 -0.24387919902801514 0 -2.701296091079712 -0.4899730086326599 0
          -2.7230820655822754 -0.536692202091217 0 -2.6879539489746094 -0.4401806890964508 0
          -2.7526490688323975 -0.5789185166358948 0 -2.683461904525757 -0.38882800936698914 0
          -2.642914056777954 -0.2987231910228729 0 -2.6879539489746094 -0.3374752998352051 0
          -1.4868500232696533 1.4731700420379639 0 -2.789099931716919 -0.6153690218925476 0
          -2.779505968093872 -0.6740062832832336 0 -2.706774950027466 -0.7134789824485779 0
          -2.5443649291992188 -0.10779819637537003 0 -2.6877200603485107 -0.8177986741065979 0
          -2.3709781169891357 -0.062260668724775314 0 -2.690108060836792 -1.0087660551071167 0
          -2.2300779819488525 0.13570579886436462 0 -2.8477039337158203 -1.4020040035247803 0
          -2.059462070465088 0.44021978974342346 0 -2.265990972518921 0.6523954272270203 0
          -2.691119909286499 -1.8072350025177002 0 -2.170166015625 -2.283679962158203 0
          -2.1272919178009033 1.4731700420379639 0 -2.701296091079712 -0.28768301010131836 0
          -2.6636691093444824 -0.24169839918613434 0 -2.6271650791168213 -0.17486029863357544 0
          <InformationKey name="L2_NORM_RANGE" location="vtkDataArray" length="2">
            <Value index="0">
              0.49250375859
            </Value>
            <Value index="1">
              3.2416392027
            </Value>
          </InformationKey>
        </DataArray>
      </Points>
      <Cells>
        <DataArray type="Int64" Name="connectivity" format="ascii" RangeMin="0" RangeMax="89">
          69 67 61 68 73 62
          65 66 57 67 65 59
          66 68 60 61 67 59
          59 65 57 57 66 60
          62 73 74 63 69 61
          60 68 62 61 59 51
          59 57 53 63 61 56
          70 63 58 57 60 50
          62 74 75 60 62 55
          51 59 53 51 53 46
          64 70 58 64 58 54
          53 57 50 53 50 46
          58 63 56 58 48 54
          50 60 55 50 55 47
          56 61 51 56 51 48
          55 62 75 55 75 47
          64 54 76 75 77 47
          50 47 46 58 56 48
          48 51 46 48 46 39
          54 48 45 45 48 39
          54 45 78 78 76 54
          46 47 42 42 47 41
          46 42 39 39 42 36
          77 79 41 47 77 41
          78 45 44 42 41 36
          80 78 44 80 44 43
          39 36 35 44 45 35
          41 79 38 38 79 81
          41 38 34 45 39 35
          35 36 27 34 38 28
          41 34 36 36 34 27
          43 44 30 80 43 82
          82 43 49 83 82 49
          35 27 30 28 38 84
          34 28 25 35 30 44
          43 30 29 81 84 38
          25 28 23 34 25 27
          27 25 18 31 33 21
          49 43 29 49 29 32
          1 0 2 29 30 20
          23 28 84 25 23 16
          33 37 24 4 1 3
          37 40 26 8 4 6
          30 27 20 18 25 16
          18 16 12 27 18 20
          24 37 26 24 26 17
          33 24 21 14 21 24
          85 19 23 23 19 16
          40 52 32 29 20 22
          3 1 2 4 3 6
          6 3 7 85 23 84
          13 8 12 2 5 3
          72 86 49 32 29 22
          32 22 26 49 32 72
          12 16 13 18 12 15
          19 13 16 52 72 32
          26 40 32 17 26 22
          24 17 14 20 18 15
          20 15 22 7 3 5
          6 7 12 8 6 12
          83 49 86 5 10 9
          10 14 17 15 12 7
          9 10 17 5 9 7
          7 9 11 11 9 17
          7 11 15 22 15 11
          11 17 22 87 71 70
          71 69 63 88 87 70
          70 71 63 88 70 64
          89 88 64 89 64 76
        </DataArray>
        <DataArray type="Int64" Name="offsets" format="ascii" RangeMin="3" RangeMax="414">
          3 6 9 12 15 18
          21 24 27 30 33 36
          39 42 45 48 51 54
          57 60 63 66 69 72
          75 78 81 84 87 90
          93 96 99 102 105 108
          111 114 117 120 123 126
          129 132 135 138 141 144
          147 150 153 156 159 162
          165 168 171 174 177 180
          183 186 189 192 195 198
          201 204 207 210 213 216
          219 222 225 228 231 234
          237 240 243 246 249 252
          255 258 261 264 267 270
          273 276 279 282 285 288
          291 294 297 300 303 306
          309 312 315 318 321 324
          327 330 333 336 339 342
          345 348 351 354 357 360
          363 366 369 372 375 378
          381 384 387 390 393 396
          399 402 405 408 411 414
        </DataArray>
        <DataArray type="UInt8" Name="types" format="ascii" RangeMin="5" RangeMax="5">
          5 5 5 5 5 5
          5 5 5 5 5 5
          5 5 5 5 5 5
          5 5 5 5 5 5
          5 5 5 5 5 5
          5 5 5 5 5 5
          5 5 5 5 5 5
          5 5 5 5 5 5
          5 5 5 5 5 5
          5 5 5 5 5 5
          5 5 5 5 5 5
          5 5 5 5 5 5
          5 5 5 5 5 5
          5 5 5 5 5 5
          5 5 5 5 5 5
          5 5 5 5 5 5
          5 5 5 5 5 5
          5 5 5 5 5 5
          5 5 5 5 5 5
          5 5 5 5 5 5
          5 5 5 5 5 5
          5 5 5 5 5 5
          5 5 5 5 5 5
        </DataArray>
      </Cells>
    </Piece>
  </UnstructuredGrid>
</VTKFile>
