<?xml version="1.0"?>
<VTKFile type="UnstructuredGrid" version="0.1" byte_order="LittleEndian" header_type="UInt32" compressor="vtkZLibDataCompressor">
  <UnstructuredGrid>
    <Piece NumberOfPoints="88" NumberOfCells="140">
      <PointData>
        <DataArray type="Float64" Name="ale_BC" NumberOfComponents="3" format="ascii" RangeMin="0" RangeMax="1">
          0 0 0 0 0 0
          0 0 0 0 0 0
          0 0 0 0 0 0
          0 0 0 0 1 0
          0 0 0 0 0 0
          0 0 0 0 1 0
          0 1 0 0 0 0
          0 0 0 0 0 0
          0 0 0 0 1 0
          0 0 0 0 0 0
          0 0 0 0 1 0
          0 0 0 0 1 0
          0 0 0 0 0 0
          0 0 0 0 1 0
          0 0 0 0 0 0
          0 0 0 0 1 0
          0 1 0 0 0 0
          0 0 0 0 0 0
          0 1 0 0 0 0
          0 0 0 0 1 0
          0 0 0 0 0 0
          0 1 0 0 1 0
          0 1 0 0 0 0
          0 0 0 0 0 0
          0 0 0 0 0 0
          0 0 0 0 0 0
          0 0 0 0 0 0
          0 0 0 0 0 0
          0 0 0 0 0 0
          0 0 0 0 0 0
          0 0 0 0 0 0
          0 0 0 0 0 0
          0 0 0 0 0 0
          0 0 0 0 0 0
          0 0 0 0 0 0
          0 0 0 0 0 0
          0 0 0 0 0 0
          0 0 0 0 0 0
          0 0 0 0 0 0
          0 0 0 0 0 0
          0 0 0 0 1 0
          0 0 0 0 1 0
          0 0 0 0 0 0
          0 0 0 0 0 0
          <InformationKey name="L2_NORM_RANGE" location="vtkDataArray" length="2">
            <Value index="0">
              0
            </Value>
            <Value index="1">
              1
            </Value>
          </InformationKey>
        </DataArray>
        <DataArray type="Float64" Name="ale_FIXNO" NumberOfComponents="3" format="ascii" RangeMin="1.4142135623730951" RangeMax="1.4142135623730951">
          -1 -1 0 -1 -1 0
          -1 -1 0 -1 -1 0
          -1 -1 0 -1 -1 0
          -1 -1 0 1 1 0
          -1 -1 0 -1 -1 0
          -1 -1 0 1 1 0
          1 1 0 -1 -1 0
          -1 -1 0 -1 -1 0
          -1 -1 0 1 1 0
          -1 -1 0 -1 -1 0
          -1 -1 0 1 1 0
          -1 -1 0 1 1 0
          -1 -1 0 -1 -1 0
          -1 -1 0 1 1 0
          -1 -1 0 -1 -1 0
          -1 -1 0 1 1 0
          1 1 0 -1 -1 0
          -1 -1 0 -1 -1 0
          1 1 0 -1 -1 0
          -1 -1 0 1 1 0
          -1 -1 0 -1 -1 0
          1 1 0 1 1 0
          1 1 0 -1 -1 0
          -1 -1 0 -1 -1 0
          -1 -1 0 -1 -1 0
          -1 -1 0 -1 -1 0
          -1 -1 0 1 1 0
          -1 -1 0 -1 -1 0
          -1 -1 0 -1 -1 0
          -1 -1 0 -1 -1 0
          -1 -1 0 -1 -1 0
          -1 -1 0 -1 -1 0
          -1 -1 0 -1 -1 0
          -1 -1 0 1 1 0
          -1 -1 0 -1 -1 0
          1 1 0 1 1 0
          1 1 0 1 1 0
          -1 -1 0 -1 -1 0
          -1 -1 0 -1 -1 0
          -1 -1 0 -1 -1 0
          1 1 0 1 1 0
          -1 -1 0 1 1 0
          -1 -1 0 -1 -1 0
          -1 -1 0 1 1 0
          <InformationKey name="L2_NORM_RANGE" location="vtkDataArray" length="2">
            <Value index="0">
              1.4142135624
            </Value>
            <Value index="1">
              1.4142135624
            </Value>
          </InformationKey>
        </DataArray>
        <DataArray type="Float64" Name="Density" format="ascii" RangeMin="0.9999999999999954" RangeMax="1.0292656894737613">
          1.0041043013643387 1.0052497145413088 1.0025673526391725 1.008382840902343 1.0074785856841066 1.0094535192255056
          1.0080693101032827 1.0101495889807597 1.0056697360413995 1.0121183262869369 1.0111371616613771 1.0135443177473311
          1.0167421092734452 1.0144539966054997 1.0121688343831892 1.0142570723138178 1.0033184160409514 1.020101381707501
          1.0176142166470719 1.0100718138956415 1.0173094844974515 1.0227501546559972 1.0201024410468098 1.024805695175532
          1.01922272061849 1.0157141373919434 1.0219638402800553 1.0262849619402732 1.007082566939147 1.0205277418766998
          1.0237117724280214 1.0276151069829935 1.0286499375954912 1.0247786699253612 1.0174694579033998 1.0218006244573536
          1.0292656894737613 1.0255470845266172 1.0227891559060995 1.0292643232089047 1.012868897284091 1.0257655228277334
          1.028687522894519 1.0275704403602985 1.0258917751183856 1.0250446641395807 1.0235831671073934 1.0187334181314178
          1.024054692087316 1.02249509857067 1.0234035893668043 1.0049074809642367 1.0234056989327411 1.001590068115403
          1.0224121591776747 1.0203736773793615 1.0095237718493693 1.0206262472020728 1.013967500141439 1.0209692435329698
          1.0190709491561187 1.0171568435488532 1.0208413649081152 1.0203006960823495 1.0138798280534698 1.0198466408410616
          1.0160467501076302 1.004978832501328 1.011298407742891 1.0146528515583577 0.9999999999999954 1.0092357019597489
          0.9999999999999954 0.9999999999999954 1.006475900404026 1.004161833840269 1.002147006306172 1.0024972071465195
          1.0017078854248609 1.0010016439931362 1.0004302037173958 1.0065734073528185 1.0047475689036807 1.0233804592254536
          1.020236365604848 1.0185527286479317 1.0162108007894144 0.9999999999999954
        </DataArray>
        <DataArray type="Float64" Name="Momentum" NumberOfComponents="3" format="ascii" RangeMin="0.016347366059979926" RangeMax="1.6466380256282243">
          0.28339616821869584 0.005181331949695775 0 0.4352590226174481 -0.1031157115599575 0
          0.14747780931648685 0.045450517495575354 0 0.6769760410245463 0.06718983909041795 0
          0.5458316638058153 0.09692264712722448 0 0.6422773631496823 0.35145234932171693 0
          0.36251487340907607 0.7818561592514673 0 0 1.614779814503906 0
          0.3369704152740508 0.12311714921016603 0 0.7507391642460174 0.46603040790738987 0
          0.4658873141155776 0.9093193383623371 0 0 1.6215562430391897 0
          0 1.6278936333360525 0 0.5160097844825517 1.0600740334726075 0
          0.7948293302201982 0.4618545606525759 0 0.7929224184313589 0.711407123418151 0
          0.13403169032282916 0.06486487769724861 0 0 1.6340217833794402 0
          0.5127711278547363 1.2103527252287745 0 0.5354616915342632 0.3660550206986292 0
          0.7373057479745376 0.8990020249416469 0 0 1.6387902945788773 0
          0.44524885002468995 1.3621716533087276 0 0 1.6423757374608448 0
          0.603278081520653 1.1720391476858651 0 0.6460819804956226 0.7618194410039721 0
          0.3557140752027591 1.4887793862057899 0 0 1.6447556748121623 0
          0.26827379989225525 0.20495203040649937 0 0.45344036197040516 1.2796003589655627 0
          0.23493041041872076 1.5606710963221155 0 0 1.64620949047554 0
          0 1.6466380256282243 0 0.10392510395635386 1.589556580318746 0
          0.44158381262853574 1.029503290420877 0 0.276562035880414 1.3596104224175987 0
          0 1.645999304394798 0 -0.02475032969093038 1.5603541019564848 0
          0.08299772431781827 1.3727054833393355 0 0 1.6440713555291253 0
          0.3660198833777387 0.5211654588170815 0 -0.15323907419489965 1.4781749492948255 0
          0 1.6410014056343067 0 0 1.6369133014979527 0
          0 1.631999587682207 0 -0.24986398171584037 1.3681788002936146 0
          -0.11408465920918404 1.2379982151973727 0 0.16094560716175765 0.9094281742687423 0
          -0.2889470734376712 1.2200600950496234 0 -0.2946590843855263 1.0509995150625333 0
          -0.2654007744402763 1.1046000226195591 0 0.19329843969309415 0.08732475828475927 0
          -0.38052145184269015 0.9284603796379775 0 0.0720367904639458 0 0
          -0.3858461821133288 0.6461238308993975 0 -0.12199952700731191 0.8500116555371774 0
          0.2769489950975134 0.21973401100533352 0 -0.3514440827252911 0.42514420868745195 0
          0.2573453012641323 0.47489062320967035 0 -0.30677665496622136 0.5131343736883157 0
          -0.19556710137374295 0.10335899540829646 0 0.10903246989280048 0.5648177718566578 0
          -0.0020055456973018457 0.3165306901049801 0 -0.010870533144386728 0.18637420133313812 0
          0.29019699921868836 0.33764345952413644 0 0.1658917849553786 -0.06101860122698426 0
          0.34320653944269586 0.2694829146482382 0 0.21179009727001671 0 0
          0.3443349845941655 0.05795284690989571 0 0.26286521314275624 0.1109954672549512 0
          0.9999999999999957 0 0 0.46690635602215236 0 0
          0.9999999999999954 0 0 0.9999999999999954 0 0
          0.4741129226395687 0.09053662430038235 0 0.3637948108700507 -0.23790543488887655 0
          0.18517364563851998 -0.2616896502424242 0 0.1729228844308108 -0.09592844896108907 0
          0.10433587235942778 -0.013743465053749045 0 0.05020442422832847 0.009102728661218714 0
          0.016347366059979926 0 0 0 1.607519896183486 0
          0.23283101026636147 0.693136866417805 0 0 1.6260291034430399 0
          -0.24394997961100046 0.8981390729727502 0 -0.19958166961776583 0.18878981180324347 0
          0.1713991564959068 -0.32378654996793776 0 0.9999999999999954 0 0
          <InformationKey name="L2_NORM_RANGE" location="vtkDataArray" length="2">
            <Value index="0">
              0.01634736606
            </Value>
            <Value index="1">
              1.6466380256
            </Value>
          </InformationKey>
        </DataArray>
        <DataArray type="Float64" Name="Energy" format="ascii" RangeMin="3723.3299999999836" RangeMax="3871.2612411443433">
          3744.297390299569 3750.368705008883 3736.3302240382377 3766.8704760756045 3762.0653380663607 3771.8849561150278
          3768.9167291543918 3763.0802159387654 3752.62789477218 3785.2629951070976 3785.0277437775953 3781.9213510913896
          3800.07747500202 3801.661782980382 3786.9163786128147 3797.64165148633 3740.2258576897743 3819.2906410366295
          3817.8791357854566 3775.787695334215 3812.749069847104 3835.075324541018 3830.8070371079634 3847.456987032292
          3823.6440861484966 3805.4877423905277 3840.280024791992 3856.3410787981443 3760.086477819741 3830.44277110109
          3848.915144408511 3863.767666214565 3868.9753615504337 3854.6174549646375 3814.9807528641827 3837.6244833191354
          3871.2612411443433 3858.943930798305 3842.699840284619 3869.8275291636205 3790.650449467886 3860.241561204077
          3865.2644593297564 3857.5464345544337 3846.9585927587646 3856.963426008095 3846.276425870296 3821.324828637428
          3852.389673478649 3844.2392119982496 3845.625053452686 3748.594626593435 3844.504488028007 3731.2148544131583
          3840.6138719889323 3830.2174719087684 3772.7810336333187 3830.3498609971266 3796.6619776443654 3833.1070955903765
          3822.4561511447837 3813.148557960242 3832.1003200023915 3829.41292524851 3795.4274468695685 3828.3888926403347
          3807.6528186721475 3748.974081841939 3782.387414215449 3800.129008585234 3723.329999999984 3771.4935286855725
          3723.3299999999845 3723.3299999999836 3755.8455697438394 3744.635601462152 3733.9637303200766 3735.9114545443704
          3731.792243336088 3728.074391243626 3725.0915125591737 3743.9416540904444 3751.531887892341 3832.6839541901045
          3832.6492801612517 3819.462476346866 3808.039181478671 3723.329999999984
        </DataArray>
        <DataArray type="Float64" Name="ALEdispl" NumberOfComponents="3" format="ascii" RangeMin="0" RangeMax="0.02513851564592391">
          0 0.011134453089472229 0 0 0.014560301690526231 0
          0 0.007449571201421481 0 0 0.018020972995529363 0
          0 0.014277416043726633 0 0 0.020855190788838785 0
          0 0.023037304774468918 0 0 0.025138515645923905 0
          0 0.010571013703662993 0 0 0.020399932468818768 0
          0 0.023009967454571355 0 0 0.025138515645923905 0
          0 0.025138515645923905 0 0 0.022959807895067876 0
          0 0.017699289354747384 0 0 0.020297770412468826 0
          0 0.006461065599890809 0 0 0.025138515645923905 0
          0 0.022895296145887943 0 0 0.01349783343722223 0
          0 0.020112144744371625 0 0 0.025138515645923905 0
          0 0.022818296850202723 0 0 0.025138515645923905 0
          0 0.02039761841266073 0 0 0.016954456191463522 0
          0 0.022738513440514474 0 0 0.02513851564592391 0
          0 0.008900502915863988 0 0 0.01976750148002637 0
          0 0.022641349913619265 0 0 0.025138515645923905 0
          0 0.02513851564592391 0 0 0.022525326729900343 0
          0 0.01651660920367533 0 0 0.019534341414363596 0
          0 0.02513851564592391 0 0 0.022388685817750845 0
          0 0.019520822269207483 0 0 0.02513851564592391 0
          0 0.011930716389731677 0 0 0.02223662056636342 0
          0 0.0251385156459239 0 0 0.025138515645923905 0
          0 0.02513851564592391 0 0 0.022063801558522438 0
          0 0.01893387196625285 0 0 0.015051419016255856 0
          0 0.02190109154094069 0 0 0.021722974643056434 0
          0 0.01858712656508867 0 0 0.004414513246045155 0
          0 0.018692695816671136 0 0 0 0
          0 0.017774280580267667 0 0 0.014913163882843958 0
          0 0.007431074595223598 0 0 0.01740723481398931 0
          0 0.010101010099529309 0 0 0.014414460443611018 0
          0 0.013057751520747602 0 0 0.010652557767253783 0
          0 0.009269667980363114 0 0 0.007902705181828402 0
          0 0.006501547719069862 0 0 0.0058708307208703596 0
          0 0.005643645740552171 0 0 0 0
          0 0.002541184874183505 0 0 0.003382085597152529 0
          0 0 0 0 0 0
          0 0 0 0 0 0
          0 0.02055867697645585 0 0 0.017807947879563517 0
          0 0.014479595006377433 0 0 0.011467709909099741 0
          0 0.00802995574462742 0 0 0.0043627218900002505 0
          0 0 0 0 0.025138515645923898 0
          0 0.023063075861300214 0 0 0.02513851564592391 0
          0 0.02156540963929911 0 0 0.017048921317405995 0
          0 0.011555674960257634 0 0 0 0
          <InformationKey name="L2_NORM_RANGE" location="vtkDataArray" length="2">
            <Value index="0">
              0
            </Value>
            <Value index="1">
              0.025138515646
            </Value>
          </InformationKey>
        </DataArray>
        <DataArray type="Float64" Name="ALEveloc" NumberOfComponents="3" format="ascii" RangeMin="0" RangeMax="1.599532603087585">
          0 0.708471454122945 0 0 0.9264539558668929 0
          0 0.4740069852783099 0 0 1.1466521831166285 0
          0 0.9084542926658223 0 0 1.3269899496141675 0
          0 1.465835158807524 0 0 1.5995326030875845 0
          0 0.672620504124167 0 0 1.298022426791595 0
          0 1.4640957190142971 0 0 1.5995326030875843 0
          0 1.5995326030875843 0 0 1.4609041283924649 0
          0 1.1261838516304719 0 0 1.291521981728257 0
          0 0.4111095986444497 0 0 1.5995326030875845 0
          0 1.4567993257243625 0 0 0.8588504173428984 0
          0 1.2797108504636499 0 0 1.5995326030875847 0
          0 1.451899955944618 0 0 1.5995326030875843 0
          0 1.2978751862654523 0 0 1.0787910403239476 0
          0 1.44682343644047 0 0 1.599532603087585 0
          0 0.5663279725153135 0 0 1.257781626577904 0
          0 1.4406410416129913 0 0 1.5995326030875847 0
          0 1.599532603087585 0 0 1.433258630189565 0
          0 1.0509313789980617 0 0 1.2429459404929106 0
          0 1.5995326030875847 0 0 1.4245643382521582 0
          0 1.2420857340373004 0 0 1.599532603087585 0
          0 0.7591367013215649 0 0 1.4148886147203148 0
          0 1.599532603087584 0 0 1.5995326030875847 0
          0 1.599532603087585 0 0 1.4038923553799285 0
          0 1.204738813511374 0 0 0.9577031427922593 0
          0 1.393539318564362 0 0 1.382205961044786 0
          0 1.182675833264459 0 0 0.2808900081161383 0
          0 1.189393073938814 0 0 0 0
          0 1.1309554503936887 0 0 0.9489061399559997 0
          0 0.47283006914385284 0 0 1.1076007830673902 0
          0 0.6427147571433428 0 0 0.917174258027866 0
          0 0.8308485502738464 0 0 0.6778090518546243 0
          0 0.589817488161518 0 0 0.5028393390034291 0
          0 0.41368542572911177 0 0 0.3735536846131554 0
          0 0.3590981858053063 0 0 0 0
          0 0.1616924449311554 0 0 0.2151979160295243 0
          0 0 0 0 0 0
          0 0 0 0 0 0
          0 1.3081231431227827 0 0 1.1330976589329724 0
          0 0.921318689552789 0 0 0.7296761726394861 0
          0 0.5109361346466228 0 0 0.2775945883022252 0
          0 0 0 0 1.5995326030875836 0
          0 1.4674749411313606 0 0 1.599532603087585 0
          0 1.3721802950840232 0 0 1.0848017392422131 0
          0 0.7352732798530196 0 0 0 0
          <InformationKey name="L2_NORM_RANGE" location="vtkDataArray" length="2">
            <Value index="0">
              0
            </Value>
            <Value index="1">
              1.5995326031
            </Value>
          </InformationKey>
        </DataArray>
      </PointData>
      <CellData>
        <DataArray type="UInt8" Name="vtkGhostType" format="ascii" RangeMin="0" RangeMax="1">
          1 1 0 1 0 1
          1 1 0 0 1 1
          0 1 1 1 0 0
          1 0 0 0 0 0
          0 0 0 1 0 0
          0 0 0 0 0 0
          0 0 0 0 0 0
          1 0 0 0 0 0
          0 0 0 1 1 0
          0 0 0 0 0 0
          0 0 0 0 0 0
          0 0 0 0 0 0
          0 0 1 0 0 0
          0 0 0 0 1 0
          1 0 0 0 0 0
          0 0 0 0 0 0
          0 0 0 1 1 0
          0 0 0 1 0 0
          0 0 0 0 0 0
          0 0 1 0 0 0
          0 0 0 1 0 0
          0 0 1 0 0 0
          0 0 0 0 0 0
          0 0
        </DataArray>
      </CellData>
      <Points>
        <DataArray type="Float32" Name="Points" NumberOfComponents="3" format="ascii" RangeMin="1.8803550135780176" RangeMax="4.055759004528563">
          -2.2300779819488525 0.13570579886436462 0 -2.3709781169891357 -0.062260668724775314 0
          -2.059462070465088 0.44021978974342346 0 -2.5443649291992188 -0.10779819637537003 0
          -2.4642961025238037 0.07101144641637802 0 -2.6271650791168213 -0.17486029863357544 0
          -2.6636691093444824 -0.24169839918613434 0 -2.701296091079712 -0.28768301010131836 0
          -2.383152961730957 0.3095952868461609 0 -2.654539108276367 -0.11641339957714081 0
          -2.694011926651001 -0.18914400041103363 0 -2.7230820655822754 -0.2409639060497284 0
          -2.7526490688323975 -0.1987375020980835 0 -2.7330191135406494 -0.14265699684619904 0
          -2.650291919708252 0.011698920279741287 0 -2.706774950027466 -0.06417694687843323 0
          -2.265990972518921 0.6523954272270203 0 -2.789099931716919 -0.16228699684143066 0
          -2.779505968093872 -0.10364969819784164 0 -2.617074966430664 0.21585670113563538 0
          -2.76728892326355 -0.021804839372634888 0 -2.8313260078430176 -0.13271979987621307 0
          -2.8320600986480713 -0.07330747693777084 0 -2.878045082092285 -0.1109343022108078 0
          -2.8383469581604004 -0.0027822840493172407 0 -2.7977020740509033 0.10521770268678665 0
          -2.889085054397583 -0.05255214869976044 0 -2.9278368949890137 -0.09759248048067093 0
          -2.6022489070892334 0.5176013708114624 0 -2.9055979251861572 0.02853533998131752 0
          -2.948848009109497 -0.04201440140604973 0 -2.9791901111602783 -0.0930996984243393 0
          -3.030543088912964 -0.09759248048067093 0 -3.0095319747924805 -0.04201440140604973 0
          -2.923835039138794 0.1344859004020691 0 -2.9791901111602783 0.03497384116053581 0
          -3.0803349018096924 -0.1109343022108078 0 -3.0692949295043945 -0.05255214869976044 0
          -3.0480120182037354 0.022753920406103134 0 -3.12705397605896 -0.13271979987621307 0
          -2.878783941268921 0.3397555947303772 0 -3.1263198852539062 -0.07330747693777084 0
          -3.1692800521850586 -0.16228699684143066 0 -3.20573091506958 -0.1987375020980835 0
          -3.235297918319702 -0.24096380174160004 0 -3.1788740158081055 -0.10364969819784164 0
          -3.1241390705108643 0.009415465407073498 0 -3.0579030513763428 0.16394680738449097 0
          -3.2253611087799072 -0.14265699684619904 0 -3.2643680572509766 -0.18914400041103363 0
          -3.1910910606384277 -0.021804839372634888 0 -2.6045689582824707 0.9419500827789307 0
          -3.25103497505188 -0.07930652797222137 0 -2.1272919178009033 1.4731700420379639 0
          -3.3038411140441895 -0.11641339957714081 0 -3.2044050693511963 0.0941474512219429 0
          -2.892124891281128 0.6298788785934448 0 -3.3462131023406982 -0.1769271045923233 0
          -3.0603749752044678 0.3931475877761841 0 -3.33001708984375 -0.012432189658284187 0
          -3.435275077819824 -0.1454842984676361 0 -3.2308011054992676 0.26955080032348633 0
          -3.4064109325408936 0.15343579649925232 0 -3.518059015274048 0.028400490060448647 0
          -3.280010938644409 0.5167043805122375 0 -3.613848924636841 -0.13029329478740692 0
          -3.444891929626465 0.4024854004383087 0 -2.7232348918914795 1.4731700420379639 0
          -3.235137939453125 1.018826961517334 0 -3.5035080909729004 0.6253349184989929 0
          -3.778749942779541 0.2763518989086151 0 -3.2737109661102295 1.4731700420379639 0
          -3.778749942779541 0.9123057126998901 0 -3.778749942779541 1.4731700420379639 0
          -2.580946922302246 -0.24387919902801514 0 -2.4644439220428467 -0.2509022057056427 0
          -2.2871220111846924 -0.25536561012268066 0 -2.119029998779297 -0.06761106103658676 0
          -1.8855739831924438 0.1918828934431076 0 -1.733451008796692 0.7286168932914734 0
          -1.4868500232696533 1.4731700420379639 0 -2.6879539489746094 -0.3374752998352051 0
          -2.642914056777954 -0.2987231910228729 0 -3.2570838928222656 -0.28768301010131836 0
          -3.294711112976074 -0.24169839918613434 0 -3.3774330615997314 -0.24387919902801514 0
          -3.501086950302124 -0.3039725124835968 0 -3.778749942779541 -0.4253365099430084 0
          <InformationKey name="L2_NORM_RANGE" location="vtkDataArray" length="2">
            <Value index="0">
              1.8803550136
            </Value>
            <Value index="1">
              4.0557590045
            </Value>
          </InformationKey>
        </DataArray>
      </Points>
      <Cells>
        <DataArray type="Int64" Name="connectivity" format="ascii" RangeMin="0" RangeMax="87">
          74 75 3 75 76 1
          4 3 1 1 3 75
          4 1 0 1 76 77
          0 1 77 0 77 78
          4 0 8 8 0 2
          0 78 2 2 78 79
          8 2 16 16 2 79
          80 53 79 16 79 53
          12 11 10 27 23 26
          7 81 82 32 31 33
          21 17 18 11 7 6
          36 32 37 23 21 22
          31 27 30 17 12 13
          26 23 22 6 7 82
          10 11 6 22 21 18
          37 32 33 18 17 13
          33 31 30 13 12 10
          30 27 26 33 30 35
          10 6 5 22 18 20
          13 10 9 26 22 24
          18 13 15 30 26 29
          6 82 74 20 18 15
          20 15 14 35 30 29
          35 29 34 15 13 9
          15 9 14 9 10 5
          9 5 3 5 6 74
          5 74 3 29 26 24
          29 25 34 24 22 20
          24 20 25 9 3 14
          20 14 25 25 14 19
          24 25 29 34 25 40
          19 14 4 25 19 40
          14 3 4 19 4 8
          19 8 28 40 19 28
          56 40 28 28 8 16
          56 28 51 28 16 51
          51 16 53 39 36 41
          83 44 84 43 42 48
          44 43 49 42 39 45
          48 42 45 41 36 37
          45 39 41 49 43 48
          84 44 49 37 33 38
          84 49 57 49 48 54
          48 45 52 41 37 46
          45 41 50 54 48 52
          54 52 59 57 49 54
          57 54 60 52 45 50
          52 50 59 50 41 46
          50 46 55 38 33 35
          38 35 47 85 84 57
          85 57 60 46 37 38
          46 47 55 60 54 59
          50 55 59 85 60 86
          46 38 47 47 35 34
          47 34 40 55 47 61
          61 47 58 55 61 62
          60 59 63 63 59 62
          62 59 55 60 63 65
          86 60 65 63 62 70
          58 47 40 58 40 56
          62 61 66 61 58 64
          65 63 70 86 65 87
          66 61 64 66 64 69
          64 58 56 62 66 70
          87 65 70 69 64 68
          66 69 70 64 56 68
          68 56 51 69 68 72
          71 73 68 70 69 72
          72 68 73 67 71 68
          68 51 67 67 51 53
        </DataArray>
        <DataArray type="Int64" Name="offsets" format="ascii" RangeMin="3" RangeMax="420">
          3 6 9 12 15 18
          21 24 27 30 33 36
          39 42 45 48 51 54
          57 60 63 66 69 72
          75 78 81 84 87 90
          93 96 99 102 105 108
          111 114 117 120 123 126
          129 132 135 138 141 144
          147 150 153 156 159 162
          165 168 171 174 177 180
          183 186 189 192 195 198
          201 204 207 210 213 216
          219 222 225 228 231 234
          237 240 243 246 249 252
          255 258 261 264 267 270
          273 276 279 282 285 288
          291 294 297 300 303 306
          309 312 315 318 321 324
          327 330 333 336 339 342
          345 348 351 354 357 360
          363 366 369 372 375 378
          381 384 387 390 393 396
          399 402 405 408 411 414
          417 420
        </DataArray>
        <DataArray type="UInt8" Name="types" format="ascii" RangeMin="5" RangeMax="5">
          5 5 5 5 5 5
          5 5 5 5 5 5
          5 5 5 5 5 5
          5 5 5 5 5 5
          5 5 5 5 5 5
          5 5 5 5 5 5
          5 5 5 5 5 5
          5 5 5 5 5 5
          5 5 5 5 5 5
          5 5 5 5 5 5
          5 5 5 5 5 5
          5 5 5 5 5 5
          5 5 5 5 5 5
          5 5 5 5 5 5
          5 5 5 5 5 5
          5 5 5 5 5 5
          5 5 5 5 5 5
          5 5 5 5 5 5
          5 5 5 5 5 5
          5 5 5 5 5 5
          5 5 5 5 5 5
          5 5 5 5 5 5
          5 5 5 5 5 5
          5 5
        </DataArray>
      </Cells>
    </Piece>
  </UnstructuredGrid>
</VTKFile>
