<?xml version="1.0"?>
<VTKFile type="UnstructuredGrid" version="0.1" byte_order="LittleEndian" header_type="UInt32" compressor="vtkZLibDataCompressor">
  <UnstructuredGrid>
    <Piece NumberOfPoints="91" NumberOfCells="142">
      <PointData>
        <DataArray type="Float64" Name="ale_BC" NumberOfComponents="3" format="ascii" RangeMin="0" RangeMax="1">
          0 0 0 0 0 0
          0 0 0 0 0 0
          0 0 0 0 0 0
          0 0 0 0 0 0
          0 0 0 0 0 0
          0 0 0 0 1 0
          0 0 0 0 0 0
          0 0 0 0 1 0
          0 0 0 0 0 0
          0 1 0 0 1 0
          0 0 0 0 0 0
          0 0 0 0 0 0
          0 1 0 0 0 0
          0 0 0 0 0 0
          0 1 0 0 0 0
          0 0 0 0 1 0
          0 0 0 0 0 0
          0 1 0 0 0 0
          0 0 0 0 0 0
          0 0 0 0 1 0
          0 0 0 0 0 0
          0 1 0 0 0 0
          0 1 0 0 0 0
          0 0 0 0 1 0
          0 0 0 0 0 0
          0 0 0 0 1 0
          0 0 0 0 1 0
          0 0 0 0 1 0
          0 1 0 0 0 0
          0 0 0 0 0 0
          0 0 0 0 0 0
          0 0 0 0 0 0
          0 0 0 0 0 0
          0 0 0 0 0 0
          0 0 0 0 0 0
          0 0 0 0 0 0
          0 0 0 0 0 0
          0 0 0 0 0 0
          0 1 0 0 0 0
          0 0 0 0 0 0
          0 0 0 0 0 0
          0 0 0 0 0 0
          0 0 0 0 1 0
          0 0 0 0 0 0
          0 0 0 0 0 0
          0 0 0
          <InformationKey name="L2_NORM_RANGE" location="vtkDataArray" length="2">
            <Value index="0">
              0
            </Value>
            <Value index="1">
              1
            </Value>
          </InformationKey>
        </DataArray>
        <DataArray type="Float64" Name="ale_FIXNO" NumberOfComponents="3" format="ascii" RangeMin="1.4142135623730951" RangeMax="1.4142135623730951">
          1 1 0 -1 -1 0
          1 1 0 -1 -1 0
          -1 -1 0 -1 -1 0
          -1 -1 0 -1 -1 0
          -1 -1 0 -1 -1 0
          -1 -1 0 1 1 0
          -1 -1 0 -1 -1 0
          -1 -1 0 1 1 0
          -1 -1 0 -1 -1 0
          1 1 0 1 1 0
          -1 -1 0 -1 -1 0
          -1 -1 0 -1 -1 0
          1 1 0 -1 -1 0
          1 1 0 -1 -1 0
          1 1 0 -1 -1 0
          -1 -1 0 1 1 0
          -1 -1 0 -1 -1 0
          1 1 0 -1 -1 0
          -1 -1 0 -1 -1 0
          -1 -1 0 1 1 0
          -1 -1 0 -1 -1 0
          1 1 0 -1 -1 0
          1 1 0 -1 -1 0
          -1 -1 0 1 1 0
          -1 -1 0 -1 -1 0
          -1 -1 0 1 1 0
          -1 -1 0 1 1 0
          -1 -1 0 1 1 0
          1 1 0 -1 -1 0
          -1 -1 0 -1 -1 0
          -1 -1 0 -1 -1 0
          -1 -1 0 -1 -1 0
          -1 -1 0 -1 -1 0
          1 1 0 -1 -1 0
          -1 -1 0 1 1 0
          -1 -1 0 -1 -1 0
          -1 -1 0 -1 -1 0
          1 1 0 1 1 0
          1 1 0 -1 -1 0
          -1 -1 0 -1 -1 0
          -1 -1 0 -1 -1 0
          -1 -1 0 -1 -1 0
          1 1 0 1 1 0
          -1 -1 0 -1 -1 0
          -1 -1 0 -1 -1 0
          1 1 0
          <InformationKey name="L2_NORM_RANGE" location="vtkDataArray" length="2">
            <Value index="0">
              1.4142135624
            </Value>
            <Value index="1">
              1.4142135624
            </Value>
          </InformationKey>
        </DataArray>
        <DataArray type="Float64" Name="Density" format="ascii" RangeMin="0.9921287774302149" RangeMax="1.0288394686506204">
          1.0015329580009955 1.002781034386532 1.0043224768024905 0.9974060343372687 1.0015690310248195 0.9963840857053057
          0.9949216425410431 0.9945954879386312 0.9968711916126127 0.9929494670876948 0.9948052705105525 0.9939420334649048
          1.0001746353805763 1.0051912834420118 0.9932135600171264 0.9925008064636618 0.9953263004834731 0.9935716750732901
          0.9921287774302149 0.9924167360560485 0.9945784660638862 0.9992729049627848 0.9964579881466011 1.0033752069768656
          0.9934105263582644 0.9958070548695591 1.0095077670446146 0.9977879644890298 0.9951903953043608 1.0017128624370604
          0.997255046637283 0.9972905013236615 0.9993967439803808 0.998726009006675 0.9997547738279408 1.0017851841859604
          1.000748270463411 1.006615105734934 1.000537825462754 1.0030397768928265 1.0029900767289461 1.0027134554646375
          1.0066926960698452 1.005781201545895 1.0106643057408378 1.0053333649927023 1.0051046792211813 1.0148694387273063
          1.005046997823255 1.0059935192708038 1.007816927879654 1.0188501620273769 1.0081663572932191 1.0223803523670174
          1.010563349156061 1.0253314781287453 1.0273224979855038 1.0133167532194018 1.0107041844138371 1.016491245539542
          1.019207047737465 1.021448383528689 1.013451615692679 1.0095613692649756 1.0161382738321947 1.0072177983703612
          0.9999999999999648 1.0185365252149705 1.0205942773439676 0.9999999999999648 1.014237326166905 1.0086283055599565
          1.0109820843236206 1.018558539115133 0.9999999999999648 0.9999999999999648 0.9957872447477145 0.9934498480293799
          0.9959403541402895 0.9974412223514009 0.9979699270299922 0.9986452661073395 0.999605890784246 1.0000845031627916
          1.0001237687961937 1.0288394686506204 1.0232945188441882 1.0223746620040366 1.0210474102464029 1.0224494814346534
          0.9999999999999648
        </DataArray>
        <DataArray type="Float64" Name="Momentum" NumberOfComponents="3" format="ascii" RangeMin="0.013265137466346439" RangeMax="1.6401644110727132">
          0.0870346409113683 0 0 0.264519010011942 0.13943193593227055 0
          0.31811497774715286 0 0 -0.07455640093953639 0.62321870804407 0
          0.2691248108824599 0.43415135804184596 0 -0.41225706404538887 0.7236854750138035 0
          -0.4695125651092607 0.8872155351166003 0 -0.35120620489721277 1.1414089551250557 0
          0.0584422780833175 1.031145176331797 0 -0.2688733311637058 1.3474563690153896 0
          -0.10932661208541491 1.2798198840800303 0 0 1.5793498880802772 0
          0.34767966377088805 0.7505370990349446 0 0.491394219980538 0.24801116517051544 0
          -0.15927387250978953 1.470889782059402 0 0 1.5765830851617917 0
          0.1429776337110105 1.3512077107070544 0 -0.000500742994915872 1.5401352917685596 0
          0 1.575433727837575 0 0 1.5753951361244103 0
          0.17510607648373291 1.569416335780571 0 0.5746776767507767 1.099101268976901 0
          0.42154684391758895 1.4118930552563145 0 0.5734718689720242 0.47284668260891904 0
          0 1.5765850161920756 0 0.32480417885352303 1.5353464109577888 0
          0.4983934733274686 0 0 0.6245192259758339 1.298810769677762 0
          0 1.5791102120844398 0 0.7404836776168559 0.6557255331785105 0
          0.45812215014456625 1.4498898838635836 0 0 1.5823539390932588 0
          0.8058896669850601 1.1221835485711549 0 0.5538831169450142 1.3170168882377085 0
          0 1.5864175436043393 0 1.0294554759161836 0.7286493359635215 0
          0.8763869810864221 0.9783517351812512 0 0.6453752126158345 0.22182805538857914 0
          0.6025422648826001 1.1513248950298824 0 0 1.5918420920076317 0
          0.991129080817224 0.6056114200923095 0 0.6130127002197062 0.9857205051345733 0
          0 1.598019581899613 0 0.7246924252111803 0.22414017920584356 0
          0 1.604803900498453 0 0.9351821541507921 0.45096587772435465 0
          0.5501491928893308 0.8318047508470285 0 0 1.612099288826012 0
          1.0663738783774415 0.22426381469740303 0 0.9502898513783248 0.20077120602671505 0
          0.44310474412962575 0.7127599044131013 0 0 1.6190483486439842 0
          0.8494192616898038 0.12823301712772284 0 0 1.6255145375905644 0
          0.29997130539723926 0.6437755358741105 0 0 1.6314712972862262 0
          0 1.6361493959878393 0 0.13856578322590524 0.6362113558281485 0
          0.6545667134398543 -0.04618720301330454 0 -0.010890530930627163 0.7050313695845297 0
          -0.13558255498534214 0.8259913389460793 0 -0.22221565751540284 0.9838391443154765 0
          0.3920448877478668 -0.04223059303976861 0 0.8387666015042071 -0.30195963430018086 0
          0.21171636464227078 -0.10397782825824792 0 0.8697337914765387 -0.16047040920222788 0
          0.9999999999999648 0 0 -0.02546131581406498 0.04690237380007463 0
          -0.20017679773731226 0.2516671679852546 0 0.9999999999999648 0 0
          0.5039314356071043 -0.525626623579431 0 0.6766728678783791 -0.15270054702708352 0
          0.6793581013418449 -0.38792745648711335 0 0.14616034272743209 -0.39945943568385484 0
          0.9999999999999648 0 0 0.9999999999999648 0 0
          0 1.5828308564423685 0 -0.3474149160886053 1.1980701967502483 0
          -0.5434762219615789 0.7065459731242621 0 -0.5646588038752625 0.2590010544040721 0
          -0.35070954185358383 0.1678655690607623 0 -0.10452815071002027 0.2684075176257043 0
          -0.05605825097034763 0.14502766549433904 0 0.02291699153937419 0.040646382396444546 0
          0.013265137466346439 0 0 0 1.6401644110727132 0
          -0.2541199535835832 1.142640782483926 0 -0.3384495623862002 0.5135210033743426 0
          -0.23950184141803496 0.12177661802206627 0 0.09452757273500416 -0.10918629968589373 0
          0.9999999999999648 0 0
          <InformationKey name="L2_NORM_RANGE" location="vtkDataArray" length="2">
            <Value index="0">
              0.013265137466
            </Value>
            <Value index="1">
              1.6401644111
            </Value>
          </InformationKey>
        </DataArray>
        <DataArray type="Float64" Name="Energy" format="ascii" RangeMin="3677.5504046702667" RangeMax="3854.2757493451736">
          3730.833419521312 3737.398106939204 3745.4107079417595 3709.5265833077215 3731.2241725618014 3704.474251573194
          3696.684013735956 3695.396954767711 3707.2218897600583 3687.8726072838854 3696.739462935361 3681.4997384534704
          3724.138788480176 3750.0140130122795 3688.0575120424483 3677.5504046702667 3699.6248289038685 3689.264472792216
          3677.9021727551044 3680.960012348013 3693.781194245931 3719.9025681052644 3706.193572337823 3740.7004283927686
          3686.451229847711 3700.4993928670547 3772.8969144071602 3712.3309128415203 3695.113680835498 3732.2598557006854
          3708.918625487107 3704.3003972154524 3720.50165889624 3717.8948060767316 3714.2174948562392 3732.9953810485117
          3727.743965798867 3758.0371468390904 3728.3587474624997 3728.0250601222224 3738.1781693789603 3741.9850764323965
          3743.143487106757 3753.303093478354 3760.0791259675525 3750.593794349571 3755.1396237702734 3778.406137773492
          3750.321920727619 3754.4411541840495 3770.674643464392 3796.4101863131527 3764.581469315439 3813.697054381661
          3786.3362589972285 3830.3341946003666 3843.30677345677 3801.574460259594 3777.991242546175 3817.015901174812
          3831.0121658139788 3841.7842488614187 3791.817959582618 3773.3620712444504 3806.327639752501 3760.4632765936076
          3723.3299999998685 3818.9045219934255 3829.991832916457 3723.329999999868 3797.5594418703176 3769.297849375207
          3780.250114424555 3820.476051556878 3723.329999999869 3723.3299999998676 3687.445980695333 3692.092783417132
          3701.4055890569743 3709.586998573329 3712.2777987813456 3715.8518456087513 3720.8036824075994 3723.2882327847783
          3723.4743370382294 3854.2757493451736 3850.6849559022135 3839.359038956125 3833.0352793650027 3842.9595359325654
          3723.3299999998685
        </DataArray>
        <DataArray type="Float64" Name="ALEdispl" NumberOfComponents="3" format="ascii" RangeMin="0" RangeMax="0.037211270132493916">
          0 0 0 0 0.005509506632640936 0
          0 0 0 0 0.020254784188770664 0
          0 0.01155872581409332 0 0 0.025978567472383238 0
          0 0.02999062872510831 0 0 0.030396334241392754 0
          0 0.024695746388616557 0 0 0.03388417612670354 0
          0 0.029534558832159923 0 0 0.03721127013249391 0
          0 0.0174771346628792 0 0 0.0062993308790997935 0
          0 0.03377092396398041 0 0 0.03721127013249391 0
          0 0.02925127003013547 0 0 0.03364999208402237 0
          0 0.03721127013249391 0 0 0.0372112701324939 0
          0 0.03349369784775655 0 0 0.023684575460347666 0
          0 0.02948670203039137 0 0 0.011571784572834053 0
          0 0.03721127013249391 0 0 0.033332181738809495 0
          0 0 0 0 0.028487388396915055 0
          0 0.03721127013249391 0 0 0.017169261969557537 0
          0 0.033110068934883864 0 0 0.03721127013249391 0
          0 0.02861374807022427 0 0 0.032892915068111726 0
          0 0.0372112701324939 0 0 0.023241267106594743 0
          0 0.028728764583992653 0 0 0.005131797191405938 0
          0 0.032641049600686214 0 0 0.037211270132493916 0
          0 0.026873255052713315 0 0 0.03239036740836818 0
          0 0.03721127013249391 0 0 0.00828886445109111 0
          0 0.03721127013249391 0 0 0.027223421218516713 0
          0 0.032132608073591896 0 0 0.03721127013249391 0
          0 0.020077714834198443 0 0 0.012139666197805318 0
          0 0.03191857819970745 0 0 0.03721127013249391 0
          0 0.02572074145450213 0 0 0.03721127013249391 0
          0 0.03174749202139353 0 0 0.03721127013249391 0
          0 0.03721127013249391 0 0 0.03165125804844888 0
          0 0.025290383621812514 0 0 0.03164934236178055 0
          0 0.03174476729416712 0 0 0.03192218247523955 0
          0 0.02592706016752896 0 0 0.018035350264580738 0
          0 0.024788442768554318 0 0 0.011051086921434054 0
          0 0 0 0 0.02493706643356413 0
          0 0.02523665380825679 0 0 0 0
          0 0.016988223971653435 0 0 0.006666011171993052 0
          0 0.01011494173973569 0 0 0.01710527974547158 0
          0 0 0 0 0 0
          0 0.037211270132493916 0 0 0.03396919573068259 0
          0 0.030758683764388433 0 0 0.02612408675475854 0
          0 0.02016289099602039 0 0 0.01536876067120276 0
          0 0.010044889228473323 0 0 0.0047544692120217065 0
          0 0 0 0 0.03721127013249391 0
          0 0.032155417961408445 0 0 0.0257670471099648 0
          0 0.01932872751937157 0 0 0.008690293052043165 0
          0 0 0
          <InformationKey name="L2_NORM_RANGE" location="vtkDataArray" length="2">
            <Value index="0">
              0
            </Value>
            <Value index="1">
              0.037211270132
            </Value>
          </InformationKey>
        </DataArray>
        <DataArray type="Float64" Name="ALEveloc" NumberOfComponents="3" format="ascii" RangeMin="0" RangeMax="1.5987694324613346">
          0 0 0 0 0.2367140589624092 0
          0 0 0 0 0.8702398414997976 0
          0 0.49661668209592014 0 0 1.1161602231285346 0
          0 1.2885370559853677 0 0 1.3059680540595275 0
          0 1.0610442561448616 0 0 1.4558219819592857 0
          0 1.268942169777088 0 0 1.5987694324613342 0
          0 0.750899084243352 0 0 0.27064858626446353 0
          0 1.4509561417104275 0 0 1.5987694324613342 0
          0 1.2567707637588947 0 0 1.4457603450499357 0
          0 1.5987694324613342 0 0 1.5987694324613329 0
          0 1.439045216904029 0 0 1.0175996447313378 0
          0 1.2668860187365438 0 0 0.49717774717717744 0
          0 1.5987694324613337 0 0 1.4321057327930284 0
          0 0 0 0 1.2239508519186644 0
          0 1.5987694324613337 0 0 0.7376714397845738 0
          0 1.4225627325081631 0 0 1.5987694324613337 0
          0 1.2293798518550623 0 0 1.4132327912538107 0
          0 1.5987694324613329 0 0 0.9985530536687026 0
          0 1.234321496840208 0 0 0.22048590263104972 0
          0 1.4024114780070764 0 0 1.5987694324613346 0
          0 1.1546001675309028 0 0 1.3916410037686675 0
          0 1.5987694324613333 0 0 0.3561282124215338 0
          0 1.5987694324613337 0 0 1.1696449364994264 0
          0 1.3805664625368168 0 0 1.5987694324613337 0
          0 0.8626321175358569 0 0 0.5215765860243289 0
          0 1.3713707425632262 0 0 1.5987694324613342 0
          0 1.1050828168800026 0 0 1.5987694324613333 0
          0 1.3640200837109218 0 0 1.5987694324613346 0
          0 1.5987694324613333 0 0 1.3598854241370781 0
          0 1.0865926405040116 0 0 1.3598031173177554 0
          0 1.3639030167420727 0 0 1.371525599022744 0
          0 1.1139472294775197 0 0 0.7748826257227421 0
          0 1.065026924250967 0 0 0.47480615153831296 0
          0 0 0 0 1.0714124889390844 0
          0 1.0842841575304685 0 0 0 0
          0 0.7298932044238207 0 0 0.28640287902782224 0
          0 0.43458499554131946 0 0 0.734922465516151 0
          0 0 0 0 0 0
          0 1.5987694324613346 0 0 1.4594748200246817 0
          0 1.3215362767826355 0 0 1.1224124090836765 0
          0 0.866291682055164 0 0 0.6603135202976247 0
          0 0.4315752134706009 0 0 0.20427413567700736 0
          0 0 0 0 1.5987694324613333 0
          0 1.3815464815275447 0 0 1.1070723234526127 0
          0 0.8304521349665193 0 0 0.3733754542983281 0
          0 0 0
          <InformationKey name="L2_NORM_RANGE" location="vtkDataArray" length="2">
            <Value index="0">
              0
            </Value>
            <Value index="1">
              1.5987694325
            </Value>
          </InformationKey>
        </DataArray>
      </PointData>
      <CellData>
        <DataArray type="UInt8" Name="vtkGhostType" format="ascii" RangeMin="0" RangeMax="1">
          1 1 0 1 0 0
          0 0 1 1 0 0
          0 1 0 0 1 1
          0 0 0 1 1 0
          0 1 0 1 1 0
          0 1 1 0 0 0
          0 0 0 0 0 0
          0 0 0 0 0 0
          0 0 0 0 0 0
          0 0 0 0 0 0
          0 0 0 0 0 0
          0 0 0 0 0 0
          0 0 0 0 0 0
          0 0 0 0 0 0
          0 0 0 0 0 0
          0 0 0 0 0 0
          0 0 0 0 0 0
          0 0 0 0 0 0
          0 0 0 0 0 0
          0 0 0 0 0 0
          0 0 0 0 0 0
          0 0 0 0 0 0
          0 0 0 0 0 0
          0 0 0 0
        </DataArray>
      </CellData>
      <Points>
        <DataArray type="Float32" Name="Points" NumberOfComponents="3" format="ascii" RangeMin="2.5330862087033426" RangeMax="4.415217469119645">
          -2.170166015625 -2.283679962158203 0 -2.691119909286499 -1.8072350025177002 0
          -2.74910306930542 -2.283679962158203 0 -2.690108060836792 -1.0087660551071167 0
          -2.8477039337158203 -1.4020040035247803 0 -2.6877200603485107 -0.8177986741065979 0
          -2.706774950027466 -0.7134789824485779 0 -2.7652220726013184 -0.7408525943756104 0
          -2.841264009475708 -0.9035742282867432 0 -2.779505968093872 -0.6740062832832336 0
          -2.8342409133911133 -0.7870715260505676 0 -2.789099931716919 -0.6153690218925476 0
          -2.9563119411468506 -1.1200250387191772 0 -3.0674641132354736 -1.6710790395736694 0
          -2.8320600986480713 -0.7043485045433044 0 -2.8313260078430176 -0.644936203956604 0
          -2.9055979251861572 -0.8061913251876831 0 -2.889085054397583 -0.7251037955284119 0
          -2.878045082092285 -0.6667217016220093 0 -2.9278368949890137 -0.6800634860992432 0
          -2.948848009109497 -0.735641598701477 0 -3.0256359577178955 -0.9197046160697937 0
          -2.988478899002075 -0.8006740808486938 0 -3.1323978900909424 -1.3007270097732544 0
          -2.9791901111602783 -0.6845563054084778 0 -3.0095319747924805 -0.735641598701477 0
          -3.282470941543579 -2.283679962158203 0 -3.0527820587158203 -0.8061913251876831 0
          -3.030543088912964 -0.6800634860992432 0 -3.156229019165039 -1.0495460033416748 0
          -3.0692949295043945 -0.7251037955284119 0 -3.0803349018096924 -0.6667217016220093 0
          -3.1287789344787598 -0.7726597189903259 0 -3.1263198852539062 -0.7043485045433044 0
          -3.12705397605896 -0.644936203956604 0 -3.1992249488830566 -0.8433429002761841 0
          -3.176959991455078 -0.7415673136711121 0 -3.3836259841918945 -1.561750054359436 0
          -3.1788740158081055 -0.6740062832832336 0 -3.1692800521850586 -0.6153690218925476 0
          -3.2516050338745117 -0.7134789824485779 0 -3.2253611087799072 -0.6349989771842957 0
          -3.20573091506958 -0.5789185166358948 0 -3.417664051055908 -1.20107102394104 0
          -3.235297918319702 -0.5366920828819275 0 -3.2887110710144043 -0.6606734991073608 0
          -3.2643680572509766 -0.5885120034217834 0 -3.2570838928222656 -0.4899730086326599 0
          -3.3560099601745605 -0.7656483054161072 0 -3.431668996810913 -0.9636631011962891 0
          -3.294711112976074 -0.5359575748443604 0 -3.270426034927368 -0.4401806890964508 0
          -3.3462131023406982 -0.6007289290428162 0 -3.2749180793762207 -0.38882800936698914 0
          -3.3154659271240234 -0.47893279790878296 0 -3.270426034927368 -0.3374752998352051 0
          -3.2570838928222656 -0.28768301010131836 0 -3.3260040283203125 -0.4191702902317047 0
          -3.3774330615997314 -0.5337768197059631 0 -3.3260040283203125 -0.35848569869995117 0
          -3.3154659271240234 -0.2987231910228729 0 -3.294711112976074 -0.24169839918613434 0
          -3.384929895401001 -0.4598917067050934 0 -3.462165117263794 -0.614043116569519 0
          -3.402992010116577 -0.38882800936698914 0 -3.53951096534729 -0.7811691761016846 0
          -3.778749942779541 -2.283679962158203 0 -3.3965530395507812 -0.31523561477661133 0
          -3.3774330615997314 -0.24387919902801514 0 -3.778749942779541 -1.7314280271530151 0
          -3.5027570724487305 -0.47875070571899414 0 -3.6378090381622314 -0.7895874977111816 0
          -3.5936028957366943 -0.6207522749900818 0 -3.501086950302124 -0.3039725124835968 0
          -3.778749942779541 -1.111603021621704 0 -3.778749942779541 -0.4253365099430084 0
          -2.7526490688323975 -0.5789185166358948 0 -2.7330191135406494 -0.6349989771842957 0
          -2.657727003097534 -0.6464416980743408 0 -2.5426599979400635 -0.6944894194602966 0
          -2.4337658882141113 -0.876357913017273 0 -2.4568591117858887 -1.145993947982788 0
          -2.194478988647461 -1.3969999551773071 0 -1.8212720155715942 -1.7605379819869995 0
          -1.546241044998169 -2.283679962158203 0 -3.235297918319702 -0.24096380174160004 0
          -3.2643680572509766 -0.18914400041103363 0 -3.3462131023406982 -0.1769271045923233 0
          -3.435275077819824 -0.1454842984676361 0 -3.613848924636841 -0.13029329478740692 0
          -3.778749942779541 0.2763518989086151 0
          <InformationKey name="L2_NORM_RANGE" location="vtkDataArray" length="2">
            <Value index="0">
              2.5330862087
            </Value>
            <Value index="1">
              4.4152174691
            </Value>
          </InformationKey>
        </DataArray>
      </Points>
      <Cells>
        <DataArray type="Int64" Name="connectivity" format="ascii" RangeMin="0" RangeMax="90">
          76 11 77 77 11 9
          9 14 7 77 9 6
          6 9 7 6 7 5
          10 16 8 16 21 8
          78 77 6 78 6 79
          7 14 10 7 10 5
          10 8 5 6 5 79
          5 8 3 3 8 12
          5 3 80 79 5 80
          8 21 12 12 23 4
          3 12 4 80 3 81
          81 3 4 4 23 13
          4 13 1 82 81 1
          1 13 26 4 1 81
          83 82 1 26 2 1
          1 2 0 0 84 83
          0 83 1 19 24 20
          34 39 38 28 31 30
          15 18 14 42 44 46
          24 28 25 11 15 9
          39 42 41 31 34 33
          18 19 17 17 19 20
          41 42 46 30 31 33
          38 39 41 14 18 17
          33 34 38 25 28 30
          20 24 25 9 15 14
          41 46 45 17 20 16
          30 33 32 38 41 40
          33 38 36 25 30 27
          20 25 22 14 17 10
          32 33 36 32 36 35
          27 30 32 27 32 35
          10 17 16 16 20 22
          36 38 40 36 40 35
          40 41 45 40 45 48
          22 25 27 22 27 21
          40 48 35 21 27 35
          22 21 16 21 35 29
          29 35 49 21 29 12
          35 48 49 12 29 23
          23 29 43 29 49 43
          43 49 74 23 43 37
          37 43 74 23 37 13
          13 37 26 66 26 69
          37 74 69 37 69 26
          47 51 54 56 85 61
          53 55 59 51 53 57
          55 56 60 44 47 50
          60 56 61 59 55 60
          54 51 57 50 47 54
          57 53 59 61 85 86
          46 44 50 61 86 87
          60 61 68 59 60 67
          50 54 58 57 59 64
          54 57 62 46 50 52
          64 59 67 64 67 73
          52 50 58 52 58 63
          62 57 64 62 64 70
          67 60 68 67 68 73
          45 46 52 45 52 48
          68 61 87 68 87 88
          58 54 62 58 70 63
          48 52 63 68 88 73
          64 73 70 70 73 75
          62 70 58 63 70 72
          48 63 65 65 63 72
          65 72 71 48 65 49
          73 88 89 72 70 75
          49 65 71 71 72 75
          73 89 75 75 89 90
          49 71 74 74 71 75
        </DataArray>
        <DataArray type="Int64" Name="offsets" format="ascii" RangeMin="3" RangeMax="426">
          3 6 9 12 15 18
          21 24 27 30 33 36
          39 42 45 48 51 54
          57 60 63 66 69 72
          75 78 81 84 87 90
          93 96 99 102 105 108
          111 114 117 120 123 126
          129 132 135 138 141 144
          147 150 153 156 159 162
          165 168 171 174 177 180
          183 186 189 192 195 198
          201 204 207 210 213 216
          219 222 225 228 231 234
          237 240 243 246 249 252
          255 258 261 264 267 270
          273 276 279 282 285 288
          291 294 297 300 303 306
          309 312 315 318 321 324
          327 330 333 336 339 342
          345 348 351 354 357 360
          363 366 369 372 375 378
          381 384 387 390 393 396
          399 402 405 408 411 414
          417 420 423 426
        </DataArray>
        <DataArray type="UInt8" Name="types" format="ascii" RangeMin="5" RangeMax="5">
          5 5 5 5 5 5
          5 5 5 5 5 5
          5 5 5 5 5 5
          5 5 5 5 5 5
          5 5 5 5 5 5
          5 5 5 5 5 5
          5 5 5 5 5 5
          5 5 5 5 5 5
          5 5 5 5 5 5
          5 5 5 5 5 5
          5 5 5 5 5 5
          5 5 5 5 5 5
          5 5 5 5 5 5
          5 5 5 5 5 5
          5 5 5 5 5 5
          5 5 5 5 5 5
          5 5 5 5 5 5
          5 5 5 5 5 5
          5 5 5 5 5 5
          5 5 5 5 5 5
          5 5 5 5 5 5
          5 5 5 5 5 5
          5 5 5 5 5 5
          5 5 5 5
        </DataArray>
      </Cells>
    </Piece>
  </UnstructuredGrid>
</VTKFile>
