<?xml version="1.0"?>
<VTKFile type="UnstructuredGrid" version="0.1" byte_order="LittleEndian" header_type="UInt32" compressor="vtkZLibDataCompressor">
  <UnstructuredGrid>
    <Piece NumberOfPoints="90" NumberOfCells="138">
      <PointData>
        <DataArray type="Float64" Name="ale_BC" NumberOfComponents="3" format="ascii" RangeMin="0" RangeMax="1">
          0 0 0 0 0 0
          0 0 0 0 0 0
          0 0 0 0 0 0
          0 0 0 0 0 0
          0 0 0 0 0 0
          0 0 0 0 0 0
          0 0 0 0 0 0
          0 0 0 0 0 0
          0 0 0 0 0 0
          0 0 0 0 0 0
          0 0 0 0 0 0
          0 0 0 0 0 0
          0 0 0 0 0 0
          0 0 0 0 0 0
          0 0 0 0 0 0
          0 0 0 0 0 0
          0 0 0 0 0 0
          0 0 0 0 0 0
          0 0 0 0 0 0
          0 0 0 0 0 0
          0 0 0 0 0 0
          0 0 0 0 0 0
          0 0 0 0 0 0
          0 0 0 0 0 0
          0 0 0 0 0 0
          0 0 0 0 0 0
          0 0 0 0 0 0
          0 0 0 0 0 0
          0 0 0 0 0 0
          0 0 0 0 0 0
          0 0 0 0 0 0
          0 0 0 0 0 0
          0 0 0 0 1 0
          0 1 0 0 1 0
          0 1 0 0 1 0
          0 0 0 0 1 0
          0 0 0 0 1 0
          0 0 0 0 0 0
          0 0 0 0 0 0
          0 0 0 0 0 0
          0 0 0 0 0 0
          0 0 0 0 0 0
          0 0 0 0 0 0
          0 0 0 0 1 0
          0 0 0 0 0 0
          <InformationKey name="L2_NORM_RANGE" location="vtkDataArray" length="2">
            <Value index="0">
              0
            </Value>
            <Value index="1">
              1
            </Value>
          </InformationKey>
        </DataArray>
        <DataArray type="Float64" Name="ale_FIXNO" NumberOfComponents="3" format="ascii" RangeMin="1.4142135623730951" RangeMax="1.4142135623730951">
          1 1 0 1 1 0
          1 1 0 -1 -1 0
          1 1 0 1 1 0
          -1 -1 0 -1 -1 0
          1 1 0 -1 -1 0
          1 1 0 -1 -1 0
          -1 -1 0 1 1 0
          1 1 0 -1 -1 0
          -1 -1 0 -1 -1 0
          -1 -1 0 1 1 0
          -1 -1 0 1 1 0
          -1 -1 0 -1 -1 0
          -1 -1 0 -1 -1 0
          -1 -1 0 -1 -1 0
          -1 -1 0 -1 -1 0
          -1 -1 0 1 1 0
          -1 -1 0 1 1 0
          -1 -1 0 -1 -1 0
          -1 -1 0 1 1 0
          -1 -1 0 -1 -1 0
          1 1 0 -1 -1 0
          -1 -1 0 -1 -1 0
          -1 -1 0 -1 -1 0
          -1 -1 0 -1 -1 0
          -1 -1 0 -1 -1 0
          -1 -1 0 -1 -1 0
          1 1 0 -1 -1 0
          -1 -1 0 -1 -1 0
          -1 -1 0 -1 -1 0
          -1 -1 0 -1 -1 0
          -1 -1 0 -1 -1 0
          -1 -1 0 -1 -1 0
          -1 -1 0 1 1 0
          1 1 0 1 1 0
          1 1 0 1 1 0
          -1 -1 0 1 1 0
          1 1 0 1 1 0
          -1 -1 0 -1 -1 0
          -1 -1 0 -1 -1 0
          -1 -1 0 -1 -1 0
          -1 -1 0 -1 -1 0
          -1 -1 0 -1 -1 0
          -1 -1 0 1 1 0
          1 1 0 1 1 0
          -1 -1 0 -1 -1 0
          <InformationKey name="L2_NORM_RANGE" location="vtkDataArray" length="2">
            <Value index="0">
              1.4142135624
            </Value>
            <Value index="1">
              1.4142135624
            </Value>
          </InformationKey>
        </DataArray>
      </PointData>
      <CellData>
        <DataArray type="UInt8" Name="vtkGhostType" format="ascii" RangeMin="0" RangeMax="0">
          0 0 0 0 0 0
          0 0 0 0 0 0
          0 0 0 0 0 0
          0 0 0 0 0 0
          0 0 0 0 0 0
          0 0 0 0 0 0
          0 0 0 0 0 0
          0 0 0 0 0 0
          0 0 0 0 0 0
          0 0 0 0 0 0
          0 0 0 0 0 0
          0 0 0 0 0 0
          0 0 0 0 0 0
          0 0 0 0 0 0
          0 0 0 0 0 0
          0 0 0 0 0 0
          0 0 0 0 0 0
          0 0 0 0 0 0
          0 0 0 0 0 0
          0 0 0 0 0 0
          0 0 0 0 0 0
          0 0 0 0 0 0
          0 0 0 0 0 0
        </DataArray>
      </CellData>
      <Points>
        <DataArray type="Float32" Name="Points" NumberOfComponents="3" format="ascii" RangeMin="0.4925037585854992" RangeMax="3.241639202700283">
          1.4129199981689453 -2.283679962158203 0 0.907881498336792 -2.283679962158203 0
          1.4129199981689453 -1.722815990447998 0 0.6326431035995483 -1.7119890451431274 0
          0.35740479826927185 -2.283679962158203 0 1.4129199981689453 -1.0868619680404663 0
          0.059433531016111374 -1.6774619817733765 0 0.3824875056743622 -1.0896049737930298 0
          -0.23853769898414612 -2.283679962158203 0 0.806702196598053 -0.7360177040100098 0
          1.4129199981689453 -0.385173499584198 0 0.2064553052186966 -0.44714221358299255 0
          -0.619378924369812 -1.3252979516983032 0 -0.878979504108429 -2.283679962158203 0
          1.4129199981689453 0.30109289288520813 0 -0.6569300293922424 -0.6375854015350342 0
          -1.2383860349655151 -1.5356910228729248 0 0.4232785999774933 0.2915497124195099 0
          -1.2108949422836304 -1.0468310117721558 0 -1.546241044998169 -2.283679962158203 0
          -1.110461950302124 -0.38141998648643494 0 1.4129199981689453 0.9209179282188416 0
          -0.6843001842498779 0.15095679461956024 0 -1.8212720155715942 -1.7605379819869995 0
          0.649957001209259 0.9192463755607605 0 -1.7890180349349976 -1.240535020828247 0
          0.09380452334880829 0.87192302942276 0 -1.7670819759368896 -0.7970244288444519 0
          -2.194478988647461 -1.3969999551773071 0 -1.3651809692382812 0.18890820443630219 0
          -1.7087509632110596 -0.20195959508419037 0 1.4129199981689453 1.4731700420379639 0
          -0.9438074827194214 0.680571973323822 0 0.9166414141654968 1.4731700420379639 0
          -2.171736001968384 -1.0346059799194336 0 -1.9640419483184814 -0.49340009689331055 0
          -2.1254830360412598 -0.7467296123504639 0 0.38327258825302124 1.4731700420379639 0
          -2.4568591117858887 -1.145993947982788 0 -2.260205030441284 -0.5436676740646362 0
          -0.19566360116004944 1.4731700420379639 0 -2.4337658882141113 -0.876357913017273 0
          -2.3592519760131836 -0.6779099106788635 0 -1.8855739831924438 0.1918828934431076 0
          -2.119029998779297 -0.06761106103658676 0 -2.2871220111846924 -0.25536561012268066 0
          -2.4737329483032227 -0.5579921007156372 0 -2.5426599979400635 -0.6944894194602966 0
          -2.452078104019165 -0.39634451270103455 0 -1.733451008796692 0.7286168932914734 0
          -2.6121668815612793 -0.6007289290428162 0 -2.556238889694214 -0.4625073969364166 0
          -0.8195893168449402 1.4731700420379639 0 -2.589745044708252 -0.5272238254547119 0
          -2.4644439220428467 -0.2509022057056427 0 -2.657727003097534 -0.6464416980743408 0
          -2.5553879737854004 -0.38882800936698914 0 -2.6636691093444824 -0.5359575748443604 0
          -2.5618269443511963 -0.31523561477661133 0 -2.642914056777954 -0.47893279790878296 0
          -2.694011926651001 -0.5885120034217834 0 -2.632375955581665 -0.4191702902317047 0
          -2.7330191135406494 -0.6349989771842957 0 -2.632375955581665 -0.35848569869995117 0
          -2.580946922302246 -0.24387919902801514 0 -2.701296091079712 -0.4899730086326599 0
          -2.7230820655822754 -0.536692202091217 0 -2.6879539489746094 -0.4401806890964508 0
          -2.7526490688323975 -0.5789185166358948 0 -2.683461904525757 -0.38882800936698914 0
          -2.642914056777954 -0.2987231910228729 0 -2.6879539489746094 -0.3374752998352051 0
          -1.4868500232696533 1.4731700420379639 0 -2.789099931716919 -0.6153690218925476 0
          -2.779505968093872 -0.6740062832832336 0 -2.706774950027466 -0.7134789824485779 0
          -2.5443649291992188 -0.10779819637537003 0 -2.6877200603485107 -0.8177986741065979 0
          -2.3709781169891357 -0.062260668724775314 0 -2.690108060836792 -1.0087660551071167 0
          -2.2300779819488525 0.13570579886436462 0 -2.8477039337158203 -1.4020040035247803 0
          -2.059462070465088 0.44021978974342346 0 -2.265990972518921 0.6523954272270203 0
          -2.691119909286499 -1.8072350025177002 0 -2.170166015625 -2.283679962158203 0
          -2.1272919178009033 1.4731700420379639 0 -2.701296091079712 -0.28768301010131836 0
          -2.6636691093444824 -0.24169839918613434 0 -2.6271650791168213 -0.17486029863357544 0
          <InformationKey name="L2_NORM_RANGE" location="vtkDataArray" length="2">
            <Value index="0">
              0.49250375859
            </Value>
            <Value index="1">
              3.2416392027
            </Value>
          </InformationKey>
        </DataArray>
      </Points>
      <Cells>
        <DataArray type="Int64" Name="connectivity" format="ascii" RangeMin="0" RangeMax="89">
          69 67 61 68 73 62
          65 66 57 67 65 59
          66 68 60 61 67 59
          59 65 57 57 66 60
          62 73 74 63 69 61
          60 68 62 61 59 51
          59 57 53 63 61 56
          70 63 58 57 60 50
          62 74 75 60 62 55
          51 59 53 51 53 46
          64 70 58 64 58 54
          53 57 50 53 50 46
          58 63 56 58 48 54
          50 60 55 50 55 47
          56 61 51 56 51 48
          55 62 75 55 75 47
          64 54 76 75 77 47
          50 47 46 58 56 48
          48 51 46 48 46 39
          54 48 45 45 48 39
          54 45 78 78 76 54
          46 47 42 42 47 41
          46 42 39 39 42 36
          77 79 41 47 77 41
          78 45 44 42 41 36
          80 78 44 80 44 43
          39 36 35 44 45 35
          41 79 38 38 79 81
          41 38 34 45 39 35
          35 36 27 34 38 28
          41 34 36 36 34 27
          43 44 30 80 43 82
          82 43 49 83 82 49
          35 27 30 28 38 84
          34 28 25 35 30 44
          43 30 29 81 84 38
          25 28 23 34 25 27
          27 25 18 31 33 21
          49 43 29 49 29 32
          1 0 2 29 30 20
          23 28 84 25 23 16
          33 37 24 4 1 3
          37 40 26 8 4 6
          30 27 20 18 25 16
          18 16 12 27 18 20
          24 37 26 24 26 17
          33 24 21 14 21 24
          85 19 23 23 19 16
          40 52 32 29 20 22
          3 1 2 4 3 6
          6 3 7 85 23 84
          13 8 12 2 5 3
          72 86 49 32 29 22
          32 22 26 49 32 72
          12 16 13 18 12 15
          19 13 16 52 72 32
          26 40 32 17 26 22
          24 17 14 20 18 15
          20 15 22 7 3 5
          6 7 12 8 6 12
          83 49 86 5 10 9
          10 14 17 15 12 7
          9 10 17 5 9 7
          7 9 11 11 9 17
          7 11 15 22 15 11
          11 17 22 87 71 70
          71 69 63 88 87 70
          70 71 63 88 70 64
          89 88 64 89 64 76
        </DataArray>
        <DataArray type="Int64" Name="offsets" format="ascii" RangeMin="3" RangeMax="414">
          3 6 9 12 15 18
          21 24 27 30 33 36
          39 42 45 48 51 54
          57 60 63 66 69 72
          75 78 81 84 87 90
          93 96 99 102 105 108
          111 114 117 120 123 126
          129 132 135 138 141 144
          147 150 153 156 159 162
          165 168 171 174 177 180
          183 186 189 192 195 198
          201 204 207 210 213 216
          219 222 225 228 231 234
          237 240 243 246 249 252
          255 258 261 264 267 270
          273 276 279 282 285 288
          291 294 297 300 303 306
          309 312 315 318 321 324
          327 330 333 336 339 342
          345 348 351 354 357 360
          363 366 369 372 375 378
          381 384 387 390 393 396
          399 402 405 408 411 414
        </DataArray>
        <DataArray type="UInt8" Name="types" format="ascii" RangeMin="5" RangeMax="5">
          5 5 5 5 5 5
          5 5 5 5 5 5
          5 5 5 5 5 5
          5 5 5 5 5 5
          5 5 5 5 5 5
          5 5 5 5 5 5
          5 5 5 5 5 5
          5 5 5 5 5 5
          5 5 5 5 5 5
          5 5 5 5 5 5
          5 5 5 5 5 5
          5 5 5 5 5 5
          5 5 5 5 5 5
          5 5 5 5 5 5
          5 5 5 5 5 5
          5 5 5 5 5 5
          5 5 5 5 5 5
          5 5 5 5 5 5
          5 5 5 5 5 5
          5 5 5 5 5 5
          5 5 5 5 5 5
          5 5 5 5 5 5
          5 5 5 5 5 5
        </DataArray>
      </Cells>
    </Piece>
  </UnstructuredGrid>
</VTKFile>
