<?xml version="1.0"?>
<VTKFile type="UnstructuredGrid" version="0.1" byte_order="LittleEndian" header_type="UInt32" compressor="vtkZLibDataCompressor">
  <UnstructuredGrid>
    <Piece NumberOfPoints="24" NumberOfCells="41">
      <PointData>
        <DataArray type="Float64" Name="Temperature" format="ascii" RangeMin="0" RangeMax="0.5468805462663453">
          0.38617055490097385 0.5191482129729319 0.36532731694544296 0.37885460008540667 0.49410715722847265 0
          0.36743471748361217 0 0.3744405836736849 0.36944561791858965 0.49415664827269606 0.37001817773140183
          0.4889025002600801 0.49840938710965255 0.37333561391585435 0 0.4780558050409507 0
          0 0 0.3877798559497954 0 0.5468805462663453 0.5205046913464331
        </DataArray>
      </PointData>
      <CellData>
        <DataArray type="UInt8" Name="vtkGhostType" format="ascii" RangeMin="1" RangeMax="1">
          1 1 1 1 1 1
          1 1 1 1 1 1
          1 1 1 1 1 1
          1 1 1 1 1 1
          1 1 1 1 1 1
          1 1 1 1 1 1
          1 1 1 1 1
        </DataArray>
      </CellData>
      <Points>
        <DataArray type="Float32" Name="Points" NumberOfComponents="3" format="ascii" RangeMin="0" RangeMax="1.7320508075688772">
          1 0.5 0.5 0.5 1 1
          0 0.5 0.5 0.5 0.5 0.5
          1 1 0 1 0 0
          1 0.5 0 0 0 0
          0.5 0.5 0 0 0.5 0
          0 1 1 0 0.5 1
          0 1 0.5 0.5 1 0.5
          0.5 0.5 1 0.5 0 1
          0.5 1 0 0.5 0 0
          0 0 0.5 0.5 0 0.5
          1 0.5 1 1 0 0.5
          1 1 1 1 1 0.5
          <InformationKey name="L2_NORM_RANGE" location="vtkDataArray" length="2">
            <Value index="0">
              0
            </Value>
            <Value index="1">
              1.7320508076
            </Value>
          </InformationKey>
        </DataArray>
      </Points>
      <Cells>
        <DataArray type="Int64" Name="connectivity" format="ascii" RangeMin="0" RangeMax="23">
          7 17 8 3 5 6
          17 0 4 8 6 23
          22 23 0 3 8 3
          17 6 6 3 17 0
          8 6 23 3 3 6
          23 0 5 21 0 17
          22 0 20 3 7 3
          19 17 0 17 21 19
          20 0 21 19 0 20
          3 19 17 0 3 19
          4 23 13 8 22 1
          23 3 10 13 1 2
          7 2 3 8 13 8
          23 3 1 13 23 3
          13 1 2 3 8 13
          2 3 10 1 11 2
          22 14 1 3 7 3
          2 18 14 18 11 2
          1 14 11 2 14 1
          3 2 18 14 3 2
          7 9 2 8 10 2
          12 13 4 13 16 8
          2 8 9 12 2 12
          13 8 7 18 19 3
          22 20 14 3 19 3
          18 15 15 3 18 14
          19 15 20 3 3 15
          20 14
        </DataArray>
        <DataArray type="Int64" Name="offsets" format="ascii" RangeMin="4" RangeMax="164">
          4 8 12 16 20 24
          28 32 36 40 44 48
          52 56 60 64 68 72
          76 80 84 88 92 96
          100 104 108 112 116 120
          124 128 132 136 140 144
          148 152 156 160 164
        </DataArray>
        <DataArray type="UInt8" Name="types" format="ascii" RangeMin="10" RangeMax="10">
          10 10 10 10 10 10
          10 10 10 10 10 10
          10 10 10 10 10 10
          10 10 10 10 10 10
          10 10 10 10 10 10
          10 10 10 10 10 10
          10 10 10 10 10
        </DataArray>
      </Cells>
    </Piece>
  </UnstructuredGrid>
</VTKFile>
