<?xml version="1.0"?>
<VTKFile type="UnstructuredGrid" version="0.1" byte_order="LittleEndian" header_type="UInt32" compressor="vtkZLibDataCompressor">
  <UnstructuredGrid>
    <Piece NumberOfPoints="45" NumberOfCells="69">
      <PointData>
        <DataArray type="Float64" Name="Temperature" format="ascii" RangeMin="0" RangeMax="0.5295282548474354">
          0 0.5210441412612453 0 0.5059993004654437 0.49729303630727195 0.511073303389607
          0.46867551219821874 0.4644793770296116 0.5039762649028454 0.47368791453460124 0.5171623626438797 0.4704570151720416
          0 0.36542750724379003 0.3736314460621956 0.5057930969608315 0.37380334610492477 0
          0 0 0.3888709043583386 0.38660114473691604 0.5295282548474354 0.3783992735802256
          0.488811499797684 0.4583777030464016 0.4634837611983618 0.5032076793231701 0.4565828705212219 0.3719133904120078
          0.376014325990353 0.45345938696180454 0.3760153598212106 0.4919761722499064 0.4420961852705286 0.5176606759041334
          0.4698735518914905 0.4516658004761801 0.37610130984257517 0.38133712523163166 0.4774670025672872 0.38773602454762734
          0.3836350889692821 0.38250020915857086 0.4539637642138305
        </DataArray>
      </PointData>
      <CellData>
        <DataArray type="UInt8" Name="vtkGhostType" format="ascii" RangeMin="0" RangeMax="1">
          1 1 1 1 1 1
          1 1 1 0 0 0
          0 0 0 0 0 1
          1 1 1 1 1 1
          1 1 1 1 1 1
          1 1 1 1 1 1
          1 1 0 0 0 0
          0 0 0 0 1 1
          1 1 1 1 1 1
          1 1 1 1 1 1
          1 1 1 1 1 1
          1 1 1
        </DataArray>
      </CellData>
      <Points>
        <DataArray type="Float32" Name="Points" NumberOfComponents="3" format="ascii" RangeMin="0.5" RangeMax="1.7320508075688772">
          1 0 0.5 1 1 1
          1 0 1 1 1 0.5
          1 1 0.25 1 1 0.75
          1 0.75 0.5 0.75 0.75 0.5
          0.75 1 0.75 1 0.75 0.75
          0.75 1 1 0.75 0.75 0.75
          1 0 0 1 0.5 0
          0.5 0.5 0 0.5 1 0.5
          0.5 0.5 1 0.5 0 1
          0.5 0 0 0.5 0 0.5
          1 0.5 1 1 0.5 0.5
          0.5 1 1 0.5 0.5 0.5
          1 1 0 0.75 0.75 0.25
          1 0.75 0.25 0.75 1 0.5
          1 0.75 0 0.75 0.5 0.25
          1 0.5 0.25 0.75 0.75 0
          0.5 0.5 0.25 0.75 1 0.25
          0.5 0.75 0.5 0.5 1 0.75
          0.75 0.75 1 0.5 0.75 1
          0.5 0.5 0.75 0.75 0.5 1
          1 0.75 1 1 0.5 0.75
          0.75 0.5 0.75 0.75 0.5 0.5
          0.5 0.75 0.75
          <InformationKey name="L2_NORM_RANGE" location="vtkDataArray" length="2">
            <Value index="0">
              0.5
            </Value>
            <Value index="1">
              1.7320508076
            </Value>
          </InformationKey>
        </DataArray>
      </Points>
      <Cells>
        <DataArray type="Int64" Name="connectivity" format="ascii" RangeMin="0" RangeMax="44">
          12 0 21 18 2 20
          0 19 21 18 0 19
          20 21 0 19 2 19
          17 20 24 31 28 4
          3 26 25 4 28 4
          31 25 4 28 26 25
          1 5 9 11 3 6
          5 7 21 9 6 43
          23 43 7 11 9 11
          5 6 6 11 5 7
          9 6 43 11 11 6
          43 7 3 25 26 7
          23 7 29 32 25 26
          7 29 32 25 7 29
          23 29 7 43 3 7
          26 6 21 6 30 43
          7 43 29 26 7 26
          6 43 43 26 6 30
          1 9 40 11 21 41
          9 43 23 42 43 11
          40 11 9 41 41 11
          9 43 40 41 42 11
          11 41 42 43 24 4
          33 31 3 27 4 25
          33 31 4 25 27 33
          4 25 1 10 5 11
          22 8 10 44 3 5
          8 7 23 7 44 11
          5 11 10 8 8 11
          10 44 5 8 7 11
          11 8 7 44 3 27
          25 7 23 7 32 34
          27 25 7 34 34 25
          7 32 22 35 8 44
          3 8 27 7 23 7
          34 44 8 44 35 27
          8 27 7 44 44 27
          7 34 1 36 10 11
          22 10 37 44 23 44
          38 11 10 11 36 37
          37 11 36 38 10 37
          44 11 11 37 44 38
          1 40 36 11 23 38
          42 11 36 11 40 39
          39 11 40 42 36 39
          38 11 11 39 38 42
        </DataArray>
        <DataArray type="Int64" Name="offsets" format="ascii" RangeMin="4" RangeMax="276">
          4 8 12 16 20 24
          28 32 36 40 44 48
          52 56 60 64 68 72
          76 80 84 88 92 96
          100 104 108 112 116 120
          124 128 132 136 140 144
          148 152 156 160 164 168
          172 176 180 184 188 192
          196 200 204 208 212 216
          220 224 228 232 236 240
          244 248 252 256 260 264
          268 272 276
        </DataArray>
        <DataArray type="UInt8" Name="types" format="ascii" RangeMin="10" RangeMax="10">
          10 10 10 10 10 10
          10 10 10 10 10 10
          10 10 10 10 10 10
          10 10 10 10 10 10
          10 10 10 10 10 10
          10 10 10 10 10 10
          10 10 10 10 10 10
          10 10 10 10 10 10
          10 10 10 10 10 10
          10 10 10 10 10 10
          10 10 10 10 10 10
          10 10 10
        </DataArray>
      </Cells>
    </Piece>
  </UnstructuredGrid>
</VTKFile>
