<?xml version="1.0"?>
<VTKFile type="UnstructuredGrid" version="0.1" byte_order="LittleEndian" header_type="UInt32" compressor="vtkZLibDataCompressor">
  <UnstructuredGrid>
    <Piece NumberOfPoints="13" NumberOfCells="13">
      <PointData>
        <DataArray type="Float64" Name="Temperature" format="ascii" RangeMin="0" RangeMax="0.546880348604483">
          0 0 0.38777973082024747 0 0 0.546880348604483
          0.38617043059974815 0.373335491101477 0 0 0.3788544771831125 0
          0
        </DataArray>
      </PointData>
      <CellData>
        <DataArray type="UInt8" Name="vtkGhostType" format="ascii" RangeMin="1" RangeMax="1">
          1 1 1 1 1 1
          1 1 1 1 1 1
          1
        </DataArray>
      </CellData>
      <Points>
        <DataArray type="Float32" Name="Points" NumberOfComponents="3" format="ascii" RangeMin="0.5" RangeMax="1.7320508075688772">
          1 0 1 0.5 0 1
          1 0.5 1 1 0 0.5
          0 0 1 1 1 1
          1 0.5 0.5 0.5 0.5 1
          1 0 0 0 0 0.5
          0.5 0.5 0.5 0.5 0 0.5
          0.5 0 0
          <InformationKey name="L2_NORM_RANGE" location="vtkDataArray" length="2">
            <Value index="0">
              0.5
            </Value>
            <Value index="1">
              1.7320508076
            </Value>
          </InformationKey>
        </DataArray>
      </Points>
      <Cells>
        <DataArray type="Int64" Name="connectivity" format="ascii" RangeMin="0" RangeMax="12">
          4 1 9 7 0 11
          1 2 5 2 7 10
          11 10 9 1 1 10
          9 7 11 1 2 10
          10 1 2 7 8 3
          6 12 0 2 3 11
          5 6 2 10 6 12
          3 11 2 6 3 11
          6 2 10 11
        </DataArray>
        <DataArray type="Int64" Name="offsets" format="ascii" RangeMin="4" RangeMax="52">
          4 8 12 16 20 24
          28 32 36 40 44 48
          52
        </DataArray>
        <DataArray type="UInt8" Name="types" format="ascii" RangeMin="10" RangeMax="10">
          10 10 10 10 10 10
          10 10 10 10 10 10
          10
        </DataArray>
      </Cells>
    </Piece>
  </UnstructuredGrid>
</VTKFile>
