<?xml version="1.0"?>
<VTKFile type="UnstructuredGrid" version="0.1" byte_order="LittleEndian" header_type="UInt32" compressor="vtkZLibDataCompressor">
  <UnstructuredGrid>
    <Piece NumberOfPoints="18" NumberOfCells="22">
      <PointData>
        <DataArray type="Float64" Name="Temperature" format="ascii" RangeMin="0" RangeMax="0.5205046913464331">
          0 0.36743471748361217 0 0.3744405836736849 0.36944561791858965 0.4889025002600801
          0.4663013062263496 0.49840938710965255 0.4780558050409507 0 0 0
          0 0.5205046913464331 0.38617055490097385 0.36532731694544296 0.37885460008540667 0.49410715722847265
        </DataArray>
      </PointData>
      <CellData>
        <DataArray type="UInt8" Name="vtkGhostType" format="ascii" RangeMin="0" RangeMax="0">
          0 0 0 0 0 0
          0 0 0 0 0 0
          0 0 0 0 0 0
          0 0 0 0
        </DataArray>
      </CellData>
      <Points>
        <DataArray type="Float32" Name="Points" NumberOfComponents="3" format="ascii" RangeMin="0" RangeMax="1.5">
          1 0 0 1 0.5 0
          0 0 0 0.5 0.5 0
          0 0.5 0 0 1 0.5
          0 1 0 0.5 1 0.5
          0.5 1 0 0.5 0 0
          0 0 0.5 0.5 0 0.5
          1 0 0.5 1 1 0.5
          1 0.5 0.5 0 0.5 0.5
          0.5 0.5 0.5 1 1 0
          <InformationKey name="L2_NORM_RANGE" location="vtkDataArray" length="2">
            <Value index="0">
              0
            </Value>
            <Value index="1">
              1.5
            </Value>
          </InformationKey>
        </DataArray>
      </Points>
      <Cells>
        <DataArray type="Int64" Name="connectivity" format="ascii" RangeMin="0" RangeMax="17">
          2 9 3 16 0 1
          9 14 17 3 1 13
          3 16 9 1 1 16
          9 14 3 1 13 16
          16 1 13 14 0 12
          14 9 2 16 11 9
          17 13 7 3 2 15
          16 3 7 3 13 16
          3 7 15 16 2 16
          15 10 2 4 15 3
          6 5 4 8 17 7
          8 3 15 3 4 5
          5 3 4 8 15 5
          7 3 3 5 7 8
          2 10 11 16
        </DataArray>
        <DataArray type="Int64" Name="offsets" format="ascii" RangeMin="4" RangeMax="88">
          4 8 12 16 20 24
          28 32 36 40 44 48
          52 56 60 64 68 72
          76 80 84 88
        </DataArray>
        <DataArray type="UInt8" Name="types" format="ascii" RangeMin="10" RangeMax="10">
          10 10 10 10 10 10
          10 10 10 10 10 10
          10 10 10 10 10 10
          10 10 10 10
        </DataArray>
      </Cells>
    </Piece>
  </UnstructuredGrid>
</VTKFile>
