<?xml version="1.0"?>
<VTKFile type="UnstructuredGrid" version="0.1" byte_order="LittleEndian" header_type="UInt32" compressor="vtkZLibDataCompressor">
  <UnstructuredGrid>
    <Piece NumberOfPoints="44" NumberOfCells="67">
      <PointData>
        <DataArray type="Float64" Name="Temperature" format="ascii" RangeMin="0" RangeMax="0.5295282548474354">
          0.5057930969608315 0 0.37380334610492477 0 0.48271622257865804 0.4919761722499064
          0.5032076793231701 0.4420961852705286 0.5176606759041334 0.4942546597697448 0.4698735518914905 0.4516658004761801
          0.37610130984257517 0.38133712523163166 0.48723730497321377 0.3736314460621956 0.3696768148794287 0.5002935221553217
          0.3712653241036461 0.4937709424445194 0.469554659907481 0 0 0.3888709043583386
          0.5210441412612453 0 0.5059993004654437 0.5295282548474354 0.3661396776266577 0.3783992735802256
          0.488811499797684 0.4397122715115136 0.4281738343204268 0.45345938696180454 0.4583777030464016 0.3760153598212106
          0.4774670025672872 0.3836350889692821 0.49729303630727195 0.4644793770296116 0.5039762649028454 0.4539637642138305
          0.5171623626438797 0.4704570151720416
        </DataArray>
      </PointData>
      <CellData>
        <DataArray type="UInt8" Name="vtkGhostType" format="ascii" RangeMin="0" RangeMax="1">
          1 0 1 1 1 1
          0 0 1 1 1 1
          1 0 0 0 0 0
          0 1 1 1 1 1
          1 1 1 1 1 1
          1 1 1 0 0 0
          0 0 0 0 0 0
          0 0 0 0 0 0
          0 1 1 1 1 1
          1 1 0 0 0 0
          0 0 0 0 1 1
          1
        </DataArray>
      </CellData>
      <Points>
        <DataArray type="Float32" Name="Points" NumberOfComponents="3" format="ascii" RangeMin="0.5" RangeMax="1.7320508075688772">
          0.5 1 0.5 0 0 1
          0.5 0.5 1 0.5 0 1
          0.5 1 0 0.75 1 0.25
          0.75 1 0.5 0.5 0.75 0.5
          0.5 1 0.75 0.5 1 0.25
          0.75 0.75 1 0.5 0.75 1
          0.5 0.5 0.75 0.75 0.5 1
          0.75 1 0 0.5 0.5 0
          0 0.5 0 0 1 1
          0 0.5 1 0 1 0.5
          0 1 0 0 0 0.5
          0.5 0 0.5 1 0.5 1
          1 1 1 1 0 1
          1 1 0.5 0.5 1 1
          0 0.5 0.5 0.5 0.5 0.5
          1 1 0 0.5 0.75 0.25
          0.5 0.75 0 0.75 0.75 0
          0.75 0.75 0.25 0.5 0.5 0.25
          1 0.75 1 0.75 0.5 0.75
          1 1 0.25 0.75 0.75 0.5
          0.75 1 0.75 0.5 0.75 0.75
          0.75 1 1 0.75 0.75 0.75
          <InformationKey name="L2_NORM_RANGE" location="vtkDataArray" length="2">
            <Value index="0">
              0.5
            </Value>
            <Value index="1">
              1.7320508076
            </Value>
          </InformationKey>
        </DataArray>
      </Points>
      <Cells>
        <DataArray type="Int64" Name="connectivity" format="ascii" RangeMin="0" RangeMax="43">
          17 0 27 28 0 27
          28 29 15 0 28 29
          1 18 2 21 2 21
          18 28 27 2 18 28
          2 27 29 28 21 2
          29 28 20 19 16 4
          17 28 19 0 19 15
          16 4 28 19 0 15
          15 19 0 4 1 3
          21 2 25 22 3 23
          22 29 21 3 3 29
          21 2 22 3 23 29
          29 3 23 2 30 38
          5 33 26 6 38 34
          0 5 6 31 5 33
          38 34 6 5 38 34
          5 6 31 34 33 5
          31 34 0 31 6 7
          26 6 34 39 29 39
          35 7 6 7 31 34
          34 7 31 35 6 34
          39 7 7 34 39 35
          27 8 40 41 0 6
          8 7 26 40 6 39
          29 39 7 41 40 41
          8 6 6 41 8 7
          40 6 39 41 41 6
          39 7 24 10 42 43
          2 11 10 12 27 42
          11 41 29 41 12 43
          42 43 10 11 11 43
          10 12 42 11 41 43
          43 11 41 12 30 5
          14 33 0 9 5 31
          4 14 9 32 14 33
          5 9 9 33 5 31
          14 9 32 33 33 9
          32 31 24 36 10 43
          23 13 36 37 2 10
          13 12 29 12 37 43
          10 43 36 13 13 43
          36 37 10 13 12 43
          43 13 12 37 15 31
          34 33 15 34 31 35
          15 32 31 33
        </DataArray>
        <DataArray type="Int64" Name="offsets" format="ascii" RangeMin="4" RangeMax="268">
          4 8 12 16 20 24
          28 32 36 40 44 48
          52 56 60 64 68 72
          76 80 84 88 92 96
          100 104 108 112 116 120
          124 128 132 136 140 144
          148 152 156 160 164 168
          172 176 180 184 188 192
          196 200 204 208 212 216
          220 224 228 232 236 240
          244 248 252 256 260 264
          268
        </DataArray>
        <DataArray type="UInt8" Name="types" format="ascii" RangeMin="10" RangeMax="10">
          10 10 10 10 10 10
          10 10 10 10 10 10
          10 10 10 10 10 10
          10 10 10 10 10 10
          10 10 10 10 10 10
          10 10 10 10 10 10
          10 10 10 10 10 10
          10 10 10 10 10 10
          10 10 10 10 10 10
          10 10 10 10 10 10
          10 10 10 10 10 10
          10
        </DataArray>
      </Cells>
    </Piece>
  </UnstructuredGrid>
</VTKFile>
