<?xml version="1.0"?>
<VTKFile type="UnstructuredGrid" version="0.1" byte_order="LittleEndian" header_type="UInt32" compressor="vtkZLibDataCompressor">
  <UnstructuredGrid>
    <Piece NumberOfPoints="36" NumberOfCells="25">
      <PointData>
        <DataArray type="Float64" Name="nsi_SBC" NumberOfComponents="3" format="ascii" RangeMin="0" RangeMax="0">
          0 0 0 0 0 0
          0 0 0 0 0 0
          0 0 0 0 0 0
          0 0 0 0 0 0
          0 0 0 0 0 0
          0 0 0 0 0 0
          0 0 0 0 0 0
          0 0 0 0 0 0
          0 0 0 0 0 0
          0 0 0 0 0 0
          0 0 0 0 0 0
          0 0 0 0 0 0
          0 0 0 0 0 0
          0 0 0 0 0 0
          0 0 0 0 0 0
          0 0 0 0 0 0
          0 0 0 0 0 0
          0 0 0 0 0 0
          <InformationKey name="L2_NORM_RANGE" location="vtkDataArray" length="2">
            <Value index="0">
              0
            </Value>
            <Value index="1">
              0
            </Value>
          </InformationKey>
        </DataArray>
        <DataArray type="Float64" Name="nsi_SFIXNO" NumberOfComponents="3" format="ascii" RangeMin="1.7320508075688772" RangeMax="1.7320508075688772">
          1 1 1 1 1 1
          1 1 1 -1 -1 -1
          1 1 1 1 1 1
          -1 -1 -1 -1 -1 -1
          -1 -1 -1 1 1 1
          1 1 1 -1 -1 -1
          -1 -1 -1 -1 -1 -1
          -1 -1 -1 1 1 1
          1 1 1 -1 -1 -1
          -1 -1 -1 -1 -1 -1
          -1 -1 -1 -1 -1 -1
          1 1 1 1 1 1
          -1 -1 -1 -1 -1 -1
          1 1 1 1 1 1
          1 1 1 1 1 1
          -1 -1 -1 1 1 1
          1 1 1 1 1 1
          1 1 1 1 1 1
          <InformationKey name="L2_NORM_RANGE" location="vtkDataArray" length="2">
            <Value index="0">
              1.7320508076
            </Value>
            <Value index="1">
              1.7320508076
            </Value>
          </InformationKey>
        </DataArray>
        <DataArray type="Float64" Name="nsi_UBC" NumberOfComponents="3" format="ascii" RangeMin="0" RangeMax="0">
          0 0 0 0 0 0
          0 0 0 0 0 0
          0 0 0 0 0 0
          0 0 0 0 0 0
          0 0 0 0 0 0
          0 0 0 0 0 0
          0 0 0 0 0 0
          0 0 0 0 0 0
          0 0 0 0 0 0
          0 0 0 0 0 0
          0 0 0 0 0 0
          0 0 0 0 0 0
          0 0 0 0 0 0
          0 0 0 0 0 0
          0 0 0 0 0 0
          0 0 0 0 0 0
          0 0 0 0 0 0
          0 0 0 0 0 0
          <InformationKey name="L2_NORM_RANGE" location="vtkDataArray" length="2">
            <Value index="0">
              0
            </Value>
            <Value index="1">
              0
            </Value>
          </InformationKey>
        </DataArray>
        <DataArray type="Float64" Name="nsi_UFIXNO" NumberOfComponents="3" format="ascii" RangeMin="1.4142135623730951" RangeMax="1.4142135623730951">
          1 1 0 1 1 0
          1 1 0 -1 -1 0
          1 1 0 1 1 0
          -1 -1 0 -1 -1 0
          -1 -1 0 1 1 0
          1 1 0 -1 -1 0
          -1 -1 0 -1 -1 0
          -1 -1 0 1 1 0
          1 1 0 -1 -1 0
          -1 -1 0 -1 -1 0
          -1 -1 0 -1 -1 0
          1 1 0 1 1 0
          -1 -1 0 -1 -1 0
          1 1 0 1 1 0
          1 1 0 1 1 0
          -1 -1 0 1 1 0
          1 1 0 1 1 0
          1 1 0 1 1 0
          <InformationKey name="L2_NORM_RANGE" location="vtkDataArray" length="2">
            <Value index="0">
              1.4142135624
            </Value>
            <Value index="1">
              1.4142135624
            </Value>
          </InformationKey>
        </DataArray>
        <DataArray type="Float64" Name="Velocity" NumberOfComponents="3" format="ascii" RangeMin="8.48528137572008" RangeMax="14.142135625257326">
          6.000000001047585 -10.00000000107931 0 6.800000000733929 -10.00000000107931 0
          6.000000001047586 -9.200000000992961 0 6.799997153801873 -9.199996895096001 0
          7.600000000820276 -10.000000001079309 0 6.000000001047586 -8.40000000090662 0
          6.80000110776817 -8.399997970592661 0 7.59999831976332 -9.200001215859874 0
          7.600002080575081 -8.400001868918874 0 8.40000000090662 -10.00000000107931 0
          6.000000001047586 -7.600000000820275 0 8.399996800964159 -9.1999988798147 0
          6.799999303187167 -7.59999614008036 0 8.400002121134175 -8.399999704989083 0
          7.6000002452781334 -7.600001363886773 0 9.200000000992961 -10.00000000107931 0
          6.000000001047587 -6.80000000073393 0 6.799999287765638 -6.7999977136494 0
          9.19999798672626 -9.199998269594852 0 8.400000230841163 -7.599999672881904 0
          7.599999400639681 -6.800001684098849 0 9.200001988397268 -8.399998186801644 0
          6.000000001047585 -6.000000001047585 0 10.00000000107931 -10.00000000107931 0
          8.399999930526258 -6.8000001969482735 0 9.20000050727965 -7.599999028632337 0
          6.800000000733929 -6.000000001047586 0 10.00000000107931 -9.200000000992961 0
          7.600000000820275 -6.000000001047586 0 10.00000000107931 -8.40000000090662 0
          9.200000938344429 -6.800000277652638 0 8.40000000090662 -6.000000001047586 0
          10.00000000107931 -7.600000000820274 0 9.20000000099296 -6.000000001047587 0
          10.00000000107931 -6.80000000073393 0 10.00000000107931 -6.000000001047585 0
          <InformationKey name="L2_NORM_RANGE" location="vtkDataArray" length="2">
            <Value index="0">
              8.4852813757
            </Value>
            <Value index="1">
              14.142135625
            </Value>
          </InformationKey>
        </DataArray>
        <DataArray type="Float64" Name="Pressure" format="ascii" RangeMin="0.000035823349187456876" RangeMax="1.9999807178907354">
          1.0000000002079308 1.200175843225461 0.8001796789233797 1.0004762033233596 1.400060008190541 0.600056584427249
          0.800292328008818 1.200285357182441 1.0001766720596534 1.5999931416800806 0.39997777798279105 1.400249891521467
          0.6002454764330031 1.200185661528023 0.8001811637955222 1.7999011695556595 0.19990787147463548 0.4002691382985229
          1.600257983522399 1.000189044253159 0.6002338307914026 1.4002285611452676 0.000035823349187456876 1.9999807178907354
          0.8002622853466872 1.200262132261631 0.1998796367749517 1.7998650113260042 0.3999951934470947 1.5999946855135676
          1.0004016831547449 0.6000426132938219 1.400042838733742 0.8001123850091628 1.2001245760314365 1.000001707686759
        </DataArray>
        <DataArray type="Float64" Name="stream" format="ascii" RangeMin="-5.999999960143619" RangeMax="9.999999808898792">
          -2.976814515998072e-7 1.9999995370196073 -1.200000000209517 0.6399997900253689 3.999999521546264 -2.3999999921050996
          -0.7200002242631822 2.479999703026089 0.9599996925309646 5.999999692236996 -3.5999999640981573 4.319999978858342
          -2.0800003162797713 2.640000038084001 -0.5600004729626789 7.9999999097332575 -4.799999959934102 -3.4400001700135703
          6.159999999599112 0.9599998286922021 -2.0800002965351827 4.31999999910616 -5.999999960143619 9.999999808898792
          -0.7200002052137702 2.479999832499927 -4.800000029398815 7.999999817670411 -3.6000001329352376 5.9999998131720265
          0.6399998102414379 -2.4000001655413894 3.9999997718481968 -1.200000192390036 1.999999823057719 -1.9218051905411926e-7
        </DataArray>
        <DataArray type="Float64" Name="Sigma" NumberOfComponents="6" format="ascii" RangeMin="4.242640687867582" RangeMax="7.3484692291689715">
          3.0000000005296856 5.000000000554918 0 1.0000000002126113 0 0
          3.4000000003746322 5.0000000005551986 0 1.2000000001354294 0 0
          3.000000000529486 4.600000000509292 0 0.8000000001899082 0 0
          3.4003439919703604 4.600338687124386 0 1.0001513672696798 0 0
          3.8000000004198187 5.000000000555498 0 1.4000000001583075 0 0
          3.000000000529366 4.200000000463946 0 0.600000000167295 0 0
          3.4002672931772038 4.200238053668555 0 0.8001493878931359 0 0
          3.80023623300757 4.600261125994027 0 1.2001476739974382 0 0
          3.8001887489969866 4.200188216941809 0 1.0001268077653747 0 0
          4.2000000004651845 5.000000000555838 0 1.6000000001812853 0 0
          3.000000000529206 3.8000000004187595 0 0.4000000001447668 0 0
          4.200256661364938 4.600249282420985 0 1.4001675134230518 0 0
          3.400257219616738 3.800253255060737 0 0.6001674664257955 0 0
          4.200186388405247 4.200191073663088 0 1.200140659187755 0 0
          3.800188660155852 3.8001888203453937 0 0.8001377606887017 0 0
          4.600000000510831 5.000000000556217 0 1.8000000002043581 0 0
          3.000000000529166 3.400000000373853 0 0.20000000012233343 0 0
          3.4003264066663075 3.400349000644196 0 0.4001444292869927 0 0
          4.600346323153874 4.600316326780209 0 1.6001574763552362 0 0
          4.200189298654989 3.8001898333656015 0 1.0001641501204728 0 0
          3.800264443149892 3.4002467088270594 0 0.6001439263769404 0 0
          4.600240644030342 4.200264051145826 0 1.4001477502232351 0 0
          3.000000000529126 3.000000000529126 0 1.9999002454085257e-10 0 0
          5.000000000556657 5.000000000556657 0 2.000000000227521 0 0
          4.200254050386125 3.4002507492164424 0 0.8001583667764028 0 0
          4.600248100705599 3.8002517013082704 0 1.2001616830332047 0 0
          3.400000000373853 3.000000000529166 0 0.20000000012233343 0 0
          5.000000000556238 4.600000000510831 0 1.8000000002043481 0 0
          3.8000000004187395 3.000000000529206 0 0.4000000001447718 0 0
          5.000000000555858 4.200000000465205 0 1.6000000001812853 0 0
          4.6003349932641076 3.400339363637783 0 1.0001443520528275 0 0
          4.200000000463946 3.000000000529366 0 0.60000000016729 0 0
          5.000000000555498 3.8000000004197787 0 1.4000000001583124 0 0
          4.600000000509312 3.0000000005295058 0 0.8000000001899082 0 0
          5.0000000005551986 3.4000000003746322 0 1.2000000001354194 0 0
          5.000000000554918 3.0000000005296856 0 1.0000000002126164 0 0
          <InformationKey name="L2_NORM_RANGE" location="vtkDataArray" length="2">
            <Value index="0">
              4.2426406879
            </Value>
            <Value index="1">
              7.3484692292
            </Value>
          </InformationKey>
        </DataArray>
        <DataArray type="Float64" Name="Psi" NumberOfComponents="6" format="ascii" RangeMin="0.0463718121521308" RangeMax="0.07900654497290999">
          0.032732825124182297 0.05401102638324974 0 0.010639100631661546 0 0
          0.037000063805215484 0.053986529115408154 0 0.012739848982644502 0 0
          0.03275324195392759 0.04981163850250345 0 0.008529198276420224 0 0
          0.03702850808107581 0.049795017892668374 0 0.010640415574242936 0 0
          0.04124473108904274 0.053957698812999944 0 0.014831795677950075 0 0
          0.03276918805998714 0.04559005210549015 0 0.006410432024888317 0 0
          0.03704804781581217 0.04557675633855094 0 0.008530612918647994 0 0
          0.0412763075832547 0.04976962903500907 0 0.012741153524341546 0 0
          0.04130051336270734 0.04555598532108081 0 0.010640043115883256 0 0
          0.045467054789875415 0.05392457133646855 0 0.0169150330931863 0 0
          0.03278062582460553 0.04134604104987273 0 0.004282707614774956 0 0
          0.04550307019442475 0.04974058591212104 0 0.014833353250050014 0 0
          0.03706384200541048 0.04133735734105551 0 0.006412125732393472 0 0
          0.04553132541510165 0.04553137515503772 0 0.012741010560638288 0 0
          0.04132081319405305 0.04132081490186846 0 0.008530443057787529 0 0
          0.0496672592693645 0.05388718198422775 0 0.01898965221688466 0 0
          0.03278751702654827 0.03707937569441703 0 0.0021459293360803025 0 0
          0.03707599240621441 0.03707623431236492 0 0.004284212319452257 0 0
          0.049708388849990744 0.04970807173445272 0 0.016916538131079024 0 0
          0.045555992584254065 0.04130052069117251 0 0.010640440297154493 0 0
          0.041337478228798324 0.03706373108397901 0 0.006411874203967468 0 0
          0.04974049769130503 0.04550315175706754 0 0.014833143944633696 0 0
          0.03278982282868044 0.03278982282868044 0 2.1504280708789965e-12 0 0
          0.05384556550386605 0.05384556550386605 0 0.02105574267733603 0 0
          0.04557692534427245 0.03704786986267257 0 0.008530708678732046 0 0
          0.049769489451676134 0.041276470600074534 0 0.012741302094171389 0 0
          0.03707937569441703 0.032787517026548266 0 0.0021459293360803025 0 0
          0.05388718198422774 0.049667259269364515 0 0.01898965221688466 0 0
          0.04134604104987273 0.03278062582460553 0 0.004282707614774955 0 0
          0.053924571336468566 0.045467054789875415 0 0.01691503309318629 0 0
          0.049794979631652296 0.0370284593196889 0 0.010640341406371618 0 0
          0.04559005210549014 0.032769188059987124 0 0.006410432024888319 0 0
          0.05395769881299996 0.04124473108904273 0 0.014831795677950075 0 0
          0.049811638502503454 0.032753241953927606 0 0.008529198276420224 0 0
          0.05398652911540815 0.037000063805215484 0 0.012739848982644499 0 0
          0.05401102638324974 0.032732825124182297 0 0.010639100631661546 0 0
          <InformationKey name="L2_NORM_RANGE" location="vtkDataArray" length="2">
            <Value index="0">
              0.046371812152
            </Value>
            <Value index="1">
              0.079006544973
            </Value>
          </InformationKey>
        </DataArray>
      </PointData>
      <CellData>
        <DataArray type="UInt8" Name="vtkGhostType" format="ascii" RangeMin="0" RangeMax="0">
          0 0 0 0 0 0
          0 0 0 0 0 0
          0 0 0 0 0 0
          0 0 0 0 0 0
          0
        </DataArray>
      </CellData>
      <Points>
        <DataArray type="Float32" Name="Points" NumberOfComponents="3" format="ascii" RangeMin="0" RangeMax="1.4142135623730951">
          0 1 0 0.20000000298023224 1 0
          0 0.800000011920929 0 0.20000000298023224 0.800000011920929 0
          0.4000000059604645 1 0 0 0.6000000238418579 0
          0.20000000298023224 0.6000000238418579 0 0.4000000059604645 0.800000011920929 0
          0.4000000059604645 0.6000000238418579 0 0.6000000238418579 1 0
          0 0.4000000059604645 0 0.6000000238418579 0.800000011920929 0
          0.20000000298023224 0.4000000059604645 0 0.6000000238418579 0.6000000238418579 0
          0.4000000059604645 0.4000000059604645 0 0.800000011920929 1 0
          0 0.20000000298023224 0 0.20000000298023224 0.20000000298023224 0
          0.800000011920929 0.800000011920929 0 0.6000000238418579 0.4000000059604645 0
          0.4000000059604645 0.20000000298023224 0 0.800000011920929 0.6000000238418579 0
          0 0 0 1 1 0
          0.6000000238418579 0.20000000298023224 0 0.800000011920929 0.4000000059604645 0
          0.20000000298023224 0 0 1 0.800000011920929 0
          0.4000000059604645 0 0 1 0.6000000238418579 0
          0.800000011920929 0.20000000298023224 0 0.6000000238418579 0 0
          1 0.4000000059604645 0 0.800000011920929 0 0
          1 0.20000000298023224 0 1 0 0
          <InformationKey name="L2_NORM_RANGE" location="vtkDataArray" length="2">
            <Value index="0">
              0
            </Value>
            <Value index="1">
              1.4142135624
            </Value>
          </InformationKey>
        </DataArray>
      </Points>
      <Cells>
        <DataArray type="Int64" Name="connectivity" format="ascii" RangeMin="0" RangeMax="35">
          26 17 16 22 28 20
          17 26 31 24 20 28
          33 30 24 31 35 34
          30 33 17 12 10 16
          20 14 12 17 24 19
          14 20 30 25 19 24
          34 32 25 30 12 6
          5 10 14 8 6 12
          19 13 8 14 25 21
          13 19 32 29 21 25
          6 3 2 5 8 7
          3 6 13 11 7 8
          21 18 11 13 29 27
          18 21 3 1 0 2
          7 4 1 3 11 9
          4 7 18 15 9 11
          27 23 15 18
        </DataArray>
        <DataArray type="Int64" Name="offsets" format="ascii" RangeMin="4" RangeMax="100">
          4 8 12 16 20 24
          28 32 36 40 44 48
          52 56 60 64 68 72
          76 80 84 88 92 96
          100
        </DataArray>
        <DataArray type="UInt8" Name="types" format="ascii" RangeMin="9" RangeMax="9">
          9 9 9 9 9 9
          9 9 9 9 9 9
          9 9 9 9 9 9
          9 9 9 9 9 9
          9
        </DataArray>
      </Cells>
    </Piece>
  </UnstructuredGrid>
</VTKFile>
