<?xml version="1.0"?>
<VTKFile type="UnstructuredGrid" version="0.1" byte_order="LittleEndian" header_type="UInt32" compressor="vtkZLibDataCompressor">
  <UnstructuredGrid>
    <Piece NumberOfPoints="33" NumberOfCells="46">
      <PointData>
        <DataArray type="Float64" Name="proc" format="ascii" RangeMin="0" RangeMax="1">
          1 1 1 1 1 1
          1 1 1 1 1 1
          1 1 1 1 1 1
          1 1 1 1 1 1
          1 1 1 1 0 0
          0 0 0
        </DataArray>
        <DataArray type="Float64" Name="Displacement" NumberOfComponents="3" format="ascii" RangeMin="0" RangeMax="9.310312700835541e-10">
          9.631576064798893e-11 -9.031075578392458e-10 0 1.3972091623602769e-10 -7.001156657421033e-10 0
          1.8988705626848973e-10 -8.583491807299114e-10 0 6.539582234985433e-11 -7.800784638711192e-10 0
          1.2310018934263247e-10 -5.676696183751735e-10 0 1.9653220975187442e-10 -6.182696805233522e-10 0
          2.5240801517885326e-10 -7.352320160133681e-10 0 1.5497514519075566e-10 -6.391128384061382e-10 0
          1.342883772776719e-10 -5.610390583393928e-10 0 1.2315869341475123e-10 -5.543984596179237e-10 0
          3.1406826695445817e-10 -5.940655071710186e-10 0 2.877652323680737e-11 -5.725854435463021e-10 0
          3.104885755453428e-10 -5.566906920795407e-10 0 1.6068263195116122e-10 -4.800482970732236e-10 0
          1.3573732977990067e-10 -5.467399212322317e-10 0 1.235115534472292e-10 -5.391484512766534e-10 0
          5.101657495005667e-10 -4.410876733156604e-10 0 7.628981759045321e-12 -2.96262011932268e-10 0
          3.1002277434207097e-10 -2.913296160295276e-10 0 1.3687872437960852e-10 -5.307170574414305e-10 0
          3.511679507385466e-10 -3.8566902476372477e-10 0 5.370732644919194e-10 -2.0860828442681642e-10 0
          4.5688486913262235e-10 -2.0187774608825372e-10 0 0 0 0
          2.2876378572509133e-10 -8.318791619056915e-12 0 4.524280429435814e-10 -1.004003299044796e-11 0
          6.763440761016292e-10 -1.0718986838657567e-11 0 5.28743013220878e-10 -8.257713092691298e-11 0
          1.231274742291217e-10 -5.78570598046764e-10 0 1.3249053979616036e-10 -5.731522324927777e-10 0
          6.520000708421867e-11 -7.171936898652272e-10 0 1.400814684544924e-10 -9.18862044161624e-10 0
          1.2845716808605965e-10 -9.221268794697971e-10 0
          <InformationKey name="L2_NORM_RANGE" location="vtkDataArray" length="2">
            <Value index="0">
              0
            </Value>
            <Value index="1">
              9.3103127008e-10
            </Value>
          </InformationKey>
        </DataArray>
        <DataArray type="Float64" Name="TopologicalDerivative1" format="ascii" RangeMin="-0.05366788237353364" RangeMax="0.35997851340994386">
          0.1768963993400965 -0.03861072207094663 0.1048626188433564 0.13079639527270093 -0.04732924874801564 -0.03788207403453808
          0.09003753395567382 0.12972160477081754 -0.053570213044029744 -0.04668289431654951 -0.031531413418073945 0.11409338257229867
          0.053187659290914464 0.002037947079185108 -0.05366788237353364 -0.019401772980630817 -0.01403750492816238 -0.01574517175815421
          -0.03460436316668872 -0.006246437975669407 0.0019106088696848392 -0.03326901211176961 -0.006458599397395598 -0.018353625142744814
          -0.03735896736290657 -0.05076979044918969 -0.023961635748417313 -0.03135806877596163 -0.04744534975504219 -0.053468918745032755
          -0.03704618700985319 0.15746790204544436 0.35997851340994386
        </DataArray>
      </PointData>
      <CellData>
        <DataArray type="UInt8" Name="vtkGhostType" format="ascii" RangeMin="0" RangeMax="1">
          1 1 1 0 0 1
          1 1 1 0 0 0
          1 0 0 0 0 0
          0 0 0 0 0 0
          0 0 0 0 0 0
          0 0 0 0 0 0
          0 0 0 0 0 0
          0 0 0 0
        </DataArray>
        <DataArray type="Float64" Name="Stress" NumberOfComponents="6" format="ascii" RangeMin="5.535223420957938e-7" RangeMax="2.062681099737737">
          2.1305550138353786e-7 -3.8121045495758384e-7 0 -3.401072265631152e-7 0 0
          -0.0003884632369595615 0.0016859589095404874 0 0.000031320860231507654 0 0
          0.0005804813593929647 0.0019338464691836458 0 -0.00013881779538541469 0 0
          -0.0003310783830270199 0.0011688571305438036 0 -0.0006177136755794655 0 0
          -0.0029037397167125945 1.2114997675125265 0 -0.24867580789656096 0 0
          -0.1395386841510866 1.473856523296606 0 -0.16334852500060987 0 0
          0.07330310585389088 2.0107992012220106 0 -0.3461666598659543 0 0
          -0.5616631974505959 -0.02205904931705724 0 0.0055896472757199335 0 0
          0.31377524932887985 0.017392459744669977 0 0.04621816184632072 0 0
          0.30009997970620994 0.010895240147059004 0 -0.04126857073326739 0 0
          -0.00002151702997364337 -0.000027110005448785543 0 -0.000025649010183341073 0 0
          -0.0000012030058953621117 0.000006368635186663949 0 -0.00004197908977471441 0 0
          -0.000021085812083450215 0.0000016274589822940561 0 -0.000001071459193351109 0 0
          -7.944108590991497e-7 -3.0787331224652255e-7 0 -0.000001781213007894803 0 0
          -0.000016782068317303965 0.000002017872364804462 0 -0.0000028206095107554786 0 0
          0.0002606835656135794 0.0008712853815966821 0 -0.00045244326829534055 0 0
          -0.0013134422383907908 0.0003233014934673803 0 -0.0008159450133268583 0 0
          0.00021137917213796906 0.0007187116417590152 0 -0.0010868754071328703 0 0
          -0.000004499913489760503 -8.853103334168094e-7 0 -0.0000042884954455090736 0 0
          -0.002560885478786459 -0.0009951650074620966 0 -0.00217600081693426 0 0
          -0.17386145626212302 1.9997855180860635 0 -0.47464027946956633 0 0
          -0.000013132951866047257 0.0000018792777681565772 0 -0.0000057543176248064945 0 0
          -0.03574511177740086 -0.012341183354756282 0 -0.02467093427625839 0 0
          -0.5010917901142702 0.7828046857754576 0 -0.050246100205501666 0 0
          -0.0728340493532307 -0.042651651556092754 0 -0.027334208503789016 0 0
          -0.3945325593235381 0.6099275094917802 0 -0.5235638528223457 0 0
          -0.22482302469723786 -0.05283983323228206 0 -0.09833597185711192 0 0
          -1.080599181203561 -0.023389583906573808 0 -0.03434003132428465 0 0
          -0.5616652986194158 0.04483506502251214 0 0.03341378479159048 0 0
          -0.04638474231910995 -0.00008962272353545998 0 -0.0213008865383578 0 0
          -0.08162443444009618 -0.010152915724316137 0 0.01896042270076598 0 0
          -0.03196598647471861 -0.01778188397509141 0 -0.01727155630952312 0 0
          -0.08175385578642533 0.033397719106007605 0 -0.04543336049845735 0 0
          -0.0058906319352361545 0.07832952331942904 0 -0.058147885747537834 0 0
          0.18212469686476895 0.002947946726426793 0 -0.07677036088347203 0 0
          0.33638921496130775 -0.05052018841314327 0 0.03502833674429446 0 0
          0.0001549281517524571 0.00010104100768695929 0 -0.00016361238665868108 0 0
          0.010448058900445634 0.059261470294626264 0 -0.09170434914290451 0 0
          -0.000006376580434746547 0.000009978315665376608 0 -0.00001622557640105923 0 0
          -0.00006677846061017902 0.000021586132231875406 0 0.000007283039167229992 0 0
          -0.000010675106699126533 -0.000011349978188253233 0 -0.00001472226235107131 0 0
          -0.014468375535822937 -0.006095950352573516 0 -0.007372935991813063 0 0
          -0.005763071665895843 -0.00600804290307263 0 -0.015071783812825118 0 0
          -0.00123185389865581 -0.001231853898655808 0 -0.001231853898655809 0 0
          0.000047572060503549664 -0.00008555388127761811 0 -0.00003805764840333724 0 0
          -0.4552781822005222 -0.02120822619847179 0 0.005795417552001218 0 0
          <InformationKey name="L2_NORM_RANGE" location="vtkDataArray" length="2">
            <Value index="0">
              5.535223421e-07
            </Value>
            <Value index="1">
              2.0626810997
            </Value>
          </InformationKey>
        </DataArray>
        <DataArray type="Float64" Name="Strain" NumberOfComponents="6" format="ascii" RangeMin="4.3447167812040825e-15" RangeMax="2.5477961661174577e-11">
          1.364244324461721e-15 -1.8546962723860217e-15 0 -3.684494954433747e-15 0 0
          -3.72604545759045e-12 7.510407835951484e-12 0 3.3930931917466627e-13 0 0
          1.364244324461721e-15 7.332091922357317e-12 0 -1.5038594500086592e-12 0 0
          -2.8405646757923365e-12 5.284086022716289e-12 0 -6.691898152110876e-12 0 0
          -2.8405646757923373e-12 9.400255012443013e-12 0 -5.013153712365638e-12 0 0
          -3.7260454575904505e-12 9.708916911896288e-12 0 -2.7204509798514534e-12 0 0
          -2.3314977286036877e-12 8.749917416359076e-12 0 -3.959766914101497e-12 0 0
          -2.3126895110644943e-12 6.101662913255063e-13 0 6.05545121536326e-14 0 0
          1.2856562975228286e-12 -3.197504793916416e-13 0 5.006967533351412e-13 0 0
          1.2367975319253842e-12 -3.297281406866832e-13 0 -4.470761829437299e-13 0 0
          -5.5766784745865433e-14 -8.606206856955219e-14 0 -2.77864276986195e-13 0 0
          -1.2973318547338735e-14 2.8039737313635763e-14 0 -4.547734725594061e-13 0 0
          -8.98918740755768e-14 3.313834419720467e-14 0 -1.1607474594637014e-14 0 0
          -2.925203605938303e-15 -2.8979189381990666e-16 0 -1.9296474252193702e-14 0 0
          -7.244762511143876e-14 2.9385386916648546e-14 0 -3.0556603033184347e-14 0 0
          -2.925203605938303e-15 3.3045012996358675e-12 0 -4.9014687398661895e-12 0 0
          -5.876802860129186e-12 2.9888923541025726e-12 0 -8.839404311040965e-12 0 0
          -1.7643001623897743e-14 2.7304078754901007e-12 0 -1.177448357727276e-11 0 0
          -1.7643001623897743e-14 1.9360988062972532e-15 0 -4.645870065968162e-14 0 0
          -9.426399902282625e-12 -9.45414015942329e-13 0 -2.357334218345448e-11 0 0
          -3.4988567836170135e-12 9.278217659366902e-12 0 -5.5800360003168496e-12 0 0
          -5.706972998539263e-14 2.424651386654481e-14 0 -6.233844093540369e-14 0 0
          -1.1382819864565868e-11 -5.746514463191119e-13 0 -2.2786568808277602e-11 0 0
          -5.876802860129188e-12 7.451537920607337e-12 0 -1.043226084062375e-12 0 0
          -1.1382819864565868e-11 -3.943782655038943e-12 0 -1.3474091456838158e-11 0 0
          -2.6631213357799034e-12 3.3584087879387407e-12 0 -6.277313771523559e-12 0 0
          -1.6000307237650695e-11 1.1184211737346559e-12 0 -1.9576178124762242e-11 0 0
          -8.996541743752777e-12 2.520599780194915e-12 0 -7.481941172493557e-13 0 0
          -2.3963159088590394e-12 8.888943942014037e-13 0 3.619826685755636e-13 0 0
          -1.0826085880532681e-11 3.228779593988336e-12 0 -1.2933592024385805e-11 0 0
          -6.823174813232582e-13 1.2446934260287538e-13 0 4.280591621924092e-13 0 0
          -1.1096425534246329e-13 -3.4133700136149256e-14 0 -1.8710852668650043e-13 0 0
          -6.087708887508216e-13 3.842339628546396e-13 0 -7.83585416731852e-13 0 0
          -1.2245620387943695e-13 3.337363037499995e-13 0 -6.2993542893166e-13 0 0
          8.459016591104818e-13 -2.412498701818416e-13 0 -9.316054139206125e-13 0 0
          1.464771964521878e-12 -6.309873037563984e-13 0 3.7947364806318995e-13 0 0
          7.047728895563186e-14 3.085820524981475e-14 0 -2.4058327657743216e-13 0 0
          -3.054325911642603e-14 2.338627192687191e-13 0 -9.934637823814654e-13 0 0
          -3.904197972649804e-14 4.95470408158357e-14 0 -1.7577707767814164e-13 0 0
          -3.0522625116559014e-13 1.7341529339553795e-13 0 7.889959097832493e-14 0 0
          -3.029213851104401e-14 -3.394769241048031e-14 0 -1.594911754699392e-13 0 0
          -1.0518955310151468e-11 -1.460915267173375e-12 0 -1.5953406088780945e-11 0 0
          -2.200386948299693e-12 -2.3773123041974652e-12 0 -2.1770561685770216e-11 0 0
          -3.592907204412781e-12 -3.5929072044127706e-12 0 -1.3345083902104596e-11 0 0
          3.051592703618129e-13 -4.1593958095284577e-13 0 -4.1229119103615343e-13 0 0
          -1.87048214308742e-12 4.807301185903537e-13 0 6.278369014667985e-14 0 0
          <InformationKey name="L2_NORM_RANGE" location="vtkDataArray" length="2">
            <Value index="0">
              4.3447167812e-15
            </Value>
            <Value index="1">
              2.5477961661e-11
            </Value>
          </InformationKey>
        </DataArray>
      </CellData>
      <Points>
        <DataArray type="Float32" Name="Points" NumberOfComponents="3" format="ascii" RangeMin="0" RangeMax="128.28654354956544">
          100 0 0 100 45.35898208618164 0
          89.30555725097656 23.870376586914062 0 75 0 0
          90 62.67949295043945 0 80 45.35898208618164 0
          70 28.038475036621094 0 57 13.358983993530273 0
          80 80 0 70 62.67949295043945 0
          60 45.35898208618164 0 50 0 0
          48.827545166015625 28.876956939697266 0 41.327545166015625 13.757295608520508 0
          60 80 0 50 62.67949295043945 0
          38.48822784423828 45.76527404785156 0 25 0 0
          24.63772964477539 27.38901710510254 0 40 80 0
          30 62.67949295043945 0 17.464101791381836 47.607696533203125 0
          20 80 0 0 0 0
          0 20 0 0 40 0
          0 60 0 0 80 0
          110 62.67949295043945 0 100 80 0
          120 45.35898208618164 0 110.71759033203125 23.771137237548828 0
          125 0 0
          <InformationKey name="L2_NORM_RANGE" location="vtkDataArray" length="2">
            <Value index="0">
              0
            </Value>
            <Value index="1">
              128.28654355
            </Value>
          </InformationKey>
        </DataArray>
      </Points>
      <Cells>
        <DataArray type="Int64" Name="connectivity" format="ascii" RangeMin="0" RangeMax="32">
          28 29 4 30 28 1
          1 28 4 4 5 1
          1 5 2 31 30 1
          31 1 2 31 2 0
          0 32 31 3 0 2
          25 24 18 18 24 17
          4 29 8 4 8 9
          9 8 14 4 9 5
          5 9 10 10 9 15
          15 9 14 10 15 16
          2 5 6 15 14 19
          16 15 20 6 5 10
          15 19 20 6 10 12
          20 19 22 12 10 16
          6 12 7 20 22 26
          12 16 18 7 12 13
          13 12 18 7 13 11
          11 13 17 7 11 3
          17 13 18 7 3 6
          25 18 21 21 18 16
          25 21 26 26 21 20
          20 21 16 27 26 22
          24 23 17 2 6 3
        </DataArray>
        <DataArray type="Int64" Name="offsets" format="ascii" RangeMin="3" RangeMax="138">
          3 6 9 12 15 18
          21 24 27 30 33 36
          39 42 45 48 51 54
          57 60 63 66 69 72
          75 78 81 84 87 90
          93 96 99 102 105 108
          111 114 117 120 123 126
          129 132 135 138
        </DataArray>
        <DataArray type="UInt8" Name="types" format="ascii" RangeMin="5" RangeMax="5">
          5 5 5 5 5 5
          5 5 5 5 5 5
          5 5 5 5 5 5
          5 5 5 5 5 5
          5 5 5 5 5 5
          5 5 5 5 5 5
          5 5 5 5 5 5
          5 5 5 5
        </DataArray>
      </Cells>
    </Piece>
  </UnstructuredGrid>
</VTKFile>
