<?xml version="1.0"?>
<VTKFile type="UnstructuredGrid" version="0.1" byte_order="LittleEndian" header_type="UInt32" compressor="vtkZLibDataCompressor">
  <UnstructuredGrid>
    <Piece NumberOfPoints="44" NumberOfCells="60">
      <PointData>
      </PointData>
      <CellData>
        <DataArray type="UInt8" Name="vtkGhostType" format="ascii" RangeMin="0" RangeMax="0">
          0 0 0 0 0 0
          0 0 0 0 0 0
          0 0 0 0 0 0
          0 0 0 0 0 0
          0 0 0 0 0 0
          0 0 0 0 0 0
          0 0 0 0 0 0
          0 0 0 0 0 0
          0 0 0 0 0 0
          0 0 0 0 0 0
        </DataArray>
        <DataArray type="Float64" Name="sgvis" format="ascii" RangeMin="0.35351818912249744" RangeMax="0.47929954791627993">
          0.47929954791627993 0.4728113029603157 0.47705348221084376 0.46538701432468066 0.4729692949399784 0.4516320438317949
          0.4700902863385301 0.4401288508459025 0.46969945592562423 0.4344046873097672 0.47058872782576755 0.4329759525185938
          0.47128679088503755 0.4331008293000971 0.4713639992262876 0.4332793991533925 0.4719544804774979 0.4336114038442941
          0.47131069099134815 0.4329492117010899 0.47026774584071107 0.4548599833603769 0.4644739644750365 0.42597097794911903
          0.45906790857509994 0.40689932798238665 0.4562485073731942 0.3951113508587565 0.45603924301699883 0.38952495978426654
          0.4570838374605466 0.38795277463688105 0.4580759330835492 0.3880553839645098 0.45852881252945565 0.3883411290405798
          0.4588783524473877 0.38842856536723624 0.45791118272634224 0.38755558054632233 0.45225929586877156 0.4263150941975802
          0.440043104943165 0.3666387655126773 0.4354179967033117 0.3591146367459118 0.43429185111816704 0.3554772414530755
          0.4346799649454749 0.35392252702322013 0.4355055750702811 0.35351818912249744 0.43622014951951316 0.35362096554343675
          0.4366313435560373 0.35379132755794995 0.4368195572918252 0.3538685994899385 0.436253283841078 0.3538479109296893
        </DataArray>
        <DataArray type="Float64" Name="sgtco" format="ascii" RangeMin="0.3582037883454284" RangeMax="0.48741694634930566">
          0.48741694634930566 0.4853392695124089 0.4849251940501955 0.4772413435883094 0.4802831690367907 0.4621724351652591
          0.47682334190253817 0.44942260831831593 0.47603358682882513 0.44287239888303387 0.47671236039332376 0.4410026560827607
          0.47732797550914974 0.44093213146441756 0.4773885863214101 0.44105319388943576 0.4780353706533216 0.44139115857182276
          0.4772489559614509 0.44065726012810735 0.47759571971990755 0.46594752363037917 0.4711443881602356 0.4346622247236756
          0.46510205079259515 0.4141276969177527 0.46180558076335243 0.4014446551157382 0.4612946764911209 0.39535666874638864
          0.4621707811304726 0.3935273836490452 0.4630825517934333 0.39350914580785956 0.46350839184879733 0.39374593548513137
          0.4638546129047729 0.3938163632452585 0.46276069031022815 0.39287695991574545 0.45843653281965846 0.4357051818964428
          0.44519748994391806 0.37224833186324763 0.4400967380593134 0.36422626513917095 0.43874432863076074 0.36034371881756866
          0.4390231364019641 0.3586672526176789 0.43979278716388714 0.3582037883454284 0.4404777019256748 0.3582787270454447
          0.44087436862276885 0.3584364543484196 0.44105416799807884 0.3585082487794428 0.4404419946237328 0.35848134499796
        </DataArray>
      </CellData>
      <Points>
        <DataArray type="Float32" Name="Points" NumberOfComponents="3" format="ascii" RangeMin="0" RangeMax="4.2201894765504395">
          4.099999904632568 1 0 4.099999904632568 0.6666666865348816 0
          3.690000057220459 1 0 3.690000057220459 0.6666666865348816 0
          4.099999904632568 0.3333333134651184 0 3.690000057220459 0.3333333134651184 0
          3.2799999713897705 1 0 3.2799999713897705 0.6666666865348816 0
          4.099999904632568 0 0 3.2799999713897705 0.3333333134651184 0
          3.690000057220459 0 0 2.869999885559082 1 0
          2.869999885559082 0.6666666865348816 0 3.2799999713897705 0 0
          2.869999885559082 0.3333333134651184 0 2.869999885559082 0 0
          2.4600000381469727 1 0 2.4600000381469727 0.6666666865348816 0
          2.4600000381469727 0.3333333134651184 0 2.4600000381469727 0 0
          2.049999952316284 1 0 2.049999952316284 0.6666666865348816 0
          2.049999952316284 0.3333333134651184 0 2.049999952316284 0 0
          1.6399999856948853 1 0 1.6399999856948853 0.6666666865348816 0
          1.6399999856948853 0.3333333134651184 0 1.6399999856948853 0 0
          1.2300000190734863 1 0 1.2300000190734863 0.6666666865348816 0
          1.2300000190734863 0.3333333134651184 0 1.2300000190734863 0 0
          0.8199999928474426 1 0 0.8199999928474426 0.6666666865348816 0
          0.8199999928474426 0.3333333134651184 0 0.8199999928474426 0 0
          0.4099999964237213 1 0 0.4099999964237213 0.6666666865348816 0
          0.4099999964237213 0.3333333134651184 0 0.4099999964237213 0 0
          0 1 0 0 0.6666666865348816 0
          0 0.3333333134651184 0 0 0 0
          <InformationKey name="L2_NORM_RANGE" location="vtkDataArray" length="2">
            <Value index="0">
              0
            </Value>
            <Value index="1">
              4.2201894766
            </Value>
          </InformationKey>
        </DataArray>
      </Points>
      <Cells>
        <DataArray type="Int64" Name="connectivity" format="ascii" RangeMin="0" RangeMax="43">
          39 38 43 38 42 43
          35 34 39 34 38 39
          31 30 35 30 34 35
          27 26 31 26 30 31
          23 22 27 22 26 27
          19 18 23 18 22 23
          15 14 19 14 18 19
          13 9 15 9 14 15
          10 5 13 5 9 13
          8 4 10 4 5 10
          38 37 42 37 41 42
          34 33 38 33 37 38
          30 29 34 29 33 34
          26 25 30 25 29 30
          22 21 26 21 25 26
          18 17 22 17 21 22
          14 12 18 12 17 18
          9 7 14 7 12 14
          5 3 9 3 7 9
          4 1 5 1 3 5
          37 36 41 36 40 41
          33 32 37 32 36 37
          29 28 33 28 32 33
          25 24 29 24 28 29
          21 20 25 20 24 25
          17 16 21 16 20 21
          12 11 17 11 16 17
          7 6 12 6 11 12
          3 2 7 2 6 7
          1 0 3 0 2 3
        </DataArray>
        <DataArray type="Int64" Name="offsets" format="ascii" RangeMin="3" RangeMax="180">
          3 6 9 12 15 18
          21 24 27 30 33 36
          39 42 45 48 51 54
          57 60 63 66 69 72
          75 78 81 84 87 90
          93 96 99 102 105 108
          111 114 117 120 123 126
          129 132 135 138 141 144
          147 150 153 156 159 162
          165 168 171 174 177 180
        </DataArray>
        <DataArray type="UInt8" Name="types" format="ascii" RangeMin="5" RangeMax="5">
          5 5 5 5 5 5
          5 5 5 5 5 5
          5 5 5 5 5 5
          5 5 5 5 5 5
          5 5 5 5 5 5
          5 5 5 5 5 5
          5 5 5 5 5 5
          5 5 5 5 5 5
          5 5 5 5 5 5
          5 5 5 5 5 5
        </DataArray>
      </Cells>
    </Piece>
  </UnstructuredGrid>
</VTKFile>
