<?xml version="1.0"?>
<VTKFile type="UnstructuredGrid" version="0.1" byte_order="LittleEndian" header_type="UInt32" compressor="vtkZLibDataCompressor">
  <UnstructuredGrid>
    <Piece NumberOfPoints="44" NumberOfCells="60">
      <PointData>
      </PointData>
      <CellData>
        <DataArray type="UInt8" Name="vtkGhostType" format="ascii" RangeMin="0" RangeMax="0">
          0 0 0 0 0 0
          0 0 0 0 0 0
          0 0 0 0 0 0
          0 0 0 0 0 0
          0 0 0 0 0 0
          0 0 0 0 0 0
          0 0 0 0 0 0
          0 0 0 0 0 0
          0 0 0 0 0 0
          0 0 0 0 0 0
        </DataArray>
        <DataArray type="Float64" Name="sgvis" format="ascii" RangeMin="0.36013184245948643" RangeMax="0.4782972333889227">
          0.4782972333889227 0.47249073503202266 0.4770509809297394 0.4669036179877758 0.476839634032621 0.4609563589395397
          0.47710410667201975 0.45877277892876933 0.4771041066720195 0.45835865304037915 0.47710571812799973 0.45835877113509016
          0.47710717338717057 0.4583614502991664 0.4770681033016424 0.4584040224316741 0.47727910530201456 0.4588153692734086
          0.476895318319555 0.45766718237189374 0.47106071898365065 0.45626415306676926 0.46767935520074366 0.43035477342861406
          0.46656227779423964 0.4178007905833748 0.46697535182482586 0.41360707417803466 0.46727454031237503 0.41291446129077547
          0.4672739943267029 0.4129119567176328 0.467268964338442 0.4129134349419853 0.46726536496906657 0.4129233666495742
          0.4674688346682293 0.4129422337389089 0.466788260432653 0.4119234613485748 0.4533424072693435 0.4263150941975802
          0.44363794696606595 0.367900021789374 0.44152859391857846 0.36213607878941195 0.4418782688502628 0.3603648885746722
          0.4424019617039726 0.36013184245948643 0.4425499215997083 0.36015191403603436 0.44255241216514185 0.36015197705464036
          0.44257275706911137 0.3601535070004542 0.44266789967225295 0.3601639754083305 0.44226630388676735 0.36016069776248166
        </DataArray>
        <DataArray type="Float64" Name="sgtco" format="ascii" RangeMin="0.3651757387008524" RangeMax="0.48633796281049746">
          0.48633796281049746 0.4850257178931848 0.4848907112642772 0.47886654546241936 0.48447943150728745 0.4722040768718301
          0.4846692845813948 0.46964592196463617 0.4846692845813946 0.4691552356991504 0.4846707257439672 0.46915549322493044
          0.4846715543364196 0.46915927153339465 0.48463137192973593 0.46920874029200876 0.48489068195354745 0.46965489519763826
          0.484385572966339 0.46841153350769527 0.47844460121475807 0.4674451724366303 0.4745660429479991 0.4393382462860137
          0.47309272065938945 0.4256896832416872 0.4733354202808252 0.4210166606829856 0.47359180498362596 0.42017221646809866
          0.47359132064997567 0.42015244519038497 0.4735869006826722 0.4201538449370591 0.47358616257354746 0.4201631769241144
          0.47379950186147535 0.42017478564134814 0.47298118759058794 0.41904802423644316 0.4595698076381135 0.4357051818964428
          0.44895677707429826 0.3735771912299793 0.4464870572316293 0.36740146307800986 0.44669642749010796 0.36546634718662674
          0.4471724548509147 0.3651757387008524 0.4473108750889454 0.3651824077935103 0.4473132422969198 0.3651824621506709
          0.4473325411912391 0.36518385137446996 0.44742047723461964 0.3651931695366467 0.44694415437545787 0.36518108393871085
        </DataArray>
      </CellData>
      <Points>
        <DataArray type="Float32" Name="Points" NumberOfComponents="3" format="ascii" RangeMin="0" RangeMax="4.2201894765504395">
          4.099999904632568 1 0 4.099999904632568 0.6666666865348816 0
          3.690000057220459 1 0 3.690000057220459 0.6666666865348816 0
          4.099999904632568 0.3333333134651184 0 3.690000057220459 0.3333333134651184 0
          3.2799999713897705 1 0 3.2799999713897705 0.6666666865348816 0
          4.099999904632568 0 0 3.2799999713897705 0.3333333134651184 0
          3.690000057220459 0 0 2.869999885559082 1 0
          2.869999885559082 0.6666666865348816 0 3.2799999713897705 0 0
          2.869999885559082 0.3333333134651184 0 2.869999885559082 0 0
          2.4600000381469727 1 0 2.4600000381469727 0.6666666865348816 0
          2.4600000381469727 0.3333333134651184 0 2.4600000381469727 0 0
          2.049999952316284 1 0 2.049999952316284 0.6666666865348816 0
          2.049999952316284 0.3333333134651184 0 2.049999952316284 0 0
          1.6399999856948853 1 0 1.6399999856948853 0.6666666865348816 0
          1.6399999856948853 0.3333333134651184 0 1.6399999856948853 0 0
          1.2300000190734863 1 0 1.2300000190734863 0.6666666865348816 0
          1.2300000190734863 0.3333333134651184 0 1.2300000190734863 0 0
          0.8199999928474426 1 0 0.8199999928474426 0.6666666865348816 0
          0.8199999928474426 0.3333333134651184 0 0.8199999928474426 0 0
          0.4099999964237213 1 0 0.4099999964237213 0.6666666865348816 0
          0.4099999964237213 0.3333333134651184 0 0.4099999964237213 0 0
          0 1 0 0 0.6666666865348816 0
          0 0.3333333134651184 0 0 0 0
          <InformationKey name="L2_NORM_RANGE" location="vtkDataArray" length="2">
            <Value index="0">
              0
            </Value>
            <Value index="1">
              4.2201894766
            </Value>
          </InformationKey>
        </DataArray>
      </Points>
      <Cells>
        <DataArray type="Int64" Name="connectivity" format="ascii" RangeMin="0" RangeMax="43">
          39 38 43 38 42 43
          35 34 39 34 38 39
          31 30 35 30 34 35
          27 26 31 26 30 31
          23 22 27 22 26 27
          19 18 23 18 22 23
          15 14 19 14 18 19
          13 9 15 9 14 15
          10 5 13 5 9 13
          8 4 10 4 5 10
          38 37 42 37 41 42
          34 33 38 33 37 38
          30 29 34 29 33 34
          26 25 30 25 29 30
          22 21 26 21 25 26
          18 17 22 17 21 22
          14 12 18 12 17 18
          9 7 14 7 12 14
          5 3 9 3 7 9
          4 1 5 1 3 5
          37 36 41 36 40 41
          33 32 37 32 36 37
          29 28 33 28 32 33
          25 24 29 24 28 29
          21 20 25 20 24 25
          17 16 21 16 20 21
          12 11 17 11 16 17
          7 6 12 6 11 12
          3 2 7 2 6 7
          1 0 3 0 2 3
        </DataArray>
        <DataArray type="Int64" Name="offsets" format="ascii" RangeMin="3" RangeMax="180">
          3 6 9 12 15 18
          21 24 27 30 33 36
          39 42 45 48 51 54
          57 60 63 66 69 72
          75 78 81 84 87 90
          93 96 99 102 105 108
          111 114 117 120 123 126
          129 132 135 138 141 144
          147 150 153 156 159 162
          165 168 171 174 177 180
        </DataArray>
        <DataArray type="UInt8" Name="types" format="ascii" RangeMin="5" RangeMax="5">
          5 5 5 5 5 5
          5 5 5 5 5 5
          5 5 5 5 5 5
          5 5 5 5 5 5
          5 5 5 5 5 5
          5 5 5 5 5 5
          5 5 5 5 5 5
          5 5 5 5 5 5
          5 5 5 5 5 5
          5 5 5 5 5 5
        </DataArray>
      </Cells>
    </Piece>
  </UnstructuredGrid>
</VTKFile>
