<?xml version="1.0"?>
<VTKFile type="UnstructuredGrid" version="0.1" byte_order="LittleEndian" header_type="UInt32" compressor="vtkZLibDataCompressor">
  <UnstructuredGrid>
    <Piece NumberOfPoints="44" NumberOfCells="60">
      <PointData>
      </PointData>
      <CellData>
        <DataArray type="UInt8" Name="vtkGhostType" format="ascii" RangeMin="0" RangeMax="0">
          0 0 0 0 0 0
          0 0 0 0 0 0
          0 0 0 0 0 0
          0 0 0 0 0 0
          0 0 0 0 0 0
          0 0 0 0 0 0
          0 0 0 0 0 0
          0 0 0 0 0 0
          0 0 0 0 0 0
          0 0 0 0 0 0
        </DataArray>
        <DataArray type="Float64" Name="sgvis" format="ascii" RangeMin="0.3580138658986368" RangeMax="0.4784692630024888">
          0.4784692630024888 0.47254003613756024 0.47663565285318366 0.4660592898951088 0.47552927225479014 0.45749510795476755
          0.4757873895393627 0.4531907064995466 0.4760985311668656 0.4521321597640683 0.47610068327040933 0.451941478202715
          0.4761008162784266 0.4519441386278523 0.4760375376770072 0.4519893775593157 0.47638435483494246 0.4524052129545836
          0.4755684286183024 0.45124634251912077 0.470699695888092 0.4556925069165927 0.4664344866303175 0.4285221630555178
          0.4641261448256543 0.4135479858747809 0.4641316613368942 0.40712037741101814 0.46478842097675477 0.40553704089760023
          0.4650272049308892 0.40540101060699796 0.46502095546726974 0.40542436722905784 0.4650198240970097 0.4054359163415945
          0.46526439654842 0.4054564613991372 0.4644242386477515 0.40446427818741354 0.45293376310972255 0.4263150941975802
          0.44234629330063147 0.3673930576981429 0.43948145676327677 0.3609532451121329 0.4395620115304336 0.35854499292165487
          0.4402819786660235 0.3580138658986368 0.44070412886953036 0.35804508560381354 0.4407994869375581 0.35807550811305516
          0.4408227660488021 0.35807799732875795 0.4409162826014803 0.35808967052409024 0.44045045236780644 0.3580819465588248
        </DataArray>
        <DataArray type="Float64" Name="sgtco" format="ascii" RangeMin="0.36294255062307446" RangeMax="0.4865252670228549">
          0.4865252670228549 0.48506914074460783 0.48445459775599775 0.47795577211883167 0.4830393224427414 0.46845686027437006
          0.4831031158943423 0.4635238193040454 0.48335697342045447 0.46220563970955664 0.48335887636517116 0.46196985724366046
          0.4833581912428656 0.46197366222327363 0.483294077083392 0.4620252995372608 0.483694126348568 0.46247078517988605
          0.4827795904943567 0.4612235496658058 0.478059078627859 0.46683358684472576 0.47323489244019645 0.4373811005030166
          0.470474482859902 0.4211690858143587 0.4702140039645907 0.414118171841801 0.4707578319006468 0.4122712485917085
          0.47097124345284913 0.4120562926571288 0.4709656872020812 0.4120715456124515 0.4709673051210834 0.41208254859255955
          0.4712196135158542 0.4120968126753097 0.4702444811688037 0.4110079642455974 0.4591405443384998 0.4357051818964428
          0.44760022064655625 0.3730418221859839 0.4443334141355596 0.3661563915310672 0.4442426212195838 0.3635538005737917
          0.4448912799456731 0.36294255062307446 0.44528854936063045 0.3629450691786888 0.4453789644290036 0.36296897898025965
          0.44540116130147744 0.3629713003919345 0.4454881234164344 0.36298181576766286 0.44495486492228276 0.36296605645381547
        </DataArray>
      </CellData>
      <Points>
        <DataArray type="Float32" Name="Points" NumberOfComponents="3" format="ascii" RangeMin="0" RangeMax="4.2201894765504395">
          4.099999904632568 1 0 4.099999904632568 0.6666666865348816 0
          3.690000057220459 1 0 3.690000057220459 0.6666666865348816 0
          4.099999904632568 0.3333333134651184 0 3.690000057220459 0.3333333134651184 0
          3.2799999713897705 1 0 3.2799999713897705 0.6666666865348816 0
          4.099999904632568 0 0 3.2799999713897705 0.3333333134651184 0
          3.690000057220459 0 0 2.869999885559082 1 0
          2.869999885559082 0.6666666865348816 0 3.2799999713897705 0 0
          2.869999885559082 0.3333333134651184 0 2.869999885559082 0 0
          2.4600000381469727 1 0 2.4600000381469727 0.6666666865348816 0
          2.4600000381469727 0.3333333134651184 0 2.4600000381469727 0 0
          2.049999952316284 1 0 2.049999952316284 0.6666666865348816 0
          2.049999952316284 0.3333333134651184 0 2.049999952316284 0 0
          1.6399999856948853 1 0 1.6399999856948853 0.6666666865348816 0
          1.6399999856948853 0.3333333134651184 0 1.6399999856948853 0 0
          1.2300000190734863 1 0 1.2300000190734863 0.6666666865348816 0
          1.2300000190734863 0.3333333134651184 0 1.2300000190734863 0 0
          0.8199999928474426 1 0 0.8199999928474426 0.6666666865348816 0
          0.8199999928474426 0.3333333134651184 0 0.8199999928474426 0 0
          0.4099999964237213 1 0 0.4099999964237213 0.6666666865348816 0
          0.4099999964237213 0.3333333134651184 0 0.4099999964237213 0 0
          0 1 0 0 0.6666666865348816 0
          0 0.3333333134651184 0 0 0 0
          <InformationKey name="L2_NORM_RANGE" location="vtkDataArray" length="2">
            <Value index="0">
              0
            </Value>
            <Value index="1">
              4.2201894766
            </Value>
          </InformationKey>
        </DataArray>
      </Points>
      <Cells>
        <DataArray type="Int64" Name="connectivity" format="ascii" RangeMin="0" RangeMax="43">
          39 38 43 38 42 43
          35 34 39 34 38 39
          31 30 35 30 34 35
          27 26 31 26 30 31
          23 22 27 22 26 27
          19 18 23 18 22 23
          15 14 19 14 18 19
          13 9 15 9 14 15
          10 5 13 5 9 13
          8 4 10 4 5 10
          38 37 42 37 41 42
          34 33 38 33 37 38
          30 29 34 29 33 34
          26 25 30 25 29 30
          22 21 26 21 25 26
          18 17 22 17 21 22
          14 12 18 12 17 18
          9 7 14 7 12 14
          5 3 9 3 7 9
          4 1 5 1 3 5
          37 36 41 36 40 41
          33 32 37 32 36 37
          29 28 33 28 32 33
          25 24 29 24 28 29
          21 20 25 20 24 25
          17 16 21 16 20 21
          12 11 17 11 16 17
          7 6 12 6 11 12
          3 2 7 2 6 7
          1 0 3 0 2 3
        </DataArray>
        <DataArray type="Int64" Name="offsets" format="ascii" RangeMin="3" RangeMax="180">
          3 6 9 12 15 18
          21 24 27 30 33 36
          39 42 45 48 51 54
          57 60 63 66 69 72
          75 78 81 84 87 90
          93 96 99 102 105 108
          111 114 117 120 123 126
          129 132 135 138 141 144
          147 150 153 156 159 162
          165 168 171 174 177 180
        </DataArray>
        <DataArray type="UInt8" Name="types" format="ascii" RangeMin="5" RangeMax="5">
          5 5 5 5 5 5
          5 5 5 5 5 5
          5 5 5 5 5 5
          5 5 5 5 5 5
          5 5 5 5 5 5
          5 5 5 5 5 5
          5 5 5 5 5 5
          5 5 5 5 5 5
          5 5 5 5 5 5
          5 5 5 5 5 5
        </DataArray>
      </Cells>
    </Piece>
  </UnstructuredGrid>
</VTKFile>
