<?xml version="1.0"?>
<VTKFile type="UnstructuredGrid" version="0.1" byte_order="LittleEndian" header_type="UInt32" compressor="vtkZLibDataCompressor">
  <UnstructuredGrid>
    <Piece NumberOfPoints="45" NumberOfCells="67">
      <PointData>
        <DataArray type="Float64" Name="nsi_BC" NumberOfComponents="3" format="ascii" RangeMin="0" RangeMax="44">
          0 0 0 0 0 0
          0 0 0 0 0 0
          0 0 0 0 0 0
          0 0 0 0 0 0
          0 0 0 0 0 0
          0 0 0 0 0 0
          0 0 0 0 0 0
          0 0 0 0 0 0
          0 0 0 0 0 0
          0 0 0 0 0 0
          0 0 0 0 0 0
          0 0 0 0 0 0
          0 0 0 0 0 0
          0 0 0 0 0 0
          0 0 0 0 0 0
          0 0 0 0 0 0
          0 0 0 0 0 0
          0 0 0 0 0 0
          0 0 0 0 0 0
          0 0 0 0 0 0
          44 0 0 0 0 0
          44 0 0 44 0 0
          0 0 0
          <InformationKey name="L2_NORM_RANGE" location="vtkDataArray" length="2">
            <Value index="0">
              0
            </Value>
            <Value index="1">
              44
            </Value>
          </InformationKey>
        </DataArray>
        <DataArray type="Float64" Name="nsi_FIXNO" NumberOfComponents="3" format="ascii" RangeMin="1" RangeMax="1.4142135623730951">
          0 1 0 -1 -1 0
          0 1 0 -1 -1 0
          0 1 0 -1 -1 0
          -1 -1 0 0 1 0
          -1 -1 0 -1 -1 0
          0 1 0 -1 -1 0
          -1 -1 0 0 1 0
          1 0 0 -1 -1 0
          -1 -1 0 1 0 0
          1 0 0 -1 -1 0
          0 1 0 -1 -1 0
          -1 -1 0 0 1 0
          -1 -1 0 -1 -1 0
          1 0 0 -1 -1 0
          1 0 0 -1 -1 0
          1 0 0 0 1 0
          -1 -1 0 -1 -1 0
          0 1 0 -1 -1 0
          0 1 0 -1 -1 0
          -1 -1 0 0 1 0
          1 1 0 0 1 0
          1 1 0 1 1 0
          0 1 0
          <InformationKey name="L2_NORM_RANGE" location="vtkDataArray" length="2">
            <Value index="0">
              1
            </Value>
            <Value index="1">
              1.4142135624
            </Value>
          </InformationKey>
        </DataArray>
        <DataArray type="Float64" Name="Velocity" NumberOfComponents="3" format="ascii" RangeMin="0.126379440332081" RangeMax="972.6126793167127">
          51.47598112518114 0 0 51.58985068123108 0.041292738170843585 0
          51.888087163587656 0 0 51.60636834704559 0.04412058463925617 0
          47.0688979609901 0 0 51.497285315339134 0.37016810272010997 0
          51.22919341900126 -0.10601240631785483 0 71.57178966490234 0 0
          53.45121924915268 -4.779422488245985 0 49.978287083821975 -0.39752636853243056 0
          51.42483494096455 0 0 51.207837220918535 4.779117815167023 0
          50.997731558926446 -0.021192911986625252 0 52.22790436589304 0 0
          1.0798078989343598e-16 -0.3850996495874051 0 63.07892687946868 1.7490254151197355 0
          48.45820958037635 -6.0146581219025945 0 45.70762728363432 -26.389310902212817 0
          45.08480778912772 26.0297258995938 0 25.614369483259832 13.736155907681143 0
          30.175706691351724 0 0 34.823209602737066 -0.951295159809638 0
          71.38521562332205 -7.030832525869265 0 47.85869680782698 0 0
          62.91658479066144 5.810317856950426 0 61.91860487070263 2.007268162471299 0
          0 0.126379440332081 0 81.63621325381057 3.5468091957024535 0
          92.8062325429958 -53.58170331272201 0 -76.89220048721818 24.906546622923745 0
          96.01863076468452 55.436382289773555 0 56.74462422740059 0 0
          -3.8266868789766635 0.22240313315530677 0 11.254895429078038 -25.814980114536706 0
          371.8054653350856 0 0 -80.36380272651286 -25.985891089034087 0
          44.6852696155748 0 0 168.08455316185896 10.095895757294079 0
          174.08846710119045 -12.445586221217356 0 -953.1249867799678 0 0
          44.00000000000006 0 0 404.2554822482032 0 0
          44.00000000000005 0 0 44.00000000000005 0 0
          -972.6126793167127 0 0
          <InformationKey name="L2_NORM_RANGE" location="vtkDataArray" length="2">
            <Value index="0">
              0.12637944033
            </Value>
            <Value index="1">
              972.61267932
            </Value>
          </InformationKey>
        </DataArray>
        <DataArray type="Float64" Name="Pressure" format="ascii" RangeMin="0" RangeMax="132789.76705393923">
          0 0 32823.93770387776 0 59784.26159330242 61244.490690564344
          49567.566762080656 78741.69151961384 77285.16137528713 68819.74221331625 0 77879.92938069825
          67968.85523370026 32870.57201510117 78149.24615534233 85890.77307196987 77883.50183618577 82988.15051050065
          82967.5847908847 96814.70278460659 103572.61604173841 89948.8354126566 95492.94002446753 59834.24306690395
          88694.45320511486 81935.21535277313 96941.61260185648 97059.28357921902 101188.33409597605 103795.43193123778
          101215.30412364617 78983.59335376811 105337.79930402525 100315.7656074326 129558.8859192598 107924.53152335988
          103362.93846121654 122581.35169742709 123099.55694607922 121134.91258218532 130354.11440577745 129930.64168372509
          132789.76705393923 131114.36552545615 122916.59608550266
        </DataArray>
        <DataArray type="Float64" Name="BTraction" NumberOfComponents="3" format="ascii" RangeMin="0" RangeMax="132104.12741711503">
          0.000029491352603513993 5871.033904427574 0 0.000026624853315096664 0.000009214831910102863 0
          -0.00012746397037712218 30835.430803812826 0 0.00002638413474012729 1.97343593620322e-7 0
          0.00039941181823380023 57067.37251296279 0 0 0 0
          0 0 0 0.0013145815494121028 79979.52307315468 0
          0 0 0 0 0 0
          0.000047460732148728705 -5909.05637125405 0 0 0 0
          0 0 0 -0.0000916467825527486 -30874.005176408635 0
          39879.40035592774 -2.9680978786609145 0 0 0 0
          0 0 0 -21146.846409863083 -35236.486613905174 0
          -21146.845935618003 35230.54930695121 0 0 0 0
          -0.0021920441944200445 104118.42262212312 0 0 0 0
          0 0 0 -0.00031554026324992273 -57142.901115706816 0
          0 0 0 0 0 0
          49180.86848999837 3.8975380696963993 0 0 0 0
          -25655.43230965196 -43202.86553366594 0 0 0 0
          -25655.428855334634 43210.65722558078 0 -0.000547529568494844 -80112.6409841727 0
          0 0 0 0 0 0
          -0.008634065844821407 123886.14225740245 0 0 0 0
          0.0015666298321708391 -104081.8171799311 0 0 0 0
          0 0 0 61658.389955319326 62416.06822528939 0
          129078.88713704194 -0.04022759237184497 0 -0.004811995389238861 -124403.04349732367 0
          132104.12741711503 0.00013874351769162956 0 129900.06970942327 0.04143129509408604 0
          62337.89915455977 -63112.437829155286 0
          <InformationKey name="L2_NORM_RANGE" location="vtkDataArray" length="2">
            <Value index="0">
              0
            </Value>
            <Value index="1">
              132104.12742
            </Value>
          </InformationKey>
        </DataArray>
        <DataArray type="Float64" Name="Time_Average_Velocity" NumberOfComponents="3" format="ascii" RangeMin="0.5514444251578479" RangeMax="311.02198603966434">
          23.904160501334804 0 0 23.92138306861755 0.011847794350015785 0
          23.923826263110648 0 0 23.929367902701337 0.014087555138672277 0
          22.38369937505331 0 0 23.791631612257447 -0.09759554038914872 0
          23.800566510132125 -0.03309752584306793 0 27.247194115658388 0 0
          23.735662126509972 -1.885439801522105 0 22.77077354792731 -0.06876440586482546 0
          23.87998924718602 0 0 24.657737921924586 1.6295645543877169 0
          23.807837599754336 0.14788725821268597 0 23.991454374954092 0 0
          1.546233674184668e-16 -0.5514444251578479 0 28.58630308988188 -1.142611503943433 0
          24.296540919039515 -2.0090354331543523 0 18.10511611438799 -10.45299365680087 0
          17.498446977714437 10.102733067619333 0 17.977804895908633 -0.13197440301632687 0
          17.498822953621666 0 0 17.424153955873233 0.010969031065508813 0
          34.2112736799712 -2.8590051228064026 0 22.782438616077 0 0
          27.859951579933988 2.5882162226460013 0 25.816090603501227 1.847010747029192 0
          0 0.896621617252062 0 35.60028417273744 1.9900343842656758 0
          33.87918841174123 -19.560158539058506 0 -1.7318973034705087 5.4149575901404114 0
          34.29017108288966 19.79743949475236 0 23.233982486478546 0 0
          5.532913036289169 -0.8045334403344557 0 16.514827919702473 -2.600900070036061 0
          96.40788268504787 0 0 -1.6138285517827746 -5.512093040275893 0
          20.942421521823675 0 0 78.10908938822512 -10.297588272304017 0
          80.29222632997312 10.094164258076452 0 -305.8983459673685 0 0
          43.99999999999339 0 0 103.34603989790637 0 0
          43.999999999993385 0 0 43.99999999999339 0 0
          -311.02198603966434 0 0
          <InformationKey name="L2_NORM_RANGE" location="vtkDataArray" length="2">
            <Value index="0">
              0.55144442516
            </Value>
            <Value index="1">
              311.02198604
            </Value>
          </InformationKey>
        </DataArray>
        <DataArray type="Float64" Name="Time_Average_Pressure" format="ascii" RangeMin="0" RangeMax="39041.554727140145">
          0 0 9567.247185166714 0 17342.90936890046 17829.54144320508
          14454.146222804138 22657.917091862277 22384.026378521634 20035.382061061817 0 22695.474151665087
          19801.59906822887 9575.077009785522 22806.187705234242 25025.339592141914 22720.705587659333 24197.307364204757
          24197.18693747586 27752.492498909873 29363.37863391748 26245.07900374288 27949.959792758706 17380.01024380802
          25875.729285850604 23757.69241742206 28443.2467680569 28398.425776192227 29735.32370685527 30438.65895742006
          29723.608639237435 22775.901812757456 31044.45681266833 28894.690450976326 36591.96550425376 31513.836977726794
          29325.805660145194 35030.77252000503 35149.64770364685 31939.48305047923 38117.25100248177 36492.53028473767
          39041.554727140145 38298.36020869832 32498.697222195773
        </DataArray>
        <DataArray type="Float64" Name="RMS_Velocity" NumberOfComponents="3" format="ascii" RangeMin="0" RangeMax="544.3474406168123">
          20.0678435660519 0 0 20.144239861167286 0.020841452697350642 0
          20.387872803823452 0 0 20.15064967098826 0.02124671186188873 0
          18.042837382872378 0 0 20.174543226197056 0.3947815740864985 0
          19.973201054933647 0.0515644419477012 0 33.183226445298736 0 0
          21.822022217096936 2.0748982779385434 0 20.171738722978734 0.24750315925299438 0
          20.04762313749568 0 0 19.363714290226977 2.3003549105244487 0
          19.741532547684127 0.2001161668647666 0 20.603209185504255 0 0
          1.3884522577856277e-16 0.49517370494303997 0 24.69056261050934 3.0627019790011 0
          17.496490924655618 2.8904810329055506 0 22.06065351489381 12.736724238559894 0
          22.284050302573167 12.865702433994171 0 5.683957302393197 10.764550411171758 0
          9.797413957862334 0 0 13.453809376235132 0.7992776349361034 0
          27.0882992407637 3.4166419914245476 0 18.23144329798832 0 0
          25.23604045502847 2.5103583736248334 0 26.847186272303386 1.2243486170470446 0
          0 0.7671479223113226 0 33.86781627191544 2.488614106991924 0
          45.244494263908685 26.121920928745546 0 63.05436898688085 14.222540620534124 0
          47.56129994320021 27.459529310634363 0 25.08119095186515 0 0
          17.814471529364486 1.0410383237691805 0 8.453075457031867 17.394363876260936 0
          209.09061155524566 0 0 65.93186153820236 14.958456357065497 0
          16.8085309752324 0 0 70.14926331319447 18.04688458509211 0
          72.8416016344014 19.50210264000687 0 532.4836889945432 0 0
          0 0 0 228.99420986205956 0 0
          0 0 0 0 0 0
          544.3474406168123 0 0
          <InformationKey name="L2_NORM_RANGE" location="vtkDataArray" length="2">
            <Value index="0">
              0
            </Value>
            <Value index="1">
              544.34744062
            </Value>
          </InformationKey>
        </DataArray>
        <DataArray type="Float64" Name="RMS_Pressure" format="ascii" RangeMin="0" RangeMax="72278.18241458267">
          0 0 17971.959797650466 0 32813.26275338892 33557.22136255492
          27134.655869100294 43406.652507591665 42458.83990773196 37725.19005944675 0 42678.482010554064
          37223.08493307571 18000.503651167175 42802.56393956875 47080.92558534033 42653.57978653695 45476.19513147416
          45459.35814857059 53367.92608248781 57228.289015761206 49290.727315343 52250.45363146766 32811.006161142795
          48595.41407453428 44972.78129874406 52983.96718995547 53113.45748076612 55296.85593120028 56823.78995569286
          55326.03307829627 43465.330689600334 57612.16702432274 55223.28329042733 71465.49052675362 59168.49285680392
          57100.998741728516 68180.45551625821 68491.92444962898 70848.5319763004 71226.43078167818 71868.16590865437
          72278.18241458267 71660.44505869107 71643.85185071074
        </DataArray>
        <DataArray type="Float64" Name="Turbulence_Intensity" format="ascii" RangeMin="0" RangeMax="0.851968517099854">
          0.5936250414882277 0.5954560875563771 0.602596046092415 0.5954468201410124 0.5699778419779109 0.5996559251777499
          0.5933982859232007 0.7163208733594808 0.6509792122483916 0.626420808447807 0.5936271629128133 0.557247763632083
          0.5863516760261711 0.6072440920665486 0.6349518984261459 0.6131846322296747 0.5134471260882891 0.6601109391512897
          0.6613710183567789 0.4253632455503066 0.39590193386477823 0.5465535967041808 0.5609574353321376 0.5658558947121802
          0.6404507885779158 0.6913475502911867 0.6049993526834738 0.6721198837662637 0.7057514463265667 0.8387028185827389
          0.7090526426054945 0.6920391053466807 0.851968517099854 0.6202112641001624 0.7944559327532938 0.8408726207765922
          0.5675287464721022 0.6250436564779182 0.6299569734543989 0.6973277527703299 0 0.7942646417222384
          0 0 0.6979955874411574
        </DataArray>
        <DataArray type="Float64" Name="Time_Average_Tractions" NumberOfComponents="3" format="ascii" RangeMin="0" RangeMax="38763.52679433783">
          0.00000651376508252883 1711.2399216860838 0 0.000008507736361517538 0.000002384905553271947 0
          -0.000043281415275638815 8975.298114352801 0 0.000008867024512742566 3.6984540795166397e-7 0
          0.000053597464184280716 16538.500623049993 0 0 0 0
          0 0 0 0.00020238863300380087 22960.735565206145 0
          0 0 0 0 0 0
          0.000010389738787921009 -1721.2864374670846 0 0 0 0
          0 0 0 -0.00003333289153665777 -8986.073922736803 0
          11634.9380883079 -0.017495306115998473 0 0 0 0
          0 0 0 -6165.232837411414 -10276.95009195519 0
          -6165.2327934504865 10276.914660155977 0 0 0 0
          -0.0006532461847890677 29547.427643315477 0 0 0 0
          0 0 0 -0.00015507039323067734 -16580.88571151339 0
          0 0 0 0 0 0
          14436.001304951717 -1.6889890408930517 0 0 0 0
          -7539.539985459943 -12689.274574880556 0 0 0 0
          -7539.538986060473 12685.89506940279 0 -0.0002754337218589142 -23038.872022508152 0
          0 0 0 0 0 0
          -0.0038298339854552802 34620.92614575175 0 0 0 0
          0.00015885100433870377 -29523.95913300136 0 0 0 0
          0 0 0 16877.398297000364 16865.29250634739 0
          37153.53957711084 -0.012683272045543613 0 -0.0031038714091242807 -34643.69294979984 0
          38763.52679433783 -0.000002972353887879488 0 37371.30038142054 0.012924425565482331 0
          17082.589643527088 -17046.015235230334 0
          <InformationKey name="L2_NORM_RANGE" location="vtkDataArray" length="2">
            <Value index="0">
              0
            </Value>
            <Value index="1">
              38763.526794
            </Value>
          </InformationKey>
        </DataArray>
      </PointData>
      <CellData>
        <DataArray type="UInt8" Name="vtkGhostType" format="ascii" RangeMin="0" RangeMax="0">
          0 0 0 0 0 0
          0 0 0 0 0 0
          0 0 0 0 0 0
          0 0 0 0 0 0
          0 0 0 0 0 0
          0 0 0 0 0 0
          0 0 0 0 0 0
          0 0 0 0 0 0
          0 0 0 0 0 0
          0 0 0 0 0 0
          0 0 0 0 0 0
          0
        </DataArray>
      </CellData>
      <Points>
        <DataArray type="Float32" Name="Points" NumberOfComponents="3" format="ascii" RangeMin="0.028574999103019354" RangeMax="1.204541097921953">
          1.114400029182434 -0.45719999074935913 0 1.114400029182434 -0.14441269636154175 0
          0.7522138357162476 -0.45719999074935913 0 1.114400029182434 0.14780308306217194 0
          0.4567696750164032 -0.45719999074935913 0 0.43880194425582886 -0.19227321445941925 0
          0.5670586228370667 0.06042253598570824 0 0.2517681121826172 -0.45719999074935913 0
          0.2653692364692688 -0.2506345212459564 0 0.3520563244819641 0.0064490861259400845 0
          1.114400029182434 0.45719999074935913 0 0.25074562430381775 -0.06805335730314255 0
          0.3649561405181885 0.17054519057273865 0 0.7522138357162476 0.45719999074935913 0
          0.24003000557422638 0 0 0.16333219408988953 -0.12140321731567383 0
          0.25074562430381775 0.06805335730314255 0 0.1971675008535385 -0.024746675044298172 0
          0.1971675008535385 0.024746675044298172 0 0.07325717061758041 -0.271524041891098 0
          0.031685639172792435 -0.45719999074935913 0 0.11545279622077942 -0.003200044622644782 0
          0.053034476935863495 -0.09037953615188599 0 0.4567696750164032 0.45719999074935913 0
          0.1303781270980835 0.10237718373537064 0 0.21573273837566376 0.2782617211341858 0
          0.028574999421834946 0 0 0.03561127185821533 0.08647192269563675 0
          -0.014287499710917473 -0.024746675044298172 0 -0.04812280461192131 -0.12140321731567383 0
          -0.014287499710917473 0.024746675044298172 0 0.2517681121826172 0.45719999074935913 0
          -0.07858125120401382 2.220446049250313e-16 0 0.023825805634260178 0.2352563887834549 0
          -0.20755450427532196 -0.45719999074935913 0 -0.08769754320383072 0.1564512699842453 0
          0.031685639172792435 0.45719999074935913 0 -0.28333646059036255 -0.15488123893737793 0
          -0.2888784408569336 0.15345117449760437 0 -0.45719999074935913 -0.45719999074935913 0
          -0.45719999074935913 -0.21111147105693817 0 -0.20755450427532196 0.45719999074935913 0
          -0.45719999074935913 0.0008695335709489882 0 -0.45719999074935913 0.21139274537563324 0
          -0.45719999074935913 0.45719999074935913 0
          <InformationKey name="L2_NORM_RANGE" location="vtkDataArray" length="2">
            <Value index="0">
              0.028574999103
            </Value>
            <Value index="1">
              1.2045410979
            </Value>
          </InformationKey>
        </DataArray>
      </Points>
      <Cells>
        <DataArray type="Int64" Name="connectivity" format="ascii" RangeMin="0" RangeMax="44">
          26 28 22 30 26 27
          17 18 21 28 30 32
          14 17 11 18 14 16
          22 28 29 21 18 24
          11 17 15 27 26 21
          32 30 35 16 14 9
          26 22 21 17 21 15
          14 11 9 30 27 35
          28 32 29 18 16 24
          22 29 19 11 15 8
          16 9 12 21 24 27
          27 24 33 32 35 38
          21 22 15 35 27 33
          24 16 25 9 11 5
          29 32 37 15 22 19
          15 19 8 19 29 34
          8 19 7 12 9 6
          38 35 41 11 8 5
          5 8 4 16 12 25
          25 12 23 32 38 37
          37 38 42 33 25 36
          35 33 41 24 25 33
          9 5 6 29 37 34
          7 4 8 23 31 25
          20 7 19 31 36 25
          43 42 38 42 40 37
          12 6 13 33 36 41
          34 20 19 39 34 37
          41 44 38 44 43 38
          40 39 37 6 5 2
          4 2 5 1 3 6
          13 23 12 6 10 13
          0 1 6 10 6 3
          2 0 6
        </DataArray>
        <DataArray type="Int64" Name="offsets" format="ascii" RangeMin="3" RangeMax="201">
          3 6 9 12 15 18
          21 24 27 30 33 36
          39 42 45 48 51 54
          57 60 63 66 69 72
          75 78 81 84 87 90
          93 96 99 102 105 108
          111 114 117 120 123 126
          129 132 135 138 141 144
          147 150 153 156 159 162
          165 168 171 174 177 180
          183 186 189 192 195 198
          201
        </DataArray>
        <DataArray type="UInt8" Name="types" format="ascii" RangeMin="5" RangeMax="5">
          5 5 5 5 5 5
          5 5 5 5 5 5
          5 5 5 5 5 5
          5 5 5 5 5 5
          5 5 5 5 5 5
          5 5 5 5 5 5
          5 5 5 5 5 5
          5 5 5 5 5 5
          5 5 5 5 5 5
          5 5 5 5 5 5
          5 5 5 5 5 5
          5
        </DataArray>
      </Cells>
    </Piece>
  </UnstructuredGrid>
</VTKFile>
