<?xml version="1.0"?>
<VTKFile type="UnstructuredGrid" version="0.1" byte_order="LittleEndian" header_type="UInt32" compressor="vtkZLibDataCompressor">
  <UnstructuredGrid>
    <Piece NumberOfPoints="45" NumberOfCells="67">
      <PointData>
        <DataArray type="Float64" Name="nsi_BC" NumberOfComponents="3" format="ascii" RangeMin="0" RangeMax="44">
          0 0 0 0 0 0
          0 0 0 0 0 0
          0 0 0 0 0 0
          0 0 0 0 0 0
          0 0 0 0 0 0
          0 0 0 0 0 0
          0 0 0 0 0 0
          0 0 0 0 0 0
          0 0 0 0 0 0
          0 0 0 0 0 0
          0 0 0 0 0 0
          0 0 0 0 0 0
          0 0 0 0 0 0
          0 0 0 0 0 0
          0 0 0 0 0 0
          0 0 0 0 0 0
          0 0 0 0 0 0
          0 0 0 0 0 0
          0 0 0 0 0 0
          0 0 0 0 0 0
          44 0 0 0 0 0
          44 0 0 44 0 0
          0 0 0
          <InformationKey name="L2_NORM_RANGE" location="vtkDataArray" length="2">
            <Value index="0">
              0
            </Value>
            <Value index="1">
              44
            </Value>
          </InformationKey>
        </DataArray>
        <DataArray type="Float64" Name="nsi_FIXNO" NumberOfComponents="3" format="ascii" RangeMin="1" RangeMax="1.4142135623730951">
          0 1 0 -1 -1 0
          0 1 0 -1 -1 0
          0 1 0 -1 -1 0
          -1 -1 0 0 1 0
          -1 -1 0 -1 -1 0
          0 1 0 -1 -1 0
          -1 -1 0 0 1 0
          1 0 0 -1 -1 0
          -1 -1 0 1 0 0
          1 0 0 -1 -1 0
          0 1 0 -1 -1 0
          -1 -1 0 0 1 0
          -1 -1 0 -1 -1 0
          1 0 0 -1 -1 0
          1 0 0 -1 -1 0
          1 0 0 0 1 0
          -1 -1 0 -1 -1 0
          0 1 0 -1 -1 0
          0 1 0 -1 -1 0
          -1 -1 0 0 1 0
          1 1 0 0 1 0
          1 1 0 1 1 0
          0 1 0
          <InformationKey name="L2_NORM_RANGE" location="vtkDataArray" length="2">
            <Value index="0">
              1
            </Value>
            <Value index="1">
              1.4142135624
            </Value>
          </InformationKey>
        </DataArray>
        <DataArray type="Float64" Name="Velocity" NumberOfComponents="3" format="ascii" RangeMin="1.2237199947634017" RangeMax="360.6465336207431">
          4.293857628626683 0 0 4.21113663862804 -0.004012960629356726 0
          3.8590877854824646 0 0 4.212027824981614 -0.00012459546772850496 0
          4.446754783766851 0 0 4.038308489874012 -0.595440650103677 0
          4.24279859863635 0.0024098280417100956 0 -8.263790786427371 0 0
          1.6639921650199516 -0.8585108968467514 0 1.7399063016202527 0.19965214480719815 0
          4.291906766684609 0 0 5.573272029767659 -0.6506798390476667 0
          4.7243196892574835 0.4289690498150573 0 3.647033747770688 0 0
          3.431274263285258e-16 -1.2237199947634017 0 6.635737681751236 -5.381106468997816 0
          7.594979628285206 0.6998644743045155 0 -8.289180529487659 4.785760607519899 0
          -9.489917008310746 -5.479006136426098 0 16.33281892361984 -12.503827674513264 0
          16.003566443343477 0 0 2.0566334025329662 1.0057185198837246 0
          7.609474954062753 -2.8842654632806473 0 5.0515989161760295 0 0
          4.538452971720644 2.2680544556069453 0 -2.4142364188232177 3.259960227044594 0
          0 1.9434217394814817 0 1.1340274550185612 3.9451684070595645 0
          -17.178291009132003 9.917890933073739 0 77.40516456209825 -8.629611203522053 0
          -19.710908747048084 -11.380098465037607 0 -3.58994687421404 0 0
          30.469354148748902 -2.2316166037402017 0 28.44165168080823 16.054239536874988 0
          -134.54032881890114 0 0 80.99710104235015 9.334667150488663 0
          10.069968753721637 0 0 -3.0682909372747287 -33.78396616218814 0
          -3.491491595706804 35.1287678757345 0 351.07900239438555 0 0
          43.999999999999645 0 0 -150.7795684821296 0 0
          43.99999999999964 0 0 43.99999999999964 0 0
          360.6465336207431 0 0
          <InformationKey name="L2_NORM_RANGE" location="vtkDataArray" length="2">
            <Value index="0">
              1.2237199948
            </Value>
            <Value index="1">
              360.64653362
            </Value>
          </InformationKey>
        </DataArray>
        <DataArray type="Float64" Name="Pressure" format="ascii" RangeMin="-52304.632314069604" RangeMax="0">
          0 0 -10939.823660680306 0 -20129.35235232953 -20475.743118842413
          -16508.536492937536 -26997.94493751263 -26126.66128845977 -23061.064932895057 0 -26067.16125046641
          -22674.246200584366 -10961.828601855934 -26100.892625035936 -28784.066101578373 -25998.129359510753 -27778.06232811735
          -27757.01987690596 -33141.68595414794 -35711.89269054325 -30116.741335663806 -31775.802092988823 -20066.593660000573
          -29671.30753031254 -27587.718740784625 -32110.528473257178 -32310.479249921806 -33513.24343013645 -34656.31690161217
          -33556.90837362512 -26877.283081197056 -35069.73296591432 -34178.029856048415 -44225.70920943418 -36228.269421794095
          -35615.21247553933 -43730.71200156713 -43972.50695407944 -52185.47849257963 -43059.38138013539 -44860.892887738984
          -43112.26223270128 -43347.70350295379 -52304.632314069604
        </DataArray>
        <DataArray type="Float64" Name="BTraction" NumberOfComponents="3" format="ascii" RangeMin="0" RangeMax="44919.74409038692">
          -0.000013923404200233615 -1956.74498818723 0 -0.000003904714024070692 -0.000002647201952329306 0
          0.0000019528432685504533 -10307.624135345526 0 -0.0000027954711918383546 0.000002314092777023711 0
          -0.0003064595103779847 -19258.848109596325 0 0 0 0
          0 0 0 -0.0006283619745108389 -27397.6410224401 0
          0 0 0 0 0 0
          -0.000024257363794441882 1970.579130974142 0 0 0 0
          0 0 0 -0.0000015756774058229256 10312.89587577735 0
          -13328.228105904005 3.036577009288434 0 0 0 0
          0 0 0 7080.766933147679 11786.17527157212 0
          7080.766520869687 -11780.102066730986 0 0 0 0
          0.001076024870405138 -35798.292493415676 0 0 0 0
          0 0 0 -0.00008272787595092357 19204.863190990367 0
          0 0 0 0 0 0
          -16292.699848725579 -6.302957816873443 0 0 0 0
          8502.462768928614 14309.19616760772 0 0 0 0
          8502.461314524064 -14321.802118131802 0 -0.0000754743203830522 27290.426730094532 0
          0 0 0 0 0 0
          0.0017100566629868474 -44191.801566797265 0 0 0 0
          -0.0009481511894265563 35824.84760758657 0 0 0 0
          0 0 0 -24395.419457705193 -24943.796380103668 0
          -44701.8066607842 0.015564411366379491 0 -0.0003544428868443646 44619.76842251755 0
          -43142.51321687146 -0.00011697023261970827 0 -44919.74409038398 -0.016246759851295922 0
          -24468.461152163494 25104.6670609607 0
          <InformationKey name="L2_NORM_RANGE" location="vtkDataArray" length="2">
            <Value index="0">
              0
            </Value>
            <Value index="1">
              44919.74409
            </Value>
          </InformationKey>
        </DataArray>
        <DataArray type="Float64" Name="Time_Average_Velocity" NumberOfComponents="3" format="ascii" RangeMin="0.6346168129430694" RangeMax="47.108681277242056">
          10.118250189411631 0 0 10.087149262310788 -0.002874677560398115 0
          9.941695812872146 0 0 10.090867680529213 -0.0009289596116196711 0
          10.041100082084917 0 0 9.938804760716607 -0.3314773619437781 0
          10.086253055697554 0.0033599143943255226 0 5.084896341036413 0 0
          8.877883565188622 -0.43844845816016476 0 9.167016779979976 0.09561657546897709 0
          10.107566400296756 0 0 11.382688272427611 0.05478792399806338 0
          10.212890620168286 0.2324273433123416 0 9.873229379484611 0 0
          1.7794465618098225e-16 -0.6346168129430694 0 11.33999119508848 -2.588429963475017 0
          12.215706588371098 -0.006224088780231308 0 4.303860529764825 -2.4848350340948966 0
          3.705266572007795 2.1392366516321 0 14.159522602233034 -7.066039558365062 0
          11.160381084756633 0 0 8.724626132441315 0.4921011265030822 0
          15.624302708295774 -0.7730914212749715 0 10.244309520202007 0 0
          10.331634974570266 0.977165405493789 0 7.764833469900521 1.7668820393081386 0
          0 1.2817427057120525 0 12.582319632200877 1.211646978547287 0
          4.415666346113949 -2.5493861522267482 0 35.848254288403325 -4.330836926251255 0
          3.425941241992225 1.9779680972417641 0 6.478661616017526 0 0
          10.212712993922086 -1.318001727079337 0 19.14479416501469 9.006139952214262 0
          -41.290908639971 0 0 37.76115853558227 4.724805984103203 0
          9.070997474948113 0 0 33.1213575014082 -20.494330287103065 0
          33.39410594436447 21.364039497723358 0 17.714974438931137 0 0
          43.99999999999006 0 0 -47.108681277242056 0 0
          43.99999999999005 0 0 43.99999999999006 0 0
          19.77336059885984 0 0
          <InformationKey name="L2_NORM_RANGE" location="vtkDataArray" length="2">
            <Value index="0">
              0.63461681294
            </Value>
            <Value index="1">
              47.108681277
            </Value>
          </InformationKey>
        </DataArray>
        <DataArray type="Float64" Name="Time_Average_Pressure" format="ascii" RangeMin="-12710.252209457674" RangeMax="0">
          0 0 -2061.098074188807 0 -3877.7667433005226 -3877.9331804745575
          -3102.5640468341207 -5383.97012201351 -5066.541119861115 -4356.7980150653975 0 -4896.753462851492
          -4282.029014506833 -2072.6704928723025 -4865.341519819809 -5407.377147772065 -4860.692536603889 -5198.114208943197
          -5188.01198922856 -6778.612643938487 -7741.240069992985 -5606.799200713974 -5821.530323095704 -3847.106167739941
          -5533.632673781516 -5331.069050253477 -5805.936148842894 -5932.003125321163 -5991.1814877051265 -6239.727529488803
          -6022.239102966933 -5327.943957747866 -6102.214433010136 -6815.847127251804 -9891.494703249258 -6691.510295089751
          -7692.760740390481 -8744.517068705994 -8825.306917569333 -12658.231715373815 -8001.180699166088 -10226.525414756035
          -7832.5514362594 -8109.64244968059 -12710.252209457674
        </DataArray>
        <DataArray type="Float64" Name="RMS_Velocity" NumberOfComponents="3" format="ascii" RangeMin="0" RangeMax="340.87317302188325">
          5.824392560784949 0 0 5.8760126236827475 0.0011382830689586113 0
          6.082608027389687 0 0 5.878839855547596 0.0008043641438911662 0
          5.594345298318063 0 0 5.900496270842591 0.2639632881598989 0
          5.843454457061203 0.000950086352615428 0 13.348687127463783 0 0
          7.213891400168666 0.4200624386865867 0 7.427110478359723 0.10403556933822107 0
          5.815659633612147 0 0 5.809416242659953 0.70546776304573 0
          5.488570930910797 0.1965417065027157 0 6.226195631713918 0 0
          1.6518277014754354e-16 0.5891031818203322 0 4.70425351333724 2.7926765055227984 0
          4.620726960085882 0.7060885630847467 0 12.593041059252483 7.270595641614795 0
          13.19518358031854 7.618242788058198 0 2.173296321386797 5.4377881161482025 0
          4.843185358586844 0 0 6.667992729908347 0.5136173933806425 0
          8.014827754233025 2.1111740420056755 0 5.192710604025972 0 0
          5.793182002849618 1.2908890501131562 0 10.179069888723737 1.4930781877364558 0
          0 0.6616790337694289 0 11.448292177182314 2.7335214285122778 0
          21.59395735524595 12.467277085300486 0 41.556910273694925 4.298774277270798 0
          23.136849989040307 13.358066562279372 0 10.068608490231565 0 0
          20.256641154826816 0.9136148766608647 0 9.296857515793535 7.048099584660727 0
          93.24942017893014 0 0 43.235942506767884 4.609861166385459 0
          0.9989712787735194 0 0 36.18964843868292 13.289635875085073 0
          36.885597540071274 13.764728378011142 0 333.3640279554544 0 0
          0 0 0 103.67088720488755 0 0
          0 0 0 0 0 0
          340.87317302188325 0 0
          <InformationKey name="L2_NORM_RANGE" location="vtkDataArray" length="2">
            <Value index="0">
              0
            </Value>
            <Value index="1">
              340.87317302
            </Value>
          </InformationKey>
        </DataArray>
        <DataArray type="Float64" Name="RMS_Pressure" format="ascii" RangeMin="0" RangeMax="39594.380104611926">
          0 0 8878.725586491499 0 16251.585609029007 16597.809938367856
          13405.972446103415 21613.97481549912 21060.120168598656 18704.26691782966 0 21170.407787614917
          18392.217186077534 8889.15810898363 21235.551105216127 23376.688953806308 21137.436822906864 22579.948119174154
          22569.0078876774 26363.073310209456 27970.652620550263 24509.942134949833 25954.27176989312 16219.487492260632
          24137.674856531023 22256.64969053115 26304.592324414283 26378.476124600642 27522.061942431323 28416.589372123366
          27534.669270658185 21549.33912344919 28967.518532904185 27362.182728796615 34334.21450618492 29536.759126704346
          27922.45173514885 34986.194932861144 35147.200036510105 39527.246777205815 35058.200680969305 34634.36747298295
          35279.710796441876 35238.061053273195 39594.380104611926
        </DataArray>
        <DataArray type="Float64" Name="Turbulence_Intensity" format="ascii" RangeMin="0" RangeMax="0.7071067811865476">
          0.4070335679516345 0.41190708828941347 0.4326277392130757 0.41195342960290293 0.39396076768496924 0.41998339020990516
          0.40966115709017187 0.7071067811865476 0.5748455933368278 0.5729167191935864 0.40685286656927483 0.3628431550309179
          0.38015563596747787 0.44591136121348673 0.6563942936713488 0.3312326058821088 0.27012491883868917 0.7071067811865475
          0.7071067811865474 0.26166813032700537 0.30685773035812397 0.5410863879827962 0.37172052829697844 0.35842346168916367
          0.403080865360678 0.7041439325651908 0.36503249026676027 0.6463838219831191 0.7071067811865476 0.7070507428752877
          0.7071067811865476 0.7071067811865475 0.706332069646569 0.3899099087074007 0.7071067811865475 0.70690621424995
          0.07787229214672371 0.655469603943032 0.6530991864365981 0.7071067811865475 0 0.7071067811865474
          0 0 0.7071067811865476
        </DataArray>
        <DataArray type="Float64" Name="Time_Average_Tractions" NumberOfComponents="3" format="ascii" RangeMin="0" RangeMax="10235.982323962318">
          -0.000004975028677963752 -368.6570696846613 0 -5.508221152720253e-7 -0.0000010300576251435103 0
          -0.0000011901377248971295 -1954.768230377212 0 1.0846939905020366e-7 4.5609631511733496e-7 0
          -0.00011930971284047905 -3725.935321906404 0 0 0 0
          0 0 0 -0.00035370782520035014 -5548.658188768124 0
          0 0 0 0 0 0
          -0.00000814575789248284 372.5985294263985 0 0 0 0
          0 0 0 -0.000004175946028612352 1957.8917040991128 0
          -2487.293045502021 1.4578059801564596 0 0 0 0
          0 0 0 1325.5739488144206 2202.818169019799 0
          1325.5737776332724 -2199.9026632416417 0 0 0 0
          0.0001161528200264207 -7738.069846088341 0 0 0 0
          0 0 0 -0.00007483545822105467 3700.121990583323 0
          0 0 0 0 0 0
          -2936.4322875716116 -4.482252596187777 0 0 0 0
          1518.4061766360667 2567.5209045121355 0 0 0 0
          1518.405948576607 -2576.4860086862027 0 -0.0001393857985409493 5498.012458324122 0
          0 0 0 0 0 0
          -0.0014277180557722168 -10011.6819100736 0 0 0 0
          -0.0005450384095773639 7754.969890463506 0 0 0 0
          0 0 0 -5513.097532159117 -5910.0953531236155 0
          -8809.13420285471 0.0010888881176070659 0 -0.0022498094190669905 10235.982323962071 0
          -7906.773517050775 -0.00007383028967763402 0 -8893.084282580821 -0.001329009198819523 0
          -5545.065111989252 5987.1960617321465 0
          <InformationKey name="L2_NORM_RANGE" location="vtkDataArray" length="2">
            <Value index="0">
              0
            </Value>
            <Value index="1">
              10235.982324
            </Value>
          </InformationKey>
        </DataArray>
      </PointData>
      <CellData>
        <DataArray type="UInt8" Name="vtkGhostType" format="ascii" RangeMin="0" RangeMax="0">
          0 0 0 0 0 0
          0 0 0 0 0 0
          0 0 0 0 0 0
          0 0 0 0 0 0
          0 0 0 0 0 0
          0 0 0 0 0 0
          0 0 0 0 0 0
          0 0 0 0 0 0
          0 0 0 0 0 0
          0 0 0 0 0 0
          0 0 0 0 0 0
          0
        </DataArray>
      </CellData>
      <Points>
        <DataArray type="Float32" Name="Points" NumberOfComponents="3" format="ascii" RangeMin="0.028574999103019354" RangeMax="1.204541097921953">
          1.114400029182434 -0.45719999074935913 0 1.114400029182434 -0.14441269636154175 0
          0.7522138357162476 -0.45719999074935913 0 1.114400029182434 0.14780308306217194 0
          0.4567696750164032 -0.45719999074935913 0 0.43880194425582886 -0.19227321445941925 0
          0.5670586228370667 0.06042253598570824 0 0.2517681121826172 -0.45719999074935913 0
          0.2653692364692688 -0.2506345212459564 0 0.3520563244819641 0.0064490861259400845 0
          1.114400029182434 0.45719999074935913 0 0.25074562430381775 -0.06805335730314255 0
          0.3649561405181885 0.17054519057273865 0 0.7522138357162476 0.45719999074935913 0
          0.24003000557422638 0 0 0.16333219408988953 -0.12140321731567383 0
          0.25074562430381775 0.06805335730314255 0 0.1971675008535385 -0.024746675044298172 0
          0.1971675008535385 0.024746675044298172 0 0.07325717061758041 -0.271524041891098 0
          0.031685639172792435 -0.45719999074935913 0 0.11545279622077942 -0.003200044622644782 0
          0.053034476935863495 -0.09037953615188599 0 0.4567696750164032 0.45719999074935913 0
          0.1303781270980835 0.10237718373537064 0 0.21573273837566376 0.2782617211341858 0
          0.028574999421834946 0 0 0.03561127185821533 0.08647192269563675 0
          -0.014287499710917473 -0.024746675044298172 0 -0.04812280461192131 -0.12140321731567383 0
          -0.014287499710917473 0.024746675044298172 0 0.2517681121826172 0.45719999074935913 0
          -0.07858125120401382 2.220446049250313e-16 0 0.023825805634260178 0.2352563887834549 0
          -0.20755450427532196 -0.45719999074935913 0 -0.08769754320383072 0.1564512699842453 0
          0.031685639172792435 0.45719999074935913 0 -0.28333646059036255 -0.15488123893737793 0
          -0.2888784408569336 0.15345117449760437 0 -0.45719999074935913 -0.45719999074935913 0
          -0.45719999074935913 -0.21111147105693817 0 -0.20755450427532196 0.45719999074935913 0
          -0.45719999074935913 0.0008695335709489882 0 -0.45719999074935913 0.21139274537563324 0
          -0.45719999074935913 0.45719999074935913 0
          <InformationKey name="L2_NORM_RANGE" location="vtkDataArray" length="2">
            <Value index="0">
              0.028574999103
            </Value>
            <Value index="1">
              1.2045410979
            </Value>
          </InformationKey>
        </DataArray>
      </Points>
      <Cells>
        <DataArray type="Int64" Name="connectivity" format="ascii" RangeMin="0" RangeMax="44">
          26 28 22 30 26 27
          17 18 21 28 30 32
          14 17 11 18 14 16
          22 28 29 21 18 24
          11 17 15 27 26 21
          32 30 35 16 14 9
          26 22 21 17 21 15
          14 11 9 30 27 35
          28 32 29 18 16 24
          22 29 19 11 15 8
          16 9 12 21 24 27
          27 24 33 32 35 38
          21 22 15 35 27 33
          24 16 25 9 11 5
          29 32 37 15 22 19
          15 19 8 19 29 34
          8 19 7 12 9 6
          38 35 41 11 8 5
          5 8 4 16 12 25
          25 12 23 32 38 37
          37 38 42 33 25 36
          35 33 41 24 25 33
          9 5 6 29 37 34
          7 4 8 23 31 25
          20 7 19 31 36 25
          43 42 38 42 40 37
          12 6 13 33 36 41
          34 20 19 39 34 37
          41 44 38 44 43 38
          40 39 37 6 5 2
          4 2 5 1 3 6
          13 23 12 6 10 13
          0 1 6 10 6 3
          2 0 6
        </DataArray>
        <DataArray type="Int64" Name="offsets" format="ascii" RangeMin="3" RangeMax="201">
          3 6 9 12 15 18
          21 24 27 30 33 36
          39 42 45 48 51 54
          57 60 63 66 69 72
          75 78 81 84 87 90
          93 96 99 102 105 108
          111 114 117 120 123 126
          129 132 135 138 141 144
          147 150 153 156 159 162
          165 168 171 174 177 180
          183 186 189 192 195 198
          201
        </DataArray>
        <DataArray type="UInt8" Name="types" format="ascii" RangeMin="5" RangeMax="5">
          5 5 5 5 5 5
          5 5 5 5 5 5
          5 5 5 5 5 5
          5 5 5 5 5 5
          5 5 5 5 5 5
          5 5 5 5 5 5
          5 5 5 5 5 5
          5 5 5 5 5 5
          5 5 5 5 5 5
          5 5 5 5 5 5
          5 5 5 5 5 5
          5
        </DataArray>
      </Cells>
    </Piece>
  </UnstructuredGrid>
</VTKFile>
