<?xml version="1.0"?>
<VTKFile type="UnstructuredGrid" version="0.1" byte_order="LittleEndian" header_type="UInt32" compressor="vtkZLibDataCompressor">
  <UnstructuredGrid>
    <Piece NumberOfPoints="319" NumberOfCells="562">
      <PointData>
        <DataArray type="Float64" Name="Velocity" NumberOfComponents="3" format="ascii" RangeMin="0" RangeMax="1.0000000000000002">
          1.0000000000000002 0 0 0 0 0
          1.0000000000000002 0 0 0.1601537973204587 -0.09476938105697695 0
          0 0 0 1.0000000000000002 0 0
          -0.013758680759042753 -0.21401865758085795 0 0.31805048054634066 -0.08293797372075869 0
          0.06553305680556294 -0.21696476781541266 0 0 0 0
          1.0000000000000002 0 0 0.45109645366751105 -0.056208907754800766 0
          -0.031163307711915767 -0.23128339264429412 0 0.17267263073779543 -0.17194456897618793 0
          -0.022463704348551366 -0.2883777332414873 0 0 0 0
          1.0000000000000002 0 0 0.5526071748797398 -0.03773076474417072 0
          -0.021891859079189193 -0.21421482231370434 0 0.03367172179303955 -0.26206920365333064 0
          -0.0372662170562655 -0.3002470871213032 0 0.27658566890890496 -0.12869786439978523 0
          -0.0235334271662735 -0.30687838357537023 0 0.10826764101545344 -0.21637859863117406 0
          0 0 0 1 0 0
          0.6259627185527712 -0.026814316614044643 0 -0.013987455375707862 -0.18949811728894495 0
          0.3637081814369544 -0.09681297194205625 0 -0.034897652082357754 -0.28670834830119557 0
          0.015186505951451558 -0.27668438256433636 0 0.18283613590799222 -0.17351150007747151 0
          -0.04294361768439026 -0.31777004687808685 0 1.0000000000000002 0 0
          0.6789561223291611 -0.01983479791760591 0 -0.03120988120988148 -0.2656520155322705 0
          0.4333094318813257 -0.07389699379280011 0 0.06568055073870972 -0.23602809198676866 0
          -0.03198212649180147 -0.3080036918546268 0 -0.04866349074818362 -0.310916518020385 0
          0.2495734414009724 -0.13810460551332637 0 1.0000000000000002 0 0
          -0.005683134537982013 -0.2778075827206422 0 0.7181720350717566 -0.014884729710029845 0
          -0.054288974219290895 -0.3176490735765206 0 0.11837045681147118 -0.19605932515302013 0
          0.4886654794376714 -0.05685427184841067 0 0.3068149216649713 -0.10954043117717649 0
          -0.04671272650085179 -0.2999674305154911 0 0.029037018264534864 -0.24045504203479923 0
          1 0 0 0.7477486763172866 -0.01122046062063532 0
          0.1681173450981875 -0.16038301823349607 0 0.5327290499588914 -0.043805483281238955 0
          -0.028915366159714948 -0.269437473382188 0 0.3548238782697132 -0.0864402999373257 0
          0.066385266655781 -0.20279830350111042 0 0.21253407662196958 -0.12957889441168263 0
          1.0000000000000002 0 0 0.7701891695401262 -0.008466617592981972 0
          -0.0052519182025102615 -0.23393109414720883 0 0.5675593913973519 -0.03361924359076264 0
          -0.06484308557626513 -0.28404415227661184 0 0.10253211949136007 -0.16770085038616284 0
          0.3942496772048552 -0.06759052607681641 0 0.25062719030866837 -0.10319463058134797 0
          -0.053712326928080686 -0.2531754571324052 0 0.020460116992254772 -0.1978606691575264 0
          1.0000000000000002 0 0 0.7871398586972662 -0.006351863204512607 0
          0.5946850823603848 -0.025498809383797012 0 0.13524750745272837 -0.13597555195177963 0
          0.4258456419203364 -0.051983474423452296 0 -0.08517506840209274 -0.26156143950274136 0
          -0.03860505155025763 -0.21873834494765007 0 0.2821391077480591 -0.08048237874537247 0
          0.045496519369699416 -0.16327205342711834 0 1.0000000000000002 0 0
          0.799747829540831 -0.004672678412989787 0 0.16336696451733793 -0.10752195978684105 0
          0.6153036066557652 -0.01884247128913521 0 -0.07953700435320335 -0.23038028871155228 0
          -0.022042751670680864 -0.1835770643286543 0 0.45037357781590415 -0.03878431726461201 0
          0.068121959636457 -0.13087578206575692 0 0.3071855259471573 -0.060660587751266835 0
          1.0000000000000002 0 0 -0.07110762886149742 -0.1964329166659163 0
          -0.10664938431161632 -0.23382609293808312 0 0.8088081555880033 -0.003284833387824071 0
          0.18635730821186253 -0.08188143996562275 0 0.6303249500555715 -0.0131965952302166 0
          -0.005914870313346098 -0.14912433887617169 0 0.4685042256204772 -0.027311392782573725 0
          0.08730169537076202 -0.1007111859735121 0 0.3260217780128721 -0.04300479030154356 0
          -0.10531351217711936 -0.20225387022247981 0 -0.061583763513375744 -0.16161910665116547 0
          0.20401940334874966 -0.05847811929463863 0 1.0000000000000002 0 0
          0.814851959742218 -0.002086479817099435 0 0.00847512779059468 -0.11595838973951166 0
          0.6403963240789161 -0.008217056091792827 0 0.48075981041217275 -0.017008935994953407 0
          0.10244387988063133 -0.07249859372853154 0 -0.10186735890926689 -0.16840667990282854 0
          -0.12787772644138168 -0.20198935637668636 0 0.338912641290018 -0.02686866432157851 0
          -0.052294817742579415 -0.12697050335941668 0 0.020270721092187936 -0.08417225710824881 0
          0.21631507973567374 -0.03671537799969235 0 1.0000000000000002 0 0
          0.8182108708265116 -0.0010012427275881517 0 -0.12961955572213893 -0.17002164110336526 0
          0.6459371659063285 -0.003631296976215187 0 -0.0974791780492267 -0.13361146192391785 0
          0.11322817917912131 -0.04581198427384074 0 0.4875007465854112 -0.007411494815410964 0
          -0.044206769120588074 -0.09294933262749418 0 0.3460736919709958 -0.011674915362775281 0
          0.028937007844335574 -0.05359171955262757 0 0.22327710933711445 -0.016010678104719133 0
          -0.12959237087616682 -0.13613920124365383 0 1.0000000000000002 0 0
          -0.09308151441021777 -0.0986312542857331 0 0.8190587169310777 0.00003404120219558422 0
          0.647169810508819 0.0007934098512488404 0 0.11950494382325749 -0.020164170556110687 0
          -0.03797616597846279 -0.059664410840946376 0 0.48893047363696174 0.0018915582570457133 0
          0.3476483916584637 0.0031049575390407432 0 -0.12859333195233563 -0.10130545470100638 0
          0.03417221695408122 -0.023902203232277316 0 -0.08935649916022025 -0.06384100601853507 0
          0.2249640346427035 0.004195713336916158 0 1 0 0
          0.8174321478707167 0.0010781900344795751 0 0.6441369577588655 0.005275295523098117 0
          -0.03400721258920798 -0.02701793416019189 0 0.12123766597545406 0.004949328705545229 0
          0.4851027655895137 0.01128742567811478 0 -0.12725002581599967 -0.06611017592153136 0
          0.34370199562609505 0.01797300521860678 0 0.03585006828664673 0.005274406328283299 0
          -0.08675336146920053 -0.02936872156745421 0 0.22144072077016658 0.0244424600871985 0
          1.0000000000000002 0 0 -0.03249753388612833 0.005194896130270521 0
          0.8132335769900294 0.002193472793023258 0 0.11847356301310531 0.030025880506804402 0
          0.6367057954835622 0.010040243898639539 0 -0.12600280240471562 -0.030886257522689038 0
          0.4759282837037336 0.021167753068289545 0 0.3342271668373986 0.03342549431601316 0
          0.03398612798109994 0.034329467091554475 0 -0.08551392407784637 0.00479709942936074 0
          0.2127787938109623 0.045250886993896774 0 -0.03346894926534024 0.037214901640042056 0
          1.0000000000000002 0 0 0.8062177213868862 0.0034542263285756093 0
          0.11133691724815664 0.05553798055251748 0 -0.12510790965610447 0.004189600235272674 0
          0.6245607874522974 0.01534399636761121 0 0.4611820135787352 0.03195460145971374 0
          -0.0856950263932791 0.038725135300609996 0 0.028725259797605474 0.0636285965340908 0
          0.31916143347666015 0.04996993281802474 0 0.1990755209223197 0.06712482945332626 0
          -0.03678338659856418 0.0692628450196502 0 -0.12464808227868963 0.03901293941300574 0
          0.10004278924640593 0.08191320061431655 0 1 0 0
          0.7959599825943836 0.004958989598636047 0 0.6071888919828053 0.021496997415313513 0
          -0.0871836485100331 0.0724735421468491 0 0.44051752371230085 0.04412454747155424 0
          0.02034727832080447 0.09347315141004053 0 0.29842052215145204 0.0681351541094087 0
          0.18049194019864984 0.09054015537915171 0 -0.04214485995091075 0.10148606347360568 0
          -0.12454364618070567 0.07347932059640018 0 0.08492937777046121 0.10950308098822484 0
          1.0000000000000002 0 0 0.7817973386723609 0.006853443659132421 0
          0.5838640714499327 0.028897224364367147 0 -0.08970397741791473 0.10602689304664775 0
          0.41350321852339544 0.05822904075923227 0 0.00928796026137035 0.12405211017816732 0
          0.27196097459861057 0.08846700578378813 0 -0.12456187325573875 0.10741716027061184 0
          0.15731762998123325 0.11591390443793058 0 -0.04909046233178477 0.1338982990542629 0
          0.06651057038512549 0.13853013720130125 0 1.0000000000000002 0 0
          -0.09281891989251399 0.13922952862777502 0 0.7627126087116308 0.009381349882082323 0
          0.553629887375542 0.03808760573252877 0 -0.0038265128819995244 0.15537382284858914 0
          0.37969801084570176 0.0749118878005717 0 0.23989274460481758 0.11149677453300448 0
          -0.12432590496732479 0.14051958638402245 0 -0.05697456427988762 0.1663036772933085 0
          0.13007683935373443 0.1435349154697408 0 0.045555426055371294 0.16899552689952949 0
          -0.09593035013568256 0.1717079989447292 0 1 0 0
          0.7371391368539465 0.012980359988326478 0 0.5152624227302013 0.04985888236246385 0
          -0.018131148675213465 0.18716337496998403 0 0.33875142649741113 0.09492813443521758 0
          -0.12332693149403356 0.17227012681588483 0 0.20263158940152481 0.13766522438782028 0
          -0.06494894589976635 0.1981936580278645 0 0.09966783376352836 0.1734278600827234 0
          0.023185765570187197 0.2005197355178495 0 -0.09828220235754079 0.20277468562137102 0
          1 0 0 0.7028347927642116 0.018352855719342243 0
          -0.03246976550946537 0.21870399284565215 0 0.4672911302235177 0.0653158893798931 0
          0.2904981173156392 0.11910731344263407 0 -0.12094376607883074 0.20185733811240827 0
          0.16101083159042662 0.16716004736863374 0 -0.07194851226263108 0.2286024162711397 0
          0.06744994086258284 0.20511412423180586 0 -0.09897434593054673 0.23130391929482658 0
          0.0009185883448364678 0.23208732726520126 0 1 0 0
          0.6572043110957384 0.026154694383400966 0 -0.04539721978470675 0.24860407214598068 0
          0.40851732476884506 0.08545596632269953 0 -0.11647528088033933 0.22807417193606047 0
          0.23526748833493186 0.14793638492073882 0 0.11638488189866723 0.1995014737953047 0
          -0.0767273828011487 0.2559124001035198 0 0.035221573347129165 0.2372057490854044 0
          -0.12673546757063933 0.2201750751215485 0 -0.09701947330774743 0.25557976946824895 0
          -0.01942731735387818 0.26168286628973014 0 1.0000000000000002 0 0
          -0.055314782599275754 0.27450180334665525 0 0.5973293993750896 0.035774149947765795 0
          -0.10920690553402644 0.24920575941874273 0 0.33938991292443804 0.10953190418195378 0
          0.17507871116791063 0.18014018563741221 0 -0.0780147357246711 0.2776343471781695 0
          0.07131807650563386 0.23252735579275444 0 0.005516393718843899 0.2667023920246133 0
          -0.11546168094363918 0.2382650989021559 0 -0.09150177821649497 0.2731445543476095 0
          -0.03567288511033311 0.285801293334788 0 -0.11739795611735174 0.22404313166012008 0
          -0.060551307517747885 0.2927360385651613 0 -0.0985594811986308 0.2629345009729665 0
          1.0000000000000002 0 0 0.5152746394389521 0.044341416490838344 0
          0.26194913423879024 0.13310650938148583 0 0.11521200542158269 0.21061023308793414 0
          -0.0746767900594503 0.2902052829203097 0 0.03125883614946641 0.2608458510574952 0
          -0.10113247009339377 0.2486309745088433 0 -0.017128101291080527 0.28795415642888794 0
          -0.08177915961167072 0.2806941954383288 0 -0.044433923493934796 0.29875410128307767 0
          -0.10059108925361261 0.23157114853895527 0 -0.0843029481467044 0.26630561618022125 0
          -0.05884903049412442 0.2978893192646662 0 1 0 0
          0.39437790526926064 0.05375637113636455 0 0.17278506163520232 0.14857466279329198 0
          0.060264640724311314 0.230109281108935 0 -0.06544611440812052 0.28871349371971144 0
          0.0028867723670473423 0.2754042250543058 0 -0.0979097074770008 0.21282593859714324 0
          -0.0838423201865809 0.24870580486556676 0 -0.026963850962196986 0.2919298142578356 0
          -0.06738519249608366 0.27394440989907315 0 -0.041616436083026453 0.2917694691638739 0
          -0.08145001155735612 0.22917568514376346 0 -0.06657350572254815 0.25569622298475325 0
          -0.047661644161678125 0.2819571352509822 0 -0.0490466685026719 0.26626761260855497 0
          -0.07783017231417987 0.20868469735204068 0 -0.06415287951999109 0.23550514472811318 0
          -0.04801711836537059 0.2472186082924948 0 -0.06081789025056833 0.21445400445442866 0
          -0.04576116006738185 0.22658788539163727 0 -0.05699628791152017 0.19330097376182678 0
          -0.04290903119716841 0.20553635881028953 0 -0.03981154650747999 0.18477910165147768 0
          -0.03666550531323918 0.16475227354950073 0 -0.1532343820763079 0.003479248179288002 0
          -0.1522939806706543 0.038286052004995054 0 -0.15374669538393237 -0.03156775706940947 0
          -0.15373487258746238 -0.06659301335659869 0 -0.1529553993072005 -0.10125546627083959 0
          -0.15101877079158005 -0.13505774879055676 0 -0.14740498560026732 -0.16726182524874347 0
          -0.14150396231090287 -0.19680362664172282 0 -0.12346066721363681 -0.2305843734468189 0
          -0.10456299133510394 -0.26104045437605394 0 -0.0861035010066253 -0.28686379566469244 0
          -0.06911895783571144 -0.306464709096519 0 -0.06417581753523724 -0.31324686402160734 0
          -0.04959513799718053 -0.29539898474823506 0 -0.02840153308519429 -0.24325706609253075 0
          -0.010068275828584555 -0.1668527450256853 0 0 0 0
          -0.11622077186604586 0.20761919869719522 0 -0.0937854596702639 0.19323355750405202 0
          -0.13153364131250572 0.208769042160874 0 -0.13523798915957078 0.19647247716240493 0
          -0.1414253008394329 0.16880044570962952 0 -0.14579378187359465 0.1383845361260736 0
          -0.1488123253977568 0.10611001767529409 0 -0.15087954775617085 0.07259966661728583 0
          -0.05295136240603592 0.172571778829503 0 -0.033575922437265274 0.1457204291917242 0
          -0.07345720820072231 0.1879545226257781 0
          <InformationKey name="L2_NORM_RANGE" location="vtkDataArray" length="2">
            <Value index="0">
              0
            </Value>
            <Value index="1">
              1
            </Value>
          </InformationKey>
        </DataArray>
        <DataArray type="Float64" Name="Pressure" format="ascii" RangeMin="53.41294224239701" RangeMax="125.40477105979575">
          125.40477105979575 120.5242637282518 102.90890224597432 105.04701848345921 103.64241808325218 86.79028378363927
          96.52653715154176 90.80492729961911 88.43458100004038 89.64023955163053 78.75316389484742 82.55660861662541
          86.90132804708578 82.54027555408773 84.00800821852594 81.77917651856278 75.22754718290528 78.44031628561568
          81.10455452054049 80.96189191702389 80.44168837857988 79.02747873336244 79.27270941308079 78.45123654208513
          77.79971829967012 73.4112732191938 76.03811330286032 78.08338691971876 76.731286313183 78.08978258782946
          77.67789798081355 76.47629373656382 77.6537717042197 72.22252352098722 74.31833774930742 76.3851920385292
          74.99140185402793 76.07355246929808 76.70597622532625 76.15312016094857 74.88962868298077 71.3810586759409
          75.51918238875139 73.02467778493204 75.57263695587599 74.67047583188958 73.63338567544291 73.62965000734573
          74.77014625798927 74.36675313468082 70.78703827202682 72.0636803716389 73.52440156912533 72.58931322112448
          73.90996711255656 72.6423385627459 73.36845547294257 72.6066083732952 70.36212289156732 71.34405022584644
          73.09997213479616 71.78078989676804 73.3548985773584 72.5336809377895 71.85716980040219 71.85813579500379
          72.73572777024972 72.37637684791859 70.04648039820958 70.78743074853462 71.13609863926916 71.82909702183582
          71.21289406932256 72.33088411577306 72.13778874117466 71.22834293073667 71.73605701196739 69.80243805684248
          70.34038116510162 71.22055976975841 70.60469565639082 71.8521829644315 71.57839456573866 70.66795552443115
          71.16541860178752 70.68393415640625 69.60764269580405 71.37868968874432 71.54945122469194 69.96843028914778
          70.68413356681941 70.15259826504696 71.06133907661558 70.19418249087072 70.65156669395003 70.20212998111404
          71.15759105333753 70.92371013158913 70.202250535685 69.44797522213507 69.6476174249633 70.5841522235964
          69.75477799922439 69.76970862012392 70.18276862253816 70.7665357123019 70.92987521806957 69.76434119933762
          70.49214857252544 70.14108336441082 69.75955172804176 69.31378246915232 69.35954291824467 70.59980316163016
          69.39087132958105 70.38473697871218 69.74737466010227 69.3757870225339 70.08342508084678 69.35394494693111
          69.72452959929886 69.34176186163744 70.2681615823933 69.19823114382834 70.01527046625371 69.08885480106183
          69.04304455649577 69.33395764978755 69.69385874302824 68.99549895408256 68.95570991559181 69.93999772136821
          69.32625729041143 69.65779866646656 68.93567022677829 69.09645654547391 68.8215266113895 68.69438757202016
          69.31840972171644 68.93175168575105 68.61267100275953 69.6174107028822 68.55518205075929 68.93820153293704
          69.31017356681159 68.52887202604813 69.00501446609486 68.95169555200043 68.54323970866854 68.53067494655352
          68.3273038388759 69.30060169436243 68.21071823017513 68.1379169602098 68.55271152506062 68.96946058605691
          68.10928206639691 68.5884128203854 68.921526211075 68.23759307556666 68.12108579195247 68.98870792884081
          67.92174549329988 67.77154427166487 68.63247729194453 68.16253158578867 67.68889873872132 67.6648264547045
          68.22349602083729 68.68036236612474 67.69364579344523 68.84441901733679 67.88386159606627 67.4528574102851
          68.2960888719455 67.27417226962208 67.76081704668422 67.19206916581133 67.18342950708706 67.85227651613376
          68.37407471758203 67.23947323390851 68.77257758123785 67.45452793958542 66.88764222796657 67.95747160977938
          66.69204901699877 67.34135827728403 66.62878786123562 68.06855589268416 66.65243032834219 67.47077135147585
          66.75010098944517 68.70253783650207 67.61445420179516 66.91349955628525 66.18278088101208 66.89878572649359
          65.98988743246728 65.974465629304 67.76308169949611 67.07600678201459 66.05604124271159 66.21602439443183
          67.2659196964805 68.60822772453152 66.20768705753588 65.28798454286674 66.42791190499798 65.12893782918842
          67.45794308539249 65.20053430983025 66.66582475103472 65.37491007846602 65.6258294544177 66.91189056033846
          68.3699623220188 65.21346641029919 65.92316883430239 64.14031888791529 64.08891608472527 67.1547169967178
          64.2988257373307 66.23855749630371 64.60367126517626 66.55327157934884 64.97764264862434 67.70151720861375
          63.60910659065887 65.38625126090454 62.58790666578433 66.85601712485683 62.861095630692155 63.30919789030365
          65.79807292056113 63.7830466069954 67.13980920726132 66.19483831012492 64.30530684042046 66.50728710413993
          64.84605942103629 60.95409574175962 66.56685249279208 60.26069442933948 61.29713354284086 65.368931417233
          62.216023309980265 62.93738684832044 66.90863997843917 65.85655759658673 63.64013967609494 67.2173698279501
          64.33604083246945 66.30276483700509 66.24794042419424 57.80957806994088 56.868523005086686 58.9333285947033
          64.98547521707313 60.63963904809951 66.70500399050098 61.788310511210334 65.57154831421923 62.78322909148487
          67.06258850483272 66.0940075173226 63.722987692531106 69.9434553340947 57.193595158390984 53.41294224239701
          55.54117240057523 64.56890427814173 57.97326839481293 67.3764641120645 66.55562019538829 59.742117668808646
          65.30296508543995 61.244829622574116 66.9592235743931 65.93384541115901 62.623944857278055 63.83345749003105
          67.30835171849515 66.47427525086536 64.8490547786124 66.93445393750528 65.68850144122524 67.32327611365636
          66.37932573348601 66.94531173532415 67.40632838923617 69.00728664993429 68.72853731381097 69.28906713821053
          69.57377782911402 69.8606790689822 70.1479023737087 70.43190499846312 70.70701466924048 71.24934220049924
          71.9266260077049 72.79085515297221 73.9550990696785 74.47481046548752 74.85055389321967 75.00639471049939
          76.20316080619459 75.5226408600304 67.49216172577623 67.64875291314074 67.40043586066734 67.38681720495539
          67.64475336945942 67.90991641619539 68.17966804512355 68.45267871408271 67.64920896302354 67.77953309975653
          67.60728756270447
        </DataArray>
      </PointData>
      <CellData>
        <DataArray type="UInt8" Name="vtkGhostType" format="ascii" RangeMin="0" RangeMax="0">
          0 0 0 0 0 0
          0 0 0 0 0 0
          0 0 0 0 0 0
          0 0 0 0 0 0
          0 0 0 0 0 0
          0 0 0 0 0 0
          0 0 0 0 0 0
          0 0 0 0 0 0
          0 0 0 0 0 0
          0 0 0 0 0 0
          0 0 0 0 0 0
          0 0 0 0 0 0
          0 0 0 0 0 0
          0 0 0 0 0 0
          0 0 0 0 0 0
          0 0 0 0 0 0
          0 0 0 0 0 0
          0 0 0 0 0 0
          0 0 0 0 0 0
          0 0 0 0 0 0
          0 0 0 0 0 0
          0 0 0 0 0 0
          0 0 0 0 0 0
          0 0 0 0 0 0
          0 0 0 0 0 0
          0 0 0 0 0 0
          0 0 0 0 0 0
          0 0 0 0 0 0
          0 0 0 0 0 0
          0 0 0 0 0 0
          0 0 0 0 0 0
          0 0 0 0 0 0
          0 0 0 0 0 0
          0 0 0 0 0 0
          0 0 0 0 0 0
          0 0 0 0 0 0
          0 0 0 0 0 0
          0 0 0 0 0 0
          0 0 0 0 0 0
          0 0 0 0 0 0
          0 0 0 0 0 0
          0 0 0 0 0 0
          0 0 0 0 0 0
          0 0 0 0 0 0
          0 0 0 0 0 0
          0 0 0 0 0 0
          0 0 0 0 0 0
          0 0 0 0 0 0
          0 0 0 0 0 0
          0 0 0 0 0 0
          0 0 0 0 0 0
          0 0 0 0 0 0
          0 0 0 0 0 0
          0 0 0 0 0 0
          0 0 0 0 0 0
          0 0 0 0 0 0
          0 0 0 0 0 0
          0 0 0 0 0 0
          0 0 0 0 0 0
          0 0 0 0 0 0
          0 0 0 0 0 0
          0 0 0 0 0 0
          0 0 0 0 0 0
          0 0 0 0 0 0
          0 0 0 0 0 0
          0 0 0 0 0 0
          0 0 0 0 0 0
          0 0 0 0 0 0
          0 0 0 0 0 0
          0 0 0 0 0 0
          0 0 0 0 0 0
          0 0 0 0 0 0
          0 0 0 0 0 0
          0 0 0 0 0 0
          0 0 0 0 0 0
          0 0 0 0 0 0
          0 0 0 0 0 0
          0 0 0 0 0 0
          0 0 0 0 0 0
          0 0 0 0 0 0
          0 0 0 0 0 0
          0 0 0 0 0 0
          0 0 0 0 0 0
          0 0 0 0 0 0
          0 0 0 0 0 0
          0 0 0 0 0 0
          0 0 0 0 0 0
          0 0 0 0 0 0
          0 0 0 0 0 0
          0 0 0 0 0 0
          0 0 0 0 0 0
          0 0 0 0 0 0
          0 0 0 0 0 0
          0 0 0 0
        </DataArray>
      </CellData>
      <Points>
        <DataArray type="Float32" Name="Points" NumberOfComponents="3" format="ascii" RangeMin="0.5426273808170171" RangeMax="1.4142135623730951">
          1 1 0 1 0.9666666388511658 0
          0.9666666388511658 1 0 0.9666666388511658 0.9666666388511658 0
          1 0.9333333373069763 0 0.9333333373069763 1 0
          0.9666666388511658 0.9333333373069763 0 0.9333333373069763 0.9666666388511658 0
          0.9333333373069763 0.9333333373069763 0 1 0.8999999761581421 0
          0.8999999761581421 1 0 0.8999999761581421 0.9666666388511658 0
          0.9666666388511658 0.8999999761581421 0 0.8999999761581421 0.9333333373069763 0
          0.9333333373069763 0.8999999761581421 0 1 0.8666666746139526 0
          0.8666666746139526 1 0 0.8666666746139526 0.9666666388511658 0
          0.9666666388511658 0.8666666746139526 0 0.8999999761581421 0.8999999761581421 0
          0.9333333373069763 0.8666666746139526 0 0.8666666746139526 0.9333333373069763 0
          0.8999999761581421 0.8666666746139526 0 0.8666666746139526 0.8999999761581421 0
          1 0.8333333134651184 0 0.8333333134651184 1 0
          0.8333333134651184 0.9666666388511658 0 0.9666666388511658 0.8333333134651184 0
          0.8333333134651184 0.9333333373069763 0 0.9333333373069763 0.8333333134651184 0
          0.8666666746139526 0.8666666746139526 0 0.8333333134651184 0.8999999761581421 0
          0.8999999761581421 0.8333333134651184 0 0.800000011920929 1 0
          0.800000011920929 0.9666666388511658 0 0.9333333373069763 0.800000011920929 0
          0.800000011920929 0.9333333373069763 0 0.8333333134651184 0.8666666746139526 0
          0.8666666746139526 0.8333333134651184 0 0.8999999761581421 0.800000011920929 0
          0.800000011920929 0.8999999761581421 0 0.7666666507720947 1 0
          0.8333333134651184 0.8333333134651184 0 0.7666666507720947 0.9666666388511658 0
          0.8666666746139526 0.800000011920929 0 0.800000011920929 0.8666666746139526 0
          0.7666666507720947 0.9333333373069763 0 0.7666666507720947 0.8999999761581421 0
          0.8333333134651184 0.800000011920929 0 0.800000011920929 0.8333333134651184 0
          0.7333333492279053 1 0 0.7333333492279053 0.9666666388511658 0
          0.7666666507720947 0.8666666746139526 0 0.7333333492279053 0.9333333373069763 0
          0.800000011920929 0.800000011920929 0 0.7333333492279053 0.8999999761581421 0
          0.7666666507720947 0.8333333134651184 0 0.7333333492279053 0.8666666746139526 0
          0.699999988079071 1 0 0.699999988079071 0.9666666388511658 0
          0.7666666507720947 0.800000011920929 0 0.699999988079071 0.9333333373069763 0
          0.800000011920929 0.7666666507720947 0 0.7333333492279053 0.8333333134651184 0
          0.699999988079071 0.8999999761581421 0 0.699999988079071 0.8666666746139526 0
          0.7666666507720947 0.7666666507720947 0 0.7333333492279053 0.800000011920929 0
          0.6666666865348816 1 0 0.6666666865348816 0.9666666388511658 0
          0.6666666865348816 0.9333333373069763 0 0.699999988079071 0.8333333134651184 0
          0.6666666865348816 0.8999999761581421 0 0.7666666507720947 0.7333333492279053 0
          0.7333333492279053 0.7666666507720947 0 0.6666666865348816 0.8666666746139526 0
          0.699999988079071 0.800000011920929 0 0.6333333253860474 1 0
          0.6333333253860474 0.9666666388511658 0 0.6666666865348816 0.8333333134651184 0
          0.6333333253860474 0.9333333373069763 0 0.7333333492279053 0.7333333492279053 0
          0.699999988079071 0.7666666507720947 0 0.6333333253860474 0.8999999761581421 0
          0.6666666865348816 0.800000011920929 0 0.6333333253860474 0.8666666746139526 0
          0.6000000238418579 1 0 0.699999988079071 0.7333333492279053 0
          0.7333333492279053 0.699999988079071 0 0.6000000238418579 0.9666666388511658 0
          0.6333333253860474 0.8333333134651184 0 0.6000000238418579 0.9333333373069763 0
          0.6666666865348816 0.7666666507720947 0 0.6000000238418579 0.8999999761581421 0
          0.6333333253860474 0.800000011920929 0 0.6000000238418579 0.8666666746139526 0
          0.699999988079071 0.699999988079071 0 0.6666666865348816 0.7333333492279053 0
          0.6000000238418579 0.8333333134651184 0 0.5666666626930237 1 0
          0.5666666626930237 0.9666666388511658 0 0.6333333253860474 0.7666666507720947 0
          0.5666666626930237 0.9333333373069763 0 0.5666666626930237 0.8999999761581421 0
          0.6000000238418579 0.800000011920929 0 0.6666666865348816 0.699999988079071 0
          0.699999988079071 0.6666666865348816 0 0.5666666626930237 0.8666666746139526 0
          0.6333333253860474 0.7333333492279053 0 0.6000000238418579 0.7666666507720947 0
          0.5666666626930237 0.8333333134651184 0 0.5333333611488342 1 0
          0.5333333611488342 0.9666666388511658 0 0.6666666865348816 0.6666666865348816 0
          0.5333333611488342 0.9333333373069763 0 0.6333333253860474 0.699999988079071 0
          0.5666666626930237 0.800000011920929 0 0.5333333611488342 0.8999999761581421 0
          0.6000000238418579 0.7333333492279053 0 0.5333333611488342 0.8666666746139526 0
          0.5666666626930237 0.7666666507720947 0 0.5333333611488342 0.8333333134651184 0
          0.6333333253860474 0.6666666865348816 0 0.5 1 0
          0.6000000238418579 0.699999988079071 0 0.5 0.9666666388511658 0
          0.5 0.9333333373069763 0 0.5333333611488342 0.800000011920929 0
          0.5666666626930237 0.7333333492279053 0 0.5 0.8999999761581421 0
          0.5 0.8666666746139526 0 0.6000000238418579 0.6666666865348816 0
          0.5333333611488342 0.7666666507720947 0 0.5666666626930237 0.699999988079071 0
          0.5 0.8333333134651184 0 0.46666666865348816 1 0
          0.46666666865348816 0.9666666388511658 0 0.46666666865348816 0.9333333373069763 0
          0.5333333611488342 0.7333333492279053 0 0.5 0.800000011920929 0
          0.46666666865348816 0.8999999761581421 0 0.5666666626930237 0.6666666865348816 0
          0.46666666865348816 0.8666666746139526 0 0.5 0.7666666507720947 0
          0.5333333611488342 0.699999988079071 0 0.46666666865348816 0.8333333134651184 0
          0.4333333373069763 1 0 0.5 0.7333333492279053 0
          0.4333333373069763 0.9666666388511658 0 0.46666666865348816 0.800000011920929 0