<?xml version="1.0"?>
<VTKFile type="UnstructuredGrid" version="0.1" byte_order="LittleEndian" header_type="UInt32" compressor="vtkZLibDataCompressor">
  <UnstructuredGrid>
    <Piece NumberOfPoints="319" NumberOfCells="562">
      <PointData>
        <DataArray type="Float64" Name="Velocity" NumberOfComponents="3" format="ascii" RangeMin="0" RangeMax="1.0000000000000004">
          1.0000000000000002 0 0 0 0 0
          1.0000000000000002 0 0 0.1598136939754041 -0.09443391819199827 0
          0 0 0 1.0000000000000002 0 0
          -0.014060323186274731 -0.21300651262181203 0 0.31692092822741963 -0.08248014060916381 0
          0.06428974650450366 -0.21542593307226302 0 0 0 0
          1.0000000000000002 0 0 0.44898497833285844 -0.055749280238048926 0
          -0.031358841406828104 -0.22966161187726244 0 0.17009754131541457 -0.17026302874854285 0
          -0.023406819046384097 -0.28571019673699494 0 0 0 0
          1.0000000000000002 0 0 0.5495101860163825 -0.03730914328667148 0
          -0.022010333293895196 -0.2121695708303288 0 0.03152268450598728 -0.2589627281913705 0
          -0.03788838411081994 -0.2967168141305047 0 0.2725573779585609 -0.12707214115842275 0
          -0.025046514393682294 -0.30255702200241874 0 0.10466964623874078 -0.21323732987479868 0
          0 0 0 1.0000000000000002 0 0
          0.6219610579065531 -0.02644144036813243 0 -0.014047111663461492 -0.1872006552378892 0
          0.3582680967141577 -0.09533070622083181 0 -0.03524494023996142 -0.2826218129312748 0
          0.012497803156149533 -0.27213476806058323 0 0.17772747758596005 -0.17055953117881023 0
          -0.043849686833544725 -0.3125863979626654 0 1.0000000000000002 0 0
          0.674157852601403 -0.01951326250519249 0 -0.031330810091641854 -0.2612740015613136 0
          0.42657648300796625 -0.07259305637175024 0 0.061667473685805295 -0.23162146634061395 0
          -0.03369772551597578 -0.30236010900475174 0 -0.04905294113110927 -0.30521951099087696 0
          0.2430089545246878 -0.13545232219273806 0 1.0000000000000004 0 0
          -0.008391945958321488 -0.27218611928182745 0 0.7126901342838092 -0.014613520856571496 0
          -0.05513248956329385 -0.3112810923940006 0 0.11300271375782248 -0.19201000938076573 0
          0.4807909944965464 -0.05573762876356443 0 0.29891643359574427 -0.10723276143936593 0
          -0.048182819575646504 -0.2934686309310315 0 0.025239343029619252 -0.2351724879386615 0
          1.0000000000000002 0 0 0.7416925798527871 -0.01099616529338362 0
          0.16145168411857672 -0.15679873599906366 0 0.5238747149726413 -0.042871118153853825 0
          -0.031137893714733304 -0.2632016563356327 0 0.3457481606871359 -0.08448521373977647 0
          0.06148693868894548 -0.19803872976524714 0 0.20468403316757353 -0.1265010998270788 0
          1.0000000000000002 0 0 0.763660768293152 -0.008284647259769452 0
          -0.008289723838549772 -0.2282143181892933 0 0.5578854228801344 -0.03285504413728896 0
          -0.06566855807943553 -0.27717940916029093 0 0.09658759458895415 -0.16355584326987738 0
          0.38416816326217346 -0.06597611320783037 0 0.24173910730272014 -0.1006262668730552 0
          -0.05504142206580054 -0.2467794160697589 0 0.01660546631343315 -0.19281106422874977 0
          1.0000000000000002 0 0 0.7802317544720946 -0.006207497514520106 0
          0.5843438601686403 -0.024890171024090278 0 0.12835702012064582 -0.13247790788473388 0
          0.41493208617618466 -0.05068875797745786 0 -0.08506320702096336 -0.25477689818456134 0
          -0.040481347903558514 -0.2130109800537123 0 0.27237542005080284 -0.07840620116256948 0
          0.04087310143858776 -0.1589623081723445 0 1.0000000000000002 0 0
          0.7925432980791531 -0.004561677832037956 0 0.15565924356169597 -0.10467025792223976 0
          0.6044370886059696 -0.018375202251919128 0 -0.07970245301494422 -0.22422702070083553 0
          -0.02446519334411924 -0.1786334946682974 0 0.43879740647857435 -0.03778613171047967 0
          0.06281377183987577 -0.12733039522352457 0 0.2967143179719387 -0.059051118135450185 0
          1.0000000000000002 0 0 -0.07158523898234306 -0.1910640298144741 0
          -0.10543540900506515 -0.22749184309579146 0 0.8013822564813489 -0.0032037323347433597 0
          0.17797713074946087 -0.07965701602865358 0 0.6190646828096085 -0.012858603214428194 0
          -0.008845387884595072 -0.14502057715514413 0 0.4564278371737669 -0.026588645935277808 0
          0.08141676891267122 -0.09792698846713657 0 0.3150109898436894 -0.04183603574583622 0
          -0.10419160702216251 -0.1966710131115479 0 -0.062375796468830555 -0.15712251232596974 0
          0.19511942699832602 -0.05685652387659152 0 1.0000000000000002 0 0
          0.807273293150632 -0.0020327323869665116 0 0.005102578071955802 -0.1127129723388084 0
          0.6288650663463612 -0.00799931549956998 0 0.46833845089431925 -0.016545210468997443 0
          0.09610520648927653 -0.0704594346664119 0 -0.10087107488548203 -0.1636910410036528 0
          -0.12552487337390042 -0.19638657478509144 0 0.32752745540647105 -0.026119034682485637 0
          -0.05337592121242587 -0.12338916927770245 0 0.01654184000149798 -0.08178289465105462 0
          0.20705087755897325 -0.03567395983032018 0 1.0000000000000002 0 0
          0.8105436928791633 -0.0009733198645791978 0 -0.1272235575390685 -0.16525161285564757 0
          0.6342514676869933 -0.003528448105966779 0 -0.09661826307492141 -0.1298296961128252 0
          0.10656719926432334 -0.04449886698741544 0 0.4748839905344669 -0.007196649708085883 0
          -0.045530226987750104 -0.09029825714813 0 0.3344760049984751 -0.011330292150699499 0
          0.024950227889426854 -0.05204737965913515 0 0.2138044512966212 -0.015533424623872957 0
          -0.12719041384391702 -0.13228881709329918 0 1.0000000000000002 0 0
          -0.09234547018221922 -0.09581662747203916 0 0.8113652986051982 0.000036558344498442534 0
          0.6354431716839704 0.0007826326361679565 0 0.11265704629262831 -0.019561914379430185 0
          -0.039480124280233876 -0.05794368332873026 0 0.4762646585422001 0.0018603848255677282 0
          0.3359975630069999 0.0030494043464618543 0 -0.12620558412404143 -0.09842500290120706 0
          0.030033194589825174 -0.0231913328751911 0 -0.08871930606150588 -0.06200635156634029 0
          0.21543762980840092 0.004115340451733807 0 1.0000000000000002 0 0
          0.8097753530838359 0.001054492056942005 0 0.6324833428084737 0.005147698453416226 0
          -0.035620323945933834 -0.026222007375697912 0 0.11433912127461936 0.004848133281356643 0
          0.47253390127970607 0.011005195979969889 0 -0.12488250088386842 -0.0642252675505622 0
          0.33215621971913917 0.0175119196957913 0 0.03166733643545362 0.005158860582166923 0
          -0.08617848725037949 -0.028516079031936942 0 0.2120137323645298 0.02380025739970528 0
          1.0000000000000002 0 0 -0.03414388676312141 0.005071350294493982 0
          0.805679679989655 0.002141355854292817 0 0.11165930709363253 0.029219119513186242 0
          0.6252433402373376 0.009787814718134644 0 -0.12365121456764272 -0.03000715238469388 0
          0.46360502116269464 0.020621207211130116 0 0.32294487500701985 0.03254324294646303 0
          0.029867565656729978 0.03338775843125894 0 -0.08495917537143148 0.004670171136772809 0
          0.20360248171056947 0.044032057137244125 0 -0.03507240708073171 0.03617422410585619 0
          1.0000000000000002 0 0 0.798839507676151 0.0033698606164655853 0
          0.10473860249946979 0.054014273847732684 0 -0.1227618975231803 0.004061626997521083 0
          0.6134155296571064 0.014953544640725125 0 0.4492582495119031 0.031122263465470344 0
          -0.08511709104471302 0.037622390951512784 0 0.024774906495537676 0.061854386663300114 0
          0.3083021495197379 0.048641380320298085 0 0.1902984051048164 0.06530559682625495 0
          -0.03827152941645167 0.06730438859085276 0 -0.1222954366346195 0.0378822330546818 0
          0.09378656792339604 0.07965416656093152 0 1.0000000000000002 0 0
          0.7888401864705594 0.00483660112479423 0 0.5964982490577772 0.020949869552232016 0
          -0.08654230514158812 0.0703998108420416 0 0.42915408911016106 0.04297726589426895 0
          0.016662110268849527 0.090856134895419 0 0.2881445470622618 0.06632759890075379 0
          0.17225791755854436 0.08809115480873829 0 -0.04345276973152338 0.09860889188313941 0
          -0.12217435133025387 0.07135538652673708 0 0.07913295097918734 0.10648785951317986 0
          1.0000000000000002 0 0 0.7750325766945109 0.006684783069426768 0
          0.5737795367806358 0.028169217658369664 0 -0.08896604772374338 0.1029906631637396 0
          0.4028677218242746 0.056731524363568 0 0.005954312198619354 0.12058320522231873 0
          0.2624270251062928 0.08614390291176152 0 -0.1221718676096578 0.10431699576378813 0
          0.14976241563860285 0.11280595306396375 0 -0.05016455097656765 0.13010662590958016 0
          0.06127910487459394 0.1347426533164335 0 1.0000000000000004 0 0
          -0.09196201512788722 0.13524827678348306 0 0.7564185300108226 0.009154410148591065 0
          0.5443182868918277 0.03714895281423492 0 -0.006737117527703398 0.1510532510493041 0
          0.36996139867492966 0.07302590012771056 0 0.23125223766166605 0.10862434837690804 0
          -0.12192046538737707 0.13647265081196172 0 -0.05777652527394782 0.16161515348350577 0
          0.12332191752468079 0.1397482346357715 0 0.04097597100301433 0.16443527872501737 0
          -0.09494635255591011 0.16681620319867013 0 1.0000000000000002 0 0
          0.7314581962883638 0.012676111790348556 0 0.506905456018325 0.048673495162084086 0
          -0.0205668646290256 0.1820120920941705 0 0.3300799809209614 0.09261794937789931 0
          -0.12092351277201692 0.16732573664162115 0 0.19501845132709558 0.13422360012133933 0
          -0.06545977028668395 0.19265067739582928 0 0.09381146920438008 0.16896648816634222 0
          0.0193203137265442 0.19521737919715215 0 -0.09718030810873088 0.19703442338777033 0
          1.0000000000000002 0 0 0.6979449821023693 0.01793984399473243 0
          -0.03440354003484671 0.21277913145499205 0 0.460081993053182 0.0638401527112017 0
          0.2830407014370976 0.11634879904916288 0 -0.11857402495171827 0.1960941652217093 0
          0.1545276825876502 0.16316133224024035 0 -0.07217203315503992 0.22228659181198535 0
          0.06255693013181948 0.2000281068599324 0 -0.09778315120068681 0.22481781052404334 0
          -0.0022020320001240024 0.22612689832434288 0 1.0000000000000002 0 0
          0.6533145196145088 0.025591213089565266 0 -0.04682981004788336 0.24201915928734313 0
          0.40264498336961957 0.0836484868272855 0 -0.11418581597499015 0.22161130490150954 0
          0.22913626034648396 0.14473797852042417 0 0.1110885189829578 0.1950201656501907 0
          -0.0766911867774201 0.24896204934927293 0 0.031316140098918324 0.23162472687716892 0
          -0.12365465096436533 0.2138938643959651 0 -0.09578634339717694 0.24850547346227764 0
          -0.021804237188745745 0.255232648001507 0 1.0000000000000002 0 0
          -0.056271377491327636 0.26745199919380425 0 0.5946396846649163 0.035053447456008434 0
          -0.10705743382154363 0.24221414832881688 0 0.33498877043675684 0.10741603395924648 0
          0.1703135648237941 0.17660420843844019 0 -0.07776448071480012 0.27026366196581053 0
          0.06720470219317656 0.22775611552621325 0 0.002581560573361511 0.2608847940977838 0
          -0.11266298925735456 0.2315207815154569 0 -0.09028612143056723 0.26570844513024033 0
          -0.03733240837732754 0.2791538133326361 0 -0.11419193613254412 0.2176687172413039 0
          -0.06107080462311903 0.2855267845297195 0 -0.09661584085960294 0.2556459006925785 0
          1.0000000000000002 0 0 0.5139295220915021 0.04363028352740594 0
          0.25901914558733297 0.13095973675829606 0 0.1117259093803658 0.20708708253308622 0
          -0.0742634024596538 0.28272175708877817 0 0.02824998012837634 0.25619507608377523 0
          -0.09868227012154185 0.24165437132007966 0 -0.01914101069766808 0.28235064784564146 0
          -0.0806389577045685 0.2731994371625627 0 -0.04541169666358914 0.2923688418107267 0
          -0.09783386227208254 0.22502479236685582 0 -0.0826240891862947 0.25901365268744025 0
          -0.05896874987693592 0.29096226388517554 0 1.0000000000000002 0 0
          0.39437790704790393 0.053507020437117664 0 0.1712098334550164 0.14733183199266303 0
          0.05788474172897566 0.22753239476609352 0 -0.06491168859075595 0.28152769342602924 0
          0.0008600323989905941 0.27164431740071715 0 -0.0950191281415541 0.2067876692628995 0
          -0.08179579756025573 0.24177655296061443 0 -0.028100052146503282 0.2872230090301033 0
          -0.06636347710372771 0.26676716825600655 0 -0.041914704686291895 0.2862885884579269 0
          -0.07919022947998242 0.2227197268031572 0 -0.06519848971043225 0.24874327624533923 0
          -0.04737593292645141 0.27589828983833453 0 -0.048391990741313964 0.2598863984619024 0
          -0.07549304699148138 0.20277111243853338 0 -0.06254190534015612 0.22893331033510295 0
          -0.04711973976613428 0.24078447152276664 0 -0.05907890556336834 0.20836787218230135 0
          -0.044694835339431 0.22033074578120782 0 -0.055227366037988466 0.18776275203047155 0
          -0.041733137872658754 0.19962440836167641 0 -0.0385859836115603 0.17932208454655785 0
          -0.035450471181178465 0.15981342855984662 0 -0.1495246737473355 0.0033504056505732917 0
          -0.14859050298297796 0.03715655946671556 0 -0.15004601054777453 -0.03069179664411063 0
          -0.1500607596223688 -0.06471761061888315 0 -0.1493312471461456 -0.09839883243758994 0
          -0.14747705617198914 -0.13125697470680509 0 -0.1439897480060222 -0.16258135406634822 0
          -0.1382718501438466 -0.19134554962067654 0 -0.12120608913661929 -0.22428590408686522 0
          -0.10331523823037622 -0.25413696778282363 0 -0.08578304183436239 -0.2796875221032419 0
          -0.0695307142938977 -0.2994418531344149 0 -0.06429992225197731 -0.30650308036945273 0
          -0.049569427409684605 -0.2894887884289247 0 -0.028342915935659775 -0.23880138651696 0
          -0.010079668405480186 -0.1644407067648409 0 0 0 0
          -0.11281764158022223 0.2016992298638378 0 -0.09090690401316537 0.18774766087779352 0
          -0.1279417793106144 0.2027911697785377 0 -0.13194078838219925 0.19083253814522738 0
          -0.1379700578611314 0.1639322707723516 0 -0.14222875204232827 0.13437946252756963 0
          -0.14517526869284203 0.10302927746305535 0 -0.14719878501426412 0.07048257220906508 0
          -0.05123781272488489 0.16761035494879578 0 -0.03242755275675629 0.14132778031236276 0
          -0.07115779861854063 0.18261887124832973 0
          <InformationKey name="L2_NORM_RANGE" location="vtkDataArray" length="2">
            <Value index="0">
              0
            </Value>
            <Value index="1">
              1
            </Value>
          </InformationKey>
        </DataArray>
        <DataArray type="Float64" Name="Pressure" format="ascii" RangeMin="53.29443942003714" RangeMax="125.52595498374717">
          125.52595498374717 120.60417045158884 103.08409202952024 105.17018240925778 103.70900872650687 86.99880421562145
          96.62608381210066 90.9564626922062 88.55514572383616 89.70865636895556 78.97072695305593 82.7171787235316
          86.99461230460177 82.6682476851569 84.11507665198039 81.8529401298261 75.43910496110504 78.59832520634723
          81.19500855860596 81.07351265930602 80.54045564218998 79.15469967670619 79.37303623099487 78.5624031927858
          77.87883602363351 73.60899634098021 76.18774795595105 78.17138200346972 76.85329339097866 78.18179882226202
          77.77697041435361 76.58376318491874 77.7451039398728 72.40196482352722 74.45599466496205 76.47180748147836
          75.10493182177433 76.16937384388558 76.79482766233754 76.23751420896889 74.99035320835202 71.53936652761887
          75.60441845299226 73.14758027211025 75.65350957603891 74.76053492482325 73.73563860189024 73.72079117498258
          74.84670058988576 74.4465909824716 70.92240186460793 72.16969692017236 73.60607672683936 72.67800942303629
          73.98099718487292 72.72158184739814 73.44077724106197 72.67769504938286 70.4734879662122 71.43165322052249
          73.1639395880897 71.85419868314646 73.41878761472329 72.596573693349 71.92276604973047 71.91695048399144
          72.79269727558494 72.43177307411717 70.13328006491943 70.85555959393348 71.19293505282509 71.88102396896657
          71.2635312889361 72.38197809224084 72.186726580942 71.27360617725681 71.78157064637672 69.86436501262051
          70.38828669542359 71.26030501992882 70.64399591012548 71.89557362814207 71.61825217359254 70.70263220941521
          71.1999430416194 70.71465313788953 69.64448720279691 71.41357407450498 71.58801379753733 69.99555694576452
          70.7107246116181 70.1736286186144 71.09116388237233 70.21212841108279 70.67417652578936 70.21753180847624
          71.18807627873979 70.94930903859917 70.21491421245635 69.45951673390121 69.65352528129274 70.60310405572379
          69.75697585372318 69.77033712114716 70.19270601770195 70.78832737223411 70.9564660867748 69.76383498350567
          70.50773712781216 70.14844831791356 69.75768834126565 69.29971609096039 69.34385782129996 70.61818983445379
          69.37380806955072 70.39723612041242 69.74403860666654 69.35866354760485 70.08836169353705 69.33709452262536
          69.71972501680446 69.3249233951296 70.27786352492384 69.15811791367182 70.0179256390139 69.05124054530441
          69.00640645120933 69.31688993303533 69.68760217385332 68.96032217094915 68.92221357880813 69.94055834731164
          69.30882741252915 69.65012835047507 68.90354062549913 69.02969457487549 68.76167990413933 68.6379763069165
          69.30052436532259 68.90062094158438 68.55926786189411 69.60841858589609 68.50486088145156 68.90780828436975
          69.29177857626597 68.4812514972037 68.91083344351723 68.92184958606398 68.46091339277045 68.48526047766363
          68.25106050295189 69.28170615156176 68.13905414333995 68.07071271219175 68.50912235563773 68.94002934192248
          68.04607790126646 68.54637214035601 68.79901178962048 68.13265708324585 68.06126456750142 68.95962926515678
          67.82580391498419 67.68174761747287 68.59178555777186 68.10560502416674 67.60487780233531 67.58604880403195
          68.16911327299334 68.64089701420981 67.61938484849023 68.69257659493533 67.75641379233926 67.33764087513342
          68.24399414705924 67.16657973800878 67.69049201743192 67.0914313552861 67.08918908893487 67.7854788835531
          68.32409490527218 67.15082717870426 68.59044211633427 67.30504797916046 66.75402319561968 67.89390343778406
          66.56730657988408 67.25765096196595 66.51191077734944 68.00800429106782 66.54295850306542 67.39155419556913
          66.64722891962904 68.48937283533944 67.53940598950945 66.74297224483027 66.03226106385544 66.8018060080339
          65.84913825480876 65.84205733423468 67.69196492231411 66.98444500019943 65.93180234732735 66.09927652054773
          67.17945268851022 68.36422773333787 66.01768789210692 65.1226861834198 66.31793516118476 64.97393264804886
          67.37633072842569 65.0538519083811 66.5621298140746 65.23682563749895 65.49591902718603 66.81417240406515
          68.09903046848785 65.007077814693 65.80076043654698 63.9627246355239 63.92155071220539 67.06276145796001
          64.1395001995289 66.12317365016062 64.4531524166305 66.44465082256484 64.83567632102826 67.41815010864369
          63.395243117434845 65.25222791168899 62.401683039288834 66.75400469972797 62.682360653535056 63.13809606596191
          65.67161154784374 63.62133068712529 67.04426730566732 66.07579754662592 64.15234917212928 66.2420706699265
          64.7010269730584 60.75524269858084 66.45518789580461 60.07543988188186 61.10771970588306 65.23167165330858
          62.0320759322828 62.764614797713605 66.80428760834822 65.7272728500074 63.47690101447344 67.12019374003584
          64.18027648676855 66.18165315285088 66.02735226889111 57.65712810237061 56.70576492494205 58.73907397204597
          64.8371465503317 60.4416300854528 66.59211881943598 61.60386371028372 65.43156053777797 62.61098986405631
          66.95782262206235 65.96310304947144 63.558185395457556 69.74444971641901 57.09125436368901 53.29443942003714
          55.3576006559165 64.410616703234 57.76521122274607 67.27958133074453 66.4340800864069 59.545925156355985
          65.15276580128076 61.065285668271905 66.84696386753177 65.79331281692596 62.454147671512075 63.6699421399319
          67.2050695296157 66.34412077298308 64.69275029683067 66.81468441493975 65.54138145741554 67.21352760266336
          66.24257244392491 66.81918474249882 67.2905537392921 68.9785645892694 68.69024690435849 69.2697397547396
          69.56360632329687 69.85936823073969 70.15511312161753 70.44726959339684 70.7301530538226 71.28365596380223
          71.97265905503147 72.84885167310757 74.02483381827372 74.54951567826124 74.92952595237617 75.08872345229689
          76.28929185967884 75.60662662899612 67.40195143556933 67.55942852406736 67.31120265651516 67.30044689377421
          67.56781088484324 67.84256234606517 68.12199475620761 68.40471517675391 67.54895411726586 67.67360323801066
          67.51255955412482
        </DataArray>
      </PointData>
      <CellData>
        <DataArray type="UInt8" Name="vtkGhostType" format="ascii" RangeMin="0" RangeMax="0">
          0 0 0 0 0 0
          0 0 0 0 0 0
          0 0 0 0 0 0
          0 0 0 0 0 0
          0 0 0 0 0 0
          0 0 0 0 0 0
          0 0 0 0 0 0
          0 0 0 0 0 0
          0 0 0 0 0 0
          0 0 0 0 0 0
          0 0 0 0 0 0
          0 0 0 0 0 0
          0 0 0 0 0 0
          0 0 0 0 0 0
          0 0 0 0 0 0
          0 0 0 0 0 0
          0 0 0 0 0 0
          0 0 0 0 0 0
          0 0 0 0 0 0
          0 0 0 0 0 0
          0 0 0 0 0 0
          0 0 0 0 0 0
          0 0 0 0 0 0
          0 0 0 0 0 0
          0 0 0 0 0 0
          0 0 0 0 0 0
          0 0 0 0 0 0
          0 0 0 0 0 0
          0 0 0 0 0 0
          0 0 0 0 0 0
          0 0 0 0 0 0
          0 0 0 0 0 0
          0 0 0 0 0 0
          0 0 0 0 0 0
          0 0 0 0 0 0
          0 0 0 0 0 0
          0 0 0 0 0 0
          0 0 0 0 0 0
          0 0 0 0 0 0
          0 0 0 0 0 0
          0 0 0 0 0 0
          0 0 0 0 0 0
          0 0 0 0 0 0
          0 0 0 0 0 0
          0 0 0 0 0 0
          0 0 0 0 0 0
          0 0 0 0 0 0
          0 0 0 0 0 0
          0 0 0 0 0 0
          0 0 0 0 0 0
          0 0 0 0 0 0
          0 0 0 0 0 0
          0 0 0 0 0 0
          0 0 0 0 0 0
          0 0 0 0 0 0
          0 0 0 0 0 0
          0 0 0 0 0 0
          0 0 0 0 0 0
          0 0 0 0 0 0
          0 0 0 0 0 0
          0 0 0 0 0 0
          0 0 0 0 0 0
          0 0 0 0 0 0
          0 0 0 0 0 0
          0 0 0 0 0 0
          0 0 0 0 0 0
          0 0 0 0 0 0
          0 0 0 0 0 0
          0 0 0 0 0 0
          0 0 0 0 0 0
          0 0 0 0 0 0
          0 0 0 0 0 0
          0 0 0 0 0 0
          0 0 0 0 0 0
          0 0 0 0 0 0
          0 0 0 0 0 0
          0 0 0 0 0 0
          0 0 0 0 0 0
          0 0 0 0 0 0
          0 0 0 0 0 0
          0 0 0 0 0 0
          0 0 0 0 0 0
          0 0 0 0 0 0
          0 0 0 0 0 0
          0 0 0 0 0 0
          0 0 0 0 0 0
          0 0 0 0 0 0
          0 0 0 0 0 0
          0 0 0 0 0 0
          0 0 0 0 0 0
          0 0 0 0 0 0
          0 0 0 0 0 0
          0 0 0 0 0 0
          0 0 0 0
        </DataArray>
      </CellData>
      <Points>
        <DataArray type="Float32" Name="Points" NumberOfComponents="3" format="ascii" RangeMin="0.5426273808170171" RangeMax="1.4142135623730951">
          1 1 0 1 0.9666666388511658 0
          0.9666666388511658 1 0 0.9666666388511658 0.9666666388511658 0
          1 0.9333333373069763 0 0.9333333373069763 1 0
          0.9666666388511658 0.9333333373069763 0 0.9333333373069763 0.9666666388511658 0
          0.9333333373069763 0.9333333373069763 0 1 0.8999999761581421 0
          0.8999999761581421 1 0 0.8999999761581421 0.9666666388511658 0
          0.9666666388511658 0.8999999761581421 0 0.8999999761581421 0.9333333373069763 0
          0.9333333373069763 0.8999999761581421 0 1 0.8666666746139526 0
          0.8666666746139526 1 0 0.8666666746139526 0.9666666388511658 0
          0.9666666388511658 0.8666666746139526 0 0.8999999761581421 0.8999999761581421 0
          0.9333333373069763 0.8666666746139526 0 0.8666666746139526 0.9333333373069763 0
          0.8999999761581421 0.8666666746139526 0 0.8666666746139526 0.8999999761581421 0
          1 0.8333333134651184 0 0.8333333134651184 1 0
          0.8333333134651184 0.9666666388511658 0 0.9666666388511658 0.8333333134651184 0
          0.8333333134651184 0.9333333373069763 0 0.9333333373069763 0.8333333134651184 0
          0.8666666746139526 0.8666666746139526 0 0.8333333134651184 0.8999999761581421 0
          0.8999999761581421 0.8333333134651184 0 0.800000011920929 1 0
          0.800000011920929 0.9666666388511658 0 0.9333333373069763 0.800000011920929 0
          0.800000011920929 0.9333333373069763 0 0.8333333134651184 0.8666666746139526 0
          0.8666666746139526 0.8333333134651184 0 0.8999999761581421 0.800000011920929 0
          0.800000011920929 0.8999999761581421 0 0.7666666507720947 1 0
          0.8333333134651184 0.8333333134651184 0 0.7666666507720947 0.9666666388511658 0
          0.8666666746139526 0.800000011920929 0 0.800000011920929 0.8666666746139526 0
          0.7666666507720947 0.9333333373069763 0 0.7666666507720947 0.8999999761581421 0
          0.8333333134651184 0.800000011920929 0 0.800000011920929 0.8333333134651184 0
          0.7333333492279053 1 0 0.7333333492279053 0.9666666388511658 0
          0.7666666507720947 0.8666666746139526 0 0.7333333492279053 0.9333333373069763 0
          0.800000011920929 0.800000011920929 0 0.7333333492279053 0.8999999761581421 0
          0.7666666507720947 0.8333333134651184 0 0.7333333492279053 0.8666666746139526 0
          0.699999988079071 1 0 0.699999988079071 0.9666666388511658 0
          0.7666666507720947 0.800000011920929 0 0.699999988079071 0.9333333373069763 0
          0.800000011920929 0.7666666507720947 0 0.7333333492279053 0.8333333134651184 0
          0.699999988079071 0.8999999761581421 0 0.699999988079071 0.8666666746139526 0
          0.7666666507720947 0.7666666507720947 0 0.7333333492279053 0.800000011920929 0
          0.6666666865348816 1 0 0.6666666865348816 0.9666666388511658 0
          0.6666666865348816 0.9333333373069763 0 0.699999988079071 0.8333333134651184 0
          0.6666666865348816 0.8999999761581421 0 0.7666666507720947 0.7333333492279053 0
          0.7333333492279053 0.7666666507720947 0 0.6666666865348816 0.8666666746139526 0
          0.699999988079071 0.800000011920929 0 0.6333333253860474 1 0
          0.6333333253860474 0.9666666388511658 0 0.6666666865348816 0.8333333134651184 0
          0.6333333253860474 0.9333333373069763 0 0.7333333492279053 0.7333333492279053 0
          0.699999988079071 0.7666666507720947 0 0.6333333253860474 0.8999999761581421 0
          0.6666666865348816 0.800000011920929 0 0.6333333253860474 0.8666666746139526 0
          0.6000000238418579 1 0 0.699999988079071 0.7333333492279053 0
          0.7333333492279053 0.699999988079071 0 0.6000000238418579 0.9666666388511658 0
          0.6333333253860474 0.8333333134651184 0 0.6000000238418579 0.9333333373069763 0
          0.6666666865348816 0.7666666507720947 0 0.6000000238418579 0.8999999761581421 0
          0.6333333253860474 0.800000011920929 0 0.6000000238418579 0.8666666746139526 0
          0.699999988079071 0.699999988079071 0 0.6666666865348816 0.7333333492279053 0
          0.6000000238418579 0.8333333134651184 0 0.5666666626930237 1 0
          0.5666666626930237 0.9666666388511658 0 0.6333333253860474 0.7666666507720947 0
          0.5666666626930237 0.9333333373069763 0 0.5666666626930237 0.8999999761581421 0
          0.6000000238418579 0.800000011920929 0 0.6666666865348816 0.699999988079071 0
          0.699999988079071 0.6666666865348816 0 0.5666666626930237 0.8666666746139526 0
          0.6333333253860474 0.7333333492279053 0 0.6000000238418579 0.7666666507720947 0
          0.5666666626930237 0.8333333134651184 0 0.5333333611488342 1 0
          0.5333333611488342 0.9666666388511658 0 0.6666666865348816 0.6666666865348816 0
          0.5333333611488342 0.9333333373069763 0 0.6333333253860474 0.699999988079071 0
          0.5666666626930237 0.800000011920929 0 0.5333333611488342 0.8999999761581421 0
          0.6000000238418579 0.7333333492279053 0 0.5333333611488342 0.8666666746139526 0
          0.5666666626930237 0.7666666507720947 0 0.5333333611488342 0.8333333134651184 0
          0.6333333253860474 0.6666666865348816 0 0.5 1 0
          0.6000000238418579 0.699999988079071 0 0.5 0.9666666388511658 0
          0.5 0.9333333373069763 0 0.5333333611488342 0.800000011920929 0
          0.5666666626930237 0.7333333492279053 0 0.5 0.8999999761581421 0
          0.5 0.8666666746139526 0 0.6000000238418579 0.6666666865348816 0
          0.5333333611488342 0.7666666507720947 0 0.5666666626930237 0.699999988079071 0
          0.5 0.8333333134651184 0 0.46666666865348816 1 0
          0.46666666865348816 0.9666666388511658 0 0.46666666865348816 0.9333333373069763 0
          0.5333333611488342 0.7333333492279053 0 0.5 0.800000011920929 0
          0.46666666865348816 0.8999999761581421 0 0.5666666626930237 0.6666666865348816 0
          0.46666666865348816 0.8666666746139526 0 0.5 0.7666666507720947 0
          0.5333333611488342 0.699999988079071 0 0.46666666865348816 0.8333333134651184 0
          0.4333333373069763 1 0 0.5 0.7333333492279053 0