<?xml version="1.0"?>
<VTKFile type="UnstructuredGrid" version="0.1" byte_order="LittleEndian" header_type="UInt32" compressor="vtkZLibDataCompressor">
  <UnstructuredGrid>
    <Piece NumberOfPoints="322" NumberOfCells="571">
      <PointData>
        <DataArray type="Float64" Name="Velocity" NumberOfComponents="3" format="ascii" RangeMin="0" RangeMax="0.2963431191150481">
          0 0 0 -0.010351994224374769 -0.15699940180359626 0
          0 0 0 -0.008311092929036574 -0.13709852637189954 0
          -0.02917981318727887 -0.22386326388396405 0 -0.051635570941077034 -0.26924807799919 0
          0 0 0 -0.06815601148222954 -0.2827439691464875 0
          -0.007019852336077134 -0.1200425515450169 0 -0.026251898741650757 -0.2010569005969067 0
          -0.04922210658157585 -0.24828600512777632 0 -0.0757061326236043 -0.2738621643846663 0
          -0.06944218779794407 -0.2679728625797524 0 0 0 0
          -0.006038223549540548 -0.10511772541160289 0 -0.02360397450287497 -0.17949278392471218 0
          -0.08368880663862105 -0.2668106227558037 0 -0.046012306055351324 -0.22610650848367528 0
          -0.06772925529306718 -0.24914729576031855 0 -0.09114308432553525 -0.25129353348256317 0
          0 0 0 -0.005247972027525654 -0.09193726642828996 0
          -0.021193920773385697 -0.15938556096262493 0 -0.08572450886654644 -0.2534087289907334 0
          -0.042502167990315476 -0.20394627496205192 0 -0.06447267236968363 -0.22843129838978185 0
          -0.0987396566764399 -0.24374496042306612 0 0 0 0
          -0.004600147888844914 -0.08025508606586723 0 -0.08435671570795451 -0.2362891372576881 0
          -0.019024393705293057 -0.14083993130842146 0 -0.038968927630513135 -0.182516246942544 0
          -0.10668314404427615 -0.2245653151138539 0 -0.10075287462880012 -0.23114687297994155 0
          -0.060452195524532806 -0.20715195192187294 0 0 0 0
          -0.004058470461255781 -0.06987466685845174 0 -0.08102454142300916 -0.21721841220519952 0
          -0.017080910463758862 -0.12385907265420763 0 -0.11312013158839279 -0.21643940811625811 0
          -0.03555600737984862 -0.16220199371668464 0 -0.09927319772866762 -0.21541899090720468 0
          -0.05610990820192459 -0.18611751566614296 0 -0.1215775809728451 -0.1951518440633199 0
          -0.0765846383554854 -0.19736191866543937 0 0 0 0
          -0.003596030090298163 -0.06063042673185483 0 -0.11442811296993527 -0.20441432842382215 0
          -0.015338216403760204 -0.10838445430611368 0 -0.03232943443217299 -0.14319571358682853 0
          -0.09562299108385099 -0.19794017711420778 0 -0.12624840957140765 -0.1866265043264505 0
          -0.051702786560339005 -0.16582177252947536 0 -0.11234973339788554 -0.18990362512350628 0
          -0.0715702584174571 -0.1774943627649658 0 0 0 0
          -0.0031949039062537914 -0.052384062608233486 0 -0.013771823613399663 -0.09432958577336811 0
          -0.13492172431102598 -0.16411679838214382 0 -0.029316027015631334 -0.1255766182720307 0
          -0.0906648679667097 -0.1796899732854417 0 -0.12631000323107514 -0.175198280845201 0
          -0.047381448533874694 -0.1465615800816096 0 -0.10807944800841504 -0.17398159320916298 0
          -0.06632149435238834 -0.15813025718661636 0 0 0 0
          -0.13742322430610124 -0.15555784383242427 0 -0.0028433828901417895 -0.04501975761834099 0
          -0.012361405480251692 -0.08159763869689193 0 -0.08497445918745229 -0.16135892416046405 0
          -0.12323860669889297 -0.16192106304917234 0 -0.026523496754010372 -0.10935608633573417 0
          -0.043233438883478345 -0.12850427183121935 0 -0.10244539232460746 -0.15744570815688658 0
          -0.13588497774138203 -0.14494677983608797 0 -0.06105646111139364 -0.13960292713985717 0
          0 0 0 -0.002533328260771911 -0.038439090473121225 0
          -0.011090012843549853 -0.07008953029654032 0 -0.11809925529535054 -0.1476195380240672 0
          -0.07893940563100794 -0.14342470039405655 0 -0.023949311479447274 -0.0945039708639807 0
          -0.14600819861233744 -0.12432157856871721 0 -0.03930720251224345 -0.11173009297620899 0
          -0.09602540365978032 -0.14087433120661005 0 -0.1315670807025079 -0.1330619627658366 0
          -0.05591318397968658 -0.12211733165343384 0 -0.11165978918741945 -0.13291815741892385 0
          0 0 0 -0.0022585613181615198 -0.03255728974732576 0
          -0.07281952670734082 -0.1262074646869675 0 -0.009942662468919042 -0.059708227314191946 0
          -0.1426991857864848 -0.11485014913235515 0 -0.021584410337304412 -0.08096540120507793 0
          -0.0356253954014052 -0.09626126463239792 0 -0.08922163248126254 -0.12467574335903786 0
          -0.12540821252288903 -0.1205188042081412 0 -0.05097506177301585 -0.10578817775836603 0
          -0.1044712277109036 -0.11827610149985048 0 0 0 0
          -0.002013988715226975 -0.027300949651670563 0 -0.13702681039422637 -0.10458467567952424 0
          -0.06678494784014949 -0.10991206748605031 0 -0.008905247080885746 -0.05036164691143829 0
          -0.01941478702222509 -0.06867227340769477 0 -0.11810118344675995 -0.10778696984777451 0
          -0.08230961747137744 -0.10912875368243574 0 -0.03219234275699684 -0.08208257505829089 0
          -0.14641153938227341 -0.08593784534658377 0 -0.04628647408643912 -0.09066793354545793 0
          -0.0969236775606833 -0.10402102575471624 0 -0.12980757784613078 -0.0939674419296206 0
          -0.06094068623977082 -0.09466030739314538 0 0 0 0
          -0.0017950653131648577 -0.022606826106620605 0 -0.007963702651925515 -0.041964962279095415 0
          -0.11014992862898357 -0.09521369398405377 0 -0.017422085257098992 -0.05755149852266947 0
          -0.07547115485807566 -0.09441540073249195 0 -0.028998239581634725 -0.06915625020142026 0
          -0.13941246344468122 -0.07752775615475646 0 -0.041862406756911705 -0.07676752103200338 0
          -0.08928540031109718 -0.0903785669731268 0 -0.12164973166510151 -0.08333593692081304 0
          -0.05534266133533028 -0.0805155006979174 0 0 0 0
          -0.0015973944129009856 -0.018421361354526596 0 -0.007103301995484924 -0.034442622657825495 0
          -0.10191166610204383 -0.0830473001802196 0 -0.015583683056753707 -0.047531205838445674 0
          -0.13119598875478608 -0.06899485865310842 0 -0.06881660906132106 -0.08064686108706846 0
          -0.026021525190522723 -0.05743297658121963 0 -0.11299508199598154 -0.07293897106210692 0
          -0.03769449151856992 -0.06407182801183609 0 -0.08173038410218715 -0.0774970398282155 0
          -0.05000828710806311 -0.06750132840747672 0 0 0 0
          -0.0014164259363402562 -0.014700706600436398 0 -0.09362799406686659 -0.07145856484696068 0
          -0.0063080721278158955 -0.02773020883209745 0 -0.12227841571870171 -0.060567460579068616 0
          -0.06240026798297604 -0.06788396677931219 0 -0.013872575909803762 -0.038545584197723526 0
          -0.023230300167759718 -0.046860280889473624 0 -0.10415155687233925 -0.06295331280625863 0
          -0.07435799920455388 -0.06546782503965051 0 -0.03375497208620179 -0.05255154984237218 0
          -0.0449237056917031 -0.05561647839701357 0 -0.08544786523509315 -0.06055935383228529 0
          -0.11302799373974465 -0.05241198598269019 0 0 0 0
          -0.00124728604818697 -0.011411317263985182 0 -0.005560418445733871 -0.021776355177719843 0
          -0.05623112977031038 -0.05615356542543543 0 -0.012257345769252151 -0.03053892123463179 0
          -0.020583414396864574 -0.03738919063168134 0 -0.09531821825306874 -0.053499338247359085 0
          -0.06720716518584086 -0.05434217487190375 0 -0.029999636486058474 -0.04217255045605211 0
          -0.0400490803100296 -0.04484634825980512 0 -0.10369065610647644 -0.04464490499188394 0
          -0.07744457974774815 -0.050418626860843245 0 0 0 0
          -0.0010846554816620272 -0.008531518093900412 0 -0.004841003405584028 -0.01654519859827541 0
          -0.05028078923150805 -0.0454618554570804 0 -0.010702505216099382 -0.023469514318677727 0
          -0.08660428075377082 -0.044655176803968695 0 -0.018031787143645683 -0.02898015018825171 0
          -0.060266765039182796 -0.04414526342484642 0 -0.026370546928922652 -0.03290397782601282 0
          -0.0944101749848372 -0.03734425327064622 0 -0.035323013253249234 -0.03517317323034203 0
          -0.06962840103721668 -0.04107622912896765 0 0 0 0
          -0.0009223111834103478 -0.006053620406619489 0 -0.04448964379043235 -0.035806020940732236 0
          -0.0041288529165863334 -0.012018909282389188 0 -0.07804342104824996 -0.036469342994064916 0
          -0.009169603966795585 -0.017313196640021955 0 -0.015520632020612931 -0.021608262117898763 0
          -0.05348356707233534 -0.03488860885119889 0 -0.022799399379557567 -0.024725555564976087 0
          -0.08524356904114636 -0.030560367921860107 0 -0.06195597437158396 -0.032555284343088395 0
          -0.030666989999504176 -0.026585283946426234 0 0 0 0
          -0.038772315826043756 -0.027185034375176165 0 -0.0007520938231748732 -0.0039833763769774495 0
          -0.06960436783326862 -0.028972293941152583 0 -0.003402054518854022 -0.008196802203778228 0
          -0.007619980931331402 -0.012063131698605284 0 -0.04676847738075874 -0.026581770838202987 0
          -0.012993733905008029 -0.015264791825906818 0 -0.01921270289977072 -0.01763136384444437 0
          -0.07617248576103794 -0.024325897602455956 0 -0.05433723127921729 -0.024874018029454343 0
          -0.025990946227097404 -0.01908323663036494 0 -0.08145008937878334 -0.018814047228537543 0
          -0.03302321981965507 -0.019607820287887216 0 0 0 0
          -0.06119826149296343 -0.022187590082314426 0 -0.0005638034161311661 -0.0023324357989530442 0
          -0.002640919592574878 -0.0050865619182201005 0 -0.006021151361553594 -0.007721893340608527 0
          -0.04000183986524556 -0.019241969596870967 0 -0.010401780994478874 -0.009951293969446509 0
          -0.06711081786240253 -0.018665569887929594 0 -0.015540713183695938 -0.01162665360084608 0
          -0.04664025700302027 -0.018056113318026326 0 -0.02120177494020604 -0.012679488180481327 0
          -0.07187496409245663 -0.01446143433267957 0 -0.05268299824359383 -0.01614223082018963 0
          -0.027123955649447654 -0.013095601983140932 0 0 0 0
          -0.00035070848468880177 -0.0011076880543493535 0 -0.001838100899399311 -0.002693770278753719 0
          -0.004360597863764709 -0.004294764624225221 0 -0.03303932290455751 -0.012898671008312578 0
          -0.0077179483894553105 -0.005677418903945816 0 -0.07533311369459797 -0.009734412364648231 0
          -0.0579084832659746 -0.013605785977958086 0 -0.011732910341331337 -0.0067298091641076465 0
          -0.03869551288462737 -0.012136972113015282 0 -0.016217302656770738 -0.007403708783301635 0
          -0.06213116770089807 -0.010560362994781972 0 -0.043865792804030884 -0.01087399698453596 0
          -0.02095493787747676 -0.0076895963476090404 0 0 0 0
          -0.0001270246273851567 -0.0003134409385879676 0 -0.0010234436405393385 -0.001030811028001162 0
          -0.002674495528469329 -0.0018109723433362484 0 -0.02572080497151911 -0.007602697084798627 0
          -0.06520372464869134 -0.007124087527353954 0 -0.04835242029678736 -0.00918248644841531 0
          -0.004967154090019622 -0.00249498330715339 0 -0.007784748248618062 -0.0030167587265801685 0
          -0.030301918380349284 -0.007173368083396532 0 -0.010988545529919857 -0.0033536779322855203 0
          -0.051989090624960176 -0.007140607537655662 0 -0.06701846919847906 -0.003417423667560598 0
          -0.03450662189255899 -0.006440916981250861 0 -0.01441232397098858 -0.0035042757013015176 0
          0 0 0 0.000039739725843834175 0.00003723646243039794 0
          -0.00031429219309034415 -0.00013702977933826362 0 -0.05464324964872231 -0.004829447593853525 0
          -0.0178819757695345 -0.0034781143295283157 0 -0.0011053205797164662 -0.00036022569309647246 0
          -0.03816767298454897 -0.005449871933021123 0 -0.002282553442443773 -0.0005545040470941398 0
          -0.02123361810801292 -0.003290863959735967 0 -0.003785907208728071 -0.000696276862416073 0
          -0.05621765023776732 -0.002331465500101569 0 -0.04114434967565053 -0.004247644622092494 0
          -0.005535063746967039 -0.0007845052357411354 0 -0.024320908490977833 -0.0029617805805687947 0
          -0.007428952276324751 -0.0008240305694784654 0 -0.04332439363013941 -0.0028830215859870683 0
          0 0 0 0 0 0
          0 0 0 -0.009361747329828727 -0.00081989887936564 0
          -0.027016864996601418 -0.0025121817927879777 0 0 0 0
          0 0 0 -0.011235945815960853 -0.0007768860384864046 0
          0 0 0 -0.04462528775938414 -0.0014052296076770268 0
          -0.02921497883928524 -0.0019643914591695273 0 0 0 0
          -0.0129664623178997 -0.0007000312850017996 0 0 0 0
          -0.030830365860009895 -0.001341051138710342 0 -0.044994898971876876 0.0001366363030972707 0
          -0.014480552218700456 -0.0005946994703798126 0 0 0 0
          -0.031800446950936215 -0.000664715601609361 0 0 0 0
          -0.015717630047591448 -0.00046633858462548356 0 0 0 0
          -0.0320850876567881 0.00004242445021114078 0 -0.01662954197160585 -0.0003203008811230828 0
          0 0 0 -0.017180705875933493 -0.00016178893078106702 0
          0 0 0 -0.01734790923040237 0.000004176721406106794 0
          0 0 0 0 0 0
          0 0 0 0 0 0
          -0.15149682269975434 -0.09392354354806338 0 -0.15355113548668614 -0.06529903131691486 0
          -0.153753141031739 -0.10110114844099832 0 -0.1458765579007084 -0.13243986591848225 0
          -0.14090346820818456 -0.1385280595344156 0 -0.1267042241393091 -0.16968227596998997 0
          -0.11025635561545308 -0.1994840983711137 0 -0.09255444945284838 -0.22700349975247092 0
          -0.0745972755971662 -0.2512477673205047 0 -0.05719023011920714 -0.2709075610613267 0
          -0.060922545432236366 -0.2900132543607149 0 -0.052246163252958874 -0.28682996820800477 0
          -0.03266342557736292 -0.24752348344904843 0 -0.014427998356237851 -0.18061011129464052 0
          0 0 0 -0.08527332627263598 -0.012640758772221096 0
          -0.07737089119746922 -0.004646651657340829 0 -0.0910123521227496 -0.02359652607674402 0
          -0.10064421563961237 -0.02878738139870003 0 -0.11035158837074083 -0.03435709332677217 0
          -0.12005612934127224 -0.0402603598663715 0 -0.12958345257525364 -0.04642819864227601 0
          -0.13864720869844532 -0.052759627385620955 0 -0.14682861856580107 -0.05911320520833472 0
          -0.017119873648767537 0.00017285522083591485 0 0 0 0
          -0.03166644996309166 0.0007588427549018753 0 -0.0444118828763029 0.0016940438468382845 0
          -0.05665118691087001 0.0002703555078727618 0 -0.06750803461356979 0.0004379521335062508 0
          <InformationKey name="L2_NORM_RANGE" location="vtkDataArray" length="2">
            <Value index="0">
              0
            </Value>
            <Value index="1">
              0.29634311912
            </Value>
          </InformationKey>
        </DataArray>
        <DataArray type="Float64" Name="Pressure" format="ascii" RangeMin="68.47910574645235" RangeMax="78.06885513237883">
          75.45789882640719 76.18021884438375 73.91055975848424 74.73321212491189 74.99018972633753 74.83272102800409
          72.75090374963449 74.4503867990855 73.55940329596373 73.84423636586847 73.74824892545597 73.92101574937217
          73.49359693673924 71.86089298142878 72.61562847446606 72.9121415050534 73.14668675398337 72.87321494047097
          72.7088143758202 72.72102429441506 71.1709473118419 71.86154257116328 72.15592949764793 72.47866324469817
          72.16065636255804 72.06111937077435 72.17940127453804 70.63023837752317 71.25653221752496 71.90858570079456
          71.53947398267232 71.57328520180688 71.81861007909836 71.69467601786067 71.51943241728672 70.2027725150548
          70.76819688256226 71.42074298748739 71.03469881763803 71.42070262394121 71.0864170643619 71.26716377095154
          71.06421089802953 71.10243180279417 71.00376116820254 69.86357762394823 70.37281256857693 71.05774052231604
          70.62070514792705 70.68272502155116 70.8943963878735 70.80465077838167 70.6822124090773 70.73404526961689
          70.6490735742756 69.59480721469949 70.05279757887836 70.2814562592761 70.52181118045021 70.34865831076725
          70.57257096590037 70.53247846038582 70.36276984045594 70.44995552456855 70.34901756281448 69.38314553488617
          70.30082768592163 69.79466083164348 70.0042824237397 70.29694464802489 70.28915519376211 70.07315458371585
          70.09678755891082 70.20342637090864 70.09927071037818 70.09658198213535 69.21835469025095 69.58780806798906
          69.77904271205243 70.07492599318847 70.06256035790355 69.84716208932159 69.8872761568583 69.87659101723074
          69.9914455091656 69.91898879922711 69.88558941488897 69.88854065057589 69.09244613204358 69.42382397281644
          69.86476177098406 69.59756399329903 69.74133478003031 69.66327613274997 69.69576920679796 69.81082331828401
          69.76015692288586 69.71071908050034 69.7281581518713 68.99915574562358 69.29598142446875 69.61105534889319
          69.6993599037761 69.45321727799713 69.51540920285353 69.62208153212907 69.65848435783089 69.54895985491443
          69.44524482336186 69.56740965248896 69.5917396652291 69.49659435210266 69.56263731744053 68.93357576063649
          69.19887701076843 69.34059103776407 69.50362879144356 69.39852372209721 69.53155900908804 69.43165694475434
          69.35511992908953 69.4517509785342 69.47722052143308 69.39753856892375 69.451321224751 68.8918700834913
          69.12813978644834 69.2552271003127 69.40345462411136 69.30841631237817 69.27641417921164 69.4274275208075
          69.34005225397077 69.31314654589269 69.3603881981668 69.38261429793454 69.36255014026052 68.87104422317974
          69.0801834126801 69.32015375640474 69.19339029309462 69.20884791540338 69.34374254825364 69.24152825218705
          69.270892735733 69.24251709358836 69.30608092843431 69.29042710743019 69.29382657595266 69.25236088868161
          69.15193042113344 68.86879178614352 69.05202340045551 69.15189025448821 69.27842539945287 69.1948011920919
          69.22137664575152 69.18470779294947 69.24595968931467 69.2393679966696 69.24298510373664 69.10507734482069
          69.1988116896947 68.88340403526811 69.041203447989 69.12801499045877 69.22966440760362 69.16564323975261
          69.1388139866141 69.18916026468632 69.20079271995913 69.20514604521375 69.0676969614103 69.2082562491606
          69.15838515012794 68.91345594389979 69.04568538904161 69.19599283703305 69.1194806431419 69.10402301131391
          69.1519142598051 69.17238632496795 69.16940801900687 69.18620010212105 69.0392493540045 69.13018300576232
          69.18836469581578 68.95669332977734 69.1764040099616 69.06319737818332 69.079681711646 69.12392300749559
          69.15142710820538 69.15103931941579 69.16919295800471 69.18101287512646 69.01929425803412 69.11364268471056
          69.18211896577752 68.95070155901 69.17000362657598 69.00817186139457 69.06539132284713 69.08983162652345
          69.13769206826687 69.16072301093625 69.14505060835185 69.17642312120245 69.00755717336818 69.1867847503032
          69.10834002823096 69.18709926037451 68.94173068174854 69.06089112080694 69.17476633755484 69.0597001744279
          69.11951000157252 69.15569550030779 69.17522163522808 69.14981601908106 69.18993925873379 68.86978092566999
          69.00389386966762 69.19980119442573 69.11304198932606 69.19999032142219 68.93888980458594 69.06532580216285
          69.18777519342477 69.1035722893506 69.14729026218933 69.17552383967481 69.19457135201685 69.16283875446082
          68.86772352567776 69.00780694271548 69.21112248051958 69.22278854882128 69.12570185369547 69.22436603365817
          68.94201648297715 68.79244150328543 69.07712725660345 69.21296134178444 69.13927374684975 69.17518941852413
          69.20305661906701 68.86981560788792 69.18801197027724 69.22871703924027 69.01823185280247 69.25398549387276
          69.14988445189307 69.27341046992254 68.7932884389584 68.95057217222134 69.28051473501442 69.09932276396387
          69.27186265629625 68.87606648831725 69.17418319091378 69.20981791830016 69.24456252859504 69.24674970304703
          69.0375100798362 69.2840122838656 69.32622552755147 69.20569058826914 69.36200183567219 68.79688039258282
          68.9661163551583 69.38189171181955 69.14972458916763 69.38065183443972 68.88720646293648 68.71533735241628
          69.08038232411435 69.35703072490053 68.80311900544906 69.31185495456305 68.9997079715341 69.24682460493982
          68.71637475824619 68.91016363603173 69.16420711574355 68.81450058486615 69.06679861287915 68.71566106272107
          68.95782834435494 68.84082062702295 68.71948080367814 68.59761935108824 69.54670136119002 69.26664336864313
          69.65883301804622 70.04777893224549 70.22023416834725 70.75759919164256 71.41815124337283 72.24137948318729
          73.30682477272651 74.76194397139965 75.57135716379184 76.1550815328369 76.38374286699377 78.06885513237883
          77.72003303849594 68.87584099245501 68.79375715077951 68.96587455869141 68.98743704098199 69.01564907281943
          69.0508167874726 69.09327098064803 69.14330898494295 69.20111141249826 68.61671370425654 68.47910574645235
          68.62960848028955 68.63384229122346 68.71466020091296 68.71522218115237
        </DataArray>
      </PointData>
      <CellData>
        <DataArray type="UInt8" Name="vtkGhostType" format="ascii" RangeMin="0" RangeMax="1">
          0 0 0 0 0 0
          0 0 0 0 0 0
          0 0 0 0 0 0
          0 0 0 0 0 0
          0 0 0 0 0 0
          0 0 0 0 0 0
          0 0 0 0 0 0
          0 0 0 0 0 0
          0 0 0 0 0 0
          0 0 0 0 0 0
          0 0 0 0 0 0
          0 0 0 0 0 0
          0 0 0 0 0 0
          0 0 0 0 0 0
          0 0 0 0 0 0
          0 0 0 0 0 0
          0 0 0 0 0 0
          0 0 0 0 0 0
          0 0 0 0 0 0
          0 0 0 0 0 0
          0 0 0 0 0 0
          0 0 0 0 0 0
          0 0 0 0 0 0
          0 0 0 0 0 0
          0 0 0 0 0 0
          0 0 0 0 1 0
          1 0 0 0 0 0
          0 0 0 0 0 0
          0 0 0 0 0 1
          0 1 0 0 0 0
          0 0 0 0 0 0
          0 0 0 0 1 0
          1 0 0 0 0 0
          0 0 0 0 0 0
          0 1 0 1 0 0
          0 0 0 0 0 0
          0 0 1 1 1 1
          1 1 1 0 1 0
          0 1 1 1 0 0
          0 0 0 0 0 0
          0 0 0 0 0 0
          0 0 0 0 0 0
          0 0 0 0 0 0
          0 0 0 0 0 0
          0 0 0 0 0 0
          0 0 0 0 0 0
          0 0 0 0 0 0
          0 0 0 0 0 0
          0 0 0 0 0 0
          0 0 0 0 0 0
          0 0 0 0 0 0
          0 0 0 0 0 0
          0 0 0 0 0 0
          0 0 0 0 0 0
          0 0 0 0 0 0
          0 0 0 0 0 0
          0 0 0 0 0 0
          0 0 0 0 0 0
          0 0 0 0 0 0
          0 0 0 0 0 0
          0 0 0 0 0 0
          0 0 0 0 0 0
          0 0 0 0 0 0
          0 0 0 0 0 0
          0 0 0 0 0 0
          0 0 0 0 0 0
          0 0 0 0 0 0
          0 0 0 0 0 0
          0 0 0 0 0 0
          0 0 0 0 0 0
          0 0 0 0 0 0
          0 0 0 0 0 0
          0 0 0 0 0 0
          0 0 0 0 0 0
          0 0 0 0 0 0
          0 0 0 0 0 0
          0 0 0 0 0 0
          0 0 0 0 0 0
          0 0 0 0 0 0
          0 0 0 0 0 0
          0 0 0 0 0 0
          0 0 0 0 0 0
          0 0 0 0 0 0
          0 0 0 0 0 0
          0 0 0 0 0 0
          0 0 0 0 0 0
          0 0 0 0 0 0
          0 0 0 0 0 0
          0 0 0 0 0 0
          0 0 0 0 0 0
          0 0 0 0 0 0
          0 0 0 0 0 0
          0 0 0 0 0 0
          0 0 0 0 0 0
          0 0 0 0 0 0
          0
        </DataArray>
      </CellData>
      <Points>
        <DataArray type="Float32" Name="Points" NumberOfComponents="3" format="ascii" RangeMin="0.4333333373069763" RangeMax="1.3017082665984545">
          1 0.800000011920929 0 0.9666666388511658 0.800000011920929 0
          1 0.7666666507720947 0 0.9666666388511658 0.7666666507720947 0
          0.9333333373069763 0.7666666507720947 0 0.8999999761581421 0.7666666507720947 0
          1 0.7333333492279053 0 0.8666666746139526 0.7666666507720947 0
          0.9666666388511658 0.7333333492279053 0 0.9333333373069763 0.7333333492279053 0
          0.8999999761581421 0.7333333492279053 0 0.8333333134651184 0.7666666507720947 0
          0.8666666746139526 0.7333333492279053 0 1 0.699999988079071 0
          0.9666666388511658 0.699999988079071 0 0.9333333373069763 0.699999988079071 0
          0.8333333134651184 0.7333333492279053 0 0.8999999761581421 0.699999988079071 0
          0.8666666746139526 0.699999988079071 0 0.800000011920929 0.7333333492279053 0
          1 0.6666666865348816 0 0.9666666388511658 0.6666666865348816 0
          0.9333333373069763 0.6666666865348816 0 0.8333333134651184 0.699999988079071 0
          0.8999999761581421 0.6666666865348816 0 0.8666666746139526 0.6666666865348816 0
          0.800000011920929 0.699999988079071 0 1 0.6333333253860474 0
          0.9666666388511658 0.6333333253860474 0 0.8333333134651184 0.6666666865348816 0
          0.9333333373069763 0.6333333253860474 0 0.8999999761581421 0.6333333253860474 0
          0.7666666507720947 0.699999988079071 0 0.800000011920929 0.6666666865348816 0
          0.8666666746139526 0.6333333253860474 0 1 0.6000000238418579 0
          0.9666666388511658 0.6000000238418579 0 0.8333333134651184 0.6333333253860474 0
          0.9333333373069763 0.6000000238418579 0 0.7666666507720947 0.6666666865348816 0
          0.8999999761581421 0.6000000238418579 0 0.800000011920929 0.6333333253860474 0
          0.8666666746139526 0.6000000238418579 0 0.7333333492279053 0.6666666865348816 0
          0.8333333134651184 0.6000000238418579 0 1 0.5666666626930237 0
          0.9666666388511658 0.5666666626930237 0 0.7666666507720947 0.6333333253860474 0
          0.9333333373069763 0.5666666626930237 0 0.8999999761581421 0.5666666626930237 0
          0.800000011920929 0.6000000238418579 0 0.7333333492279053 0.6333333253860474 0
          0.8666666746139526 0.5666666626930237 0 0.7666666507720947 0.6000000238418579 0
          0.8333333134651184 0.5666666626930237 0 1 0.5333333611488342 0
          0.9666666388511658 0.5333333611488342 0 0.9333333373069763 0.5333333611488342 0
          0.699999988079071 0.6333333253860474 0 0.8999999761581421 0.5333333611488342 0
          0.800000011920929 0.5666666626930237 0 0.7333333492279053 0.6000000238418579 0
          0.8666666746139526 0.5333333611488342 0 0.7666666507720947 0.5666666626930237 0
          0.8333333134651184 0.5333333611488342 0 1 0.5 0
          0.699999988079071 0.6000000238418579 0 0.9666666388511658 0.5 0
          0.9333333373069763 0.5 0 0.800000011920929 0.5333333611488342 0
          0.7333333492279053 0.5666666626930237 0 0.8999999761581421 0.5 0
          0.8666666746139526 0.5 0 0.7666666507720947 0.5333333611488342 0
          0.699999988079071 0.5666666626930237 0 0.8333333134651184 0.5 0
          1 0.46666666865348816 0 0.9666666388511658 0.46666666865348816 0
          0.9333333373069763 0.46666666865348816 0 0.7333333492279053 0.5333333611488342 0
          0.800000011920929 0.5 0 0.8999999761581421 0.46666666865348816 0
          0.6666666865348816 0.5666666626930237 0 0.8666666746139526 0.46666666865348816 0
          0.7666666507720947 0.5 0 0.699999988079071 0.5333333611488342 0
          0.8333333134651184 0.46666666865348816 0 0.7333333492279053 0.5 0
          1 0.4333333373069763 0 0.9666666388511658 0.4333333373069763 0
          0.800000011920929 0.46666666865348816 0 0.9333333373069763 0.4333333373069763 0
          0.6666666865348816 0.5333333611488342 0 0.8999999761581421 0.4333333373069763 0
          0.8666666746139526 0.4333333373069763 0 0.7666666507720947 0.46666666865348816 0
          0.699999988079071 0.5 0 0.8333333134651184 0.4333333373069763 0
          0.7333333492279053 0.46666666865348816 0 1 0.4000000059604645 0
          0.9666666388511658 0.4000000059604645 0 0.6666666865348816 0.5 0
          0.800000011920929 0.4333333373069763 0 0.9333333373069763 0.4000000059604645 0
          0.8999999761581421 0.4000000059604645 0 0.699999988079071 0.46666666865348816 0
          0.7666666507720947 0.4333333373069763 0 0.8666666746139526 0.4000000059604645 0
          0.6333333253860474 0.5 0 0.8333333134651184 0.4000000059604645 0
          0.7333333492279053 0.4333333373069763 0 0.6666666865348816 0.46666666865348816 0
          0.800000011920929 0.4000000059604645 0 1 0.36666667461395264 0
          0.9666666388511658 0.36666667461395264 0 0.9333333373069763 0.36666667461395264 0
          0.699999988079071 0.4333333373069763 0 0.8999999761581421 0.36666667461395264 0
          0.7666666507720947 0.4000000059604645 0 0.8666666746139526 0.36666667461395264 0
          0.6333333253860474 0.46666666865348816 0 0.8333333134651184 0.36666667461395264 0
          0.7333333492279053 0.4000000059604645 0 0.6666666865348816 0.4333333373069763 0
          0.800000011920929 0.36666667461395264 0 1 0.3333333432674408 0
          0.9666666388511658 0.3333333432674408 0 0.9333333373069763 0.3333333432674408 0
          0.699999988079071 0.4000000059604645 0 0.8999999761581421 0.3333333432674408 0
          0.6333333253860474 0.4333333373069763 0 0.7666666507720947 0.36666667461395264 0
          0.8666666746139526 0.3333333432674408 0 0.6666666865348816 0.4000000059604645 0
          0.8333333134651184 0.3333333432674408 0 0.7333333492279053 0.36666667461395264 0
          0.800000011920929 0.3333333432674408 0 1 0.30000001192092896 0
          0.9666666388511658 0.30000001192092896 0 0.699999988079071 0.36666667461395264 0
          0.9333333373069763 0.30000001192092896 0 0.6333333253860474 0.4000000059604645 0
          0.7666666507720947 0.3333333432674408 0 0.8999999761581421 0.30000001192092896 0
          0.8666666746139526 0.30000001192092896 0 0.6666666865348816 0.36666667461395264 0