<?xml version="1.0"?>
<VTKFile type="UnstructuredGrid" version="0.1" byte_order="LittleEndian" header_type="UInt32" compressor="vtkZLibDataCompressor">
  <UnstructuredGrid>
    <Piece NumberOfPoints="322" NumberOfCells="571">
      <PointData>
        <DataArray type="Float64" Name="Velocity" NumberOfComponents="3" format="ascii" RangeMin="0" RangeMax="0.31626315310390957">
          0 0 0 -0.010072184222188512 -0.16448132903090487 0
          0 0 0 -0.008139795903657609 -0.14517287445479649 0
          -0.028310287037036263 -0.23891638452904818 0 -0.04949873554687689 -0.2896553377444141 0
          0 0 0 -0.06418224357784319 -0.30671303515037773 0
          -0.006949545036576325 -0.12845253040167492 0 -0.025838766427537782 -0.21683736687963032 0
          -0.04812104449125373 -0.26988987425514943 0 -0.0693598341393667 -0.29968385340211284 0
          -0.0672578984403382 -0.2936390716673717 0 0 0 0
          -0.00605657012309829 -0.11363094076636832 0 -0.023594461291319153 -0.19555616709927948 0
          -0.08000236045140187 -0.29479123505241617 0 -0.04583029559202578 -0.24827257447401754 0
          -0.06714163341107646 -0.2757256427900978 0 -0.08556726634260559 -0.28000295406793685 0
          0 0 0 -0.005341183680407638 -0.10035115347817355 0
          -0.021529191140521722 -0.1753433557955271 0 -0.08443391185236084 -0.28266873771890355 0
          -0.04310961969448772 -0.2261164312954104 0 -0.06526449146107338 -0.2552218089335044 0
          -0.0964309440756383 -0.27406133892291956 0 0 0 0
          -0.0047545714725213415 -0.08839919204698884 0 -0.08515171844924536 -0.2660273879759194 0
          -0.019644903823132463 -0.15636328774956623 0 -0.040233676085816794 -0.20421457495395123 0
          -0.10307713836956095 -0.25450317917774484 0 -0.1013155364084439 -0.2622171674244073 0
          -0.06239950529706241 -0.23355098378955738 0 0 0 0
          -0.004261186406421828 -0.07761042105051806 0 -0.08357883871703216 -0.24673299108263289 0
          -0.01792932904785973 -0.13867853539045044 0 -0.11320649147219454 -0.24737189067602378 0
          -0.03734981932498869 -0.1830350793136341 0 -0.10227782206700425 -0.24648072144145078 0
          -0.05899361880159393 -0.21162050779921113 0 -0.12097491711708781 -0.2246701828158633 0
          -0.08057512790527023 -0.22605800395931896 0 0 0 0
          -0.003835116008614964 -0.06784950463596073 0 -0.11768325247029404 -0.2355602747150316 0
          -0.016361001914332537 -0.12228722287780311 0 -0.03453187124907339 -0.16284946312559792 0
          -0.10063705419176873 -0.22833658502289322 0 -0.12954702609938304 -0.21655369064670918 0
          -0.055315902008987894 -0.19002091893289838 0 -0.11823451446444912 -0.22057769560772625 0
          -0.07668919936567131 -0.20488454125702718 0 0 0 0
          -0.0034595750001580826 -0.05900604628028878 0 -0.01492006878587611 -0.10715542165160657 0
          -0.13807786547845055 -0.191710177584903 0 -0.03181658122232053 -0.14381101230750315 0
          -0.0972719512620024 -0.2088746992836501 0 -0.13287434346640933 -0.20485540277243683 0
          -0.05153321672255701 -0.16914042559651973 0 -0.11606778874620796 -0.20360427162663317 0
          -0.07228368532205792 -0.18383026460165786 0 0 0 0
          -0.14446522288353156 -0.18306663848833382 0 -0.003124039057052685 -0.05098947565224795 0
          -0.013591183127708226 -0.09323410520682253 0 -0.09278579729625687 -0.18889421943088885 0
          -0.13243871353429051 -0.19072401324893512 0 -0.029222531516368465 -0.12599881900502985 0
          -0.047751302603846676 -0.14923051682174326 0 -0.11204171960590208 -0.18554498129984615 0
          -0.14609048333998903 -0.17181095096259816 0 -0.06760285084120154 -0.16332462088878832 0
          0 0 0 -0.0028215175123851026 -0.04372388537526753 0
          -0.012362338958661697 -0.0804670211015072 0 -0.12933552692746622 -0.17508451123145982 0
          -0.08760003900790901 -0.16897563515815783 0 -0.02675812497061826 -0.10944364263026313 0
          -0.15699745153352282 -0.14829034072227332 0 -0.0440371729761547 -0.13044753826248706 0
          -0.10677438000804798 -0.1670820574222872 0 -0.14424072075519603 -0.15880958169381673 0
          -0.06281194200908266 -0.14366017478716178 0 -0.12437730116358806 -0.15866075747504318 0
          0 0 0 -0.002546879257700096 -0.03714439929595414 0
          -0.08201064477631341 -0.1495338329775417 0 -0.011223175770427715 -0.06879511873958748 0
          -0.15657119287635468 -0.13794072740161997 0 -0.02442466936427856 -0.09414475338812106 0
          -0.04043131495703575 -0.11288157882601017 0 -0.1007124761459611 -0.14872081452966346 0
          -0.13990129131068393 -0.1447679919345686 0 -0.058020883346641634 -0.12503016182323395 0
          -0.11816676545128324 -0.14200641194293417 0 0 0 0
          -0.00229593490017906 -0.031195141643825565 0 -0.1530492992807132 -0.12643661052036684 0
          -0.07622359669538094 -0.13085919948447253 0 -0.010163697396515894 -0.058159816871132385 0
          -0.022217539023732445 -0.08008180802140838 0 -0.13382206338960653 -0.13024323278310124 0
          -0.09417668767015976 -0.13082854416898748 0 -0.036954413413803205 -0.09657735692774423 0
          -0.16368140373702017 -0.10463338223931852 0 -0.05329872497686294 -0.10755658085884465 0
          -0.1111477254326723 -0.1255363513488465 0 -0.14730857923605647 -0.11429666514608293 0
          -0.07037774162601869 -0.11314962622805372 0 0 0 0
          -0.002064871470936268 -0.025828373853026772 0 -0.009173330068307598 -0.048505825233448076 0
          -0.12656791965468175 -0.11566443510891643 0 -0.02012653477248539 -0.0672236923467701 0
          -0.08739206146912636 -0.11366653993850331 0 -0.033611140681253364 -0.08154967548794378 0
          -0.15839941980271555 -0.0950058271228636 0 -0.04868260793701859 -0.09131136735492497 0
          -0.10364075695796243 -0.10955504954655383 0 -0.14002374481819638 -0.10193129865461902 0
          -0.06455978814525053 -0.09653536182272597 0 0 0 0
          -0.001849836275265765 -0.021004379764991837 0 -0.00824018480901992 -0.03978372068331955 0
          -0.11855652462123684 -0.10135479991468914 0 -0.01813590987461578 -0.05553538461934003 0
          -0.15122932496506072 -0.08505715237412613 0 -0.08050883284433735 -0.09741601323941615 0
          -0.030392418801676514 -0.06779514140115346 0 -0.13170378514369674 -0.08965695220538993 0
          -0.044183586016376696 -0.07633257111927846 0 -0.09586869041446407 -0.09428096154601742 0
          -0.05881449745631167 -0.08109842387248554 0 0 0 0
          -0.0016466394720630333 -0.016691798905909012 0 -0.11008663732112513 -0.08755233093962532 0
          -0.007350533043519562 -0.03195228423109669 0 -0.14275960404909546 -0.07507320042878031 0
          -0.07361709997180958 -0.08219900804123023 0 -0.016224381528624578 -0.04498337878836121 0
          -0.027277022598621574 -0.055301185995193736 0 -0.12272098033554545 -0.077711839952454 0
          -0.08797520703251559 -0.07986709001407713 0 -0.03979079426547688 -0.0626368574482828 0
          -0.05315206823702725 -0.0668878704012885 0 -0.10135956222230515 -0.07442840498244034 0
          -0.1334285493001609 -0.06527349966809143 0 0 0 0
          -0.0014506294678380827 -0.01286847812935972 0 -0.006488603852848172 -0.024980789089215562 0
          -0.06675762673908456 -0.06809530501903725 0 -0.014365442141903152 -0.03554017079497987 0
          -0.024233174355070292 -0.04405325085797013 0 -0.11333387365398577 -0.06627129424512304 0
          -0.08003879893498607 -0.06641819525884854 0 -0.03547501026287631 -0.0502294595221376 0
          -0.0475541106379517 -0.053932130532574764 0 -0.12354741745452769 -0.055822690240966234 0
          -0.09249563295853278 -0.06210399736848046 0 0 0 0
          -0.0012566613580782073 -0.009523327065389662 0 -0.005636779113959411 -0.018851777565084347 0
          -0.059930376496268686 -0.05515637430271432 0 -0.01252831375505932 -0.027188574642800133 0
          -0.10370542169269302 -0.055461922723625025 0 -0.021220753886234168 -0.03404124398998114 0
          -0.0720837083398654 -0.05400539541669477 0 -0.031192492718208672 -0.03911299049472129 0
          -0.11331933158718223 -0.04684184036794396 0 -0.04197930270970471 -0.04224996942914883 0
          -0.0835471512821537 -0.05066389730329793 0 0 0 0
          -0.0010587273000229368 -0.006658676584076377 0 -0.05310198506072473 -0.04341794119362414 0
          -0.004776202798358881 -0.01356378738033475 0 -0.09391736358713468 -0.045374486943476636 0
          -0.010680057069578724 -0.01992554420801741 0 -0.0181949585720514 -0.025265323890802955 0
          -0.06408904629267567 -0.04267954645504909 0 -0.026890088518958296 -0.029295593846534854 0
          -0.10285444976537753 -0.03841921551107807 0 -0.07450884650781377 -0.04017000986124979 0
          -0.03636975965669099 -0.031860919663074395 0 0 0 0
          -0.04621315403199392 -0.03291222577908161 0 -0.000849005014932595 -0.004289190219659492 0
          -0.08398163042444609 -0.03607624697789154 0 -0.0038883045172899244 -0.009129699319315367 0
          -0.008789963204576654 -0.013761294789775462 0 -0.05599694643583898 -0.03248455573782164 0
          -0.015112853728682383 -0.017737057866271954 0 -0.022513088045822898 -0.020794831932440822 0
          -0.09218190446694169 -0.030620892713210873 0 -0.06532652109701582 -0.03067487552926615 0
          -0.030659466379715932 -0.022792004400584088 0 -0.09884045004935929 -0.024050370534790356 0
          -0.039187094451937084 -0.023677144843855476 0 0 0 0
          -0.07384922474334829 -0.02762379920989055 0 -0.0006181257920175961 -0.002431900394008234 0
          -0.0029594417898712506 -0.0055650712466143665 0 -0.006838519134582269 -0.008708592472130516 0
          -0.04772061565578863 -0.023468397309540093 0 -0.011945086199864034 -0.011471100194306118 0
          -0.08125868707379501 -0.0235020979613461 0 -0.01801800436917285 -0.01363251748087614 0
          -0.05590445134969432 -0.022233667506820338 0 -0.024786804206379097 -0.015075934859172762 0
          -0.08729849255590658 -0.01850083072113622 0 -0.06341683357724534 -0.02007517833236738 0
          -0.03194088772690102 -0.015757659192943498 0 0 0 0
          -0.0003620966184311106 -0.0010915525524131425 0 -0.001993725956847658 -0.002873352278623219 0
          -0.0048350216418874825 -0.004772445019886373 0 -0.03915397537501017 -0.015687101181710076 0
          -0.008696085975869882 -0.006480293960115176 0 -0.09176580392317896 -0.012824119971372554 0
          -0.0699754271509888 -0.017118575994588558 0 -0.013393101021412227 -0.007834817310556024 0
          -0.04611305345203275 -0.014910156893328403 0 -0.0187136943491307 -0.00875524630248716 0
          -0.07534196557991667 -0.013505201593154222 0 -0.05253248199904703 -0.013497086591414353 0
          -0.02440215702068752 -0.009212763297165666 0 0 0 0
          -0.00010293175581890931 -0.00025992318957054845 0 -0.0010425935573497756 -0.0010523917213994395 0
          -0.0028521816816012317 -0.001971211798640535 0 -0.03018529174106497 -0.009213407973656754 0
          -0.07932656226519862 -0.00938650962730727 0 -0.05816012948077658 -0.011534404582098902 0
          -0.005439970746356689 -0.0028124764241747487 0 -0.008692058366381223 -0.0034821033332222773 0
          -0.0357993046930878 -0.008785948218081551 0 -0.012454595084860519 -0.0039407406929186034 0
          -0.06278222570366788 -0.0091193307663833 0 -0.08179067996613903 -0.004920164920199792 0
          -0.041002855373444114 -0.00797379392263769 0 -0.01653226386126517 -0.004177595754889069 0
          0 0 0 0.00007512579839010112 0.00007265186397860066 0
          -0.00026185401510067614 -0.00011455411848808283 0 -0.0662277017658872 -0.006355860799433686 0
          -0.020714411639663186 -0.004197979822098128 0 -0.0010931081033944874 -0.0003750110876257949 0
          -0.04558265605692685 -0.00682984456232022 0 -0.002388214476037365 -0.0006125450741496128 0
          -0.024798446901241576 -0.004016943419460041 0 -0.004093768613031435 -0.0007941290697723215 0
          -0.06837120785597413 -0.003352030467592249 0 -0.04935770157430389 -0.005413049403827981 0
          -0.006122424203842258 -0.0009145739382409627 0 -0.02860021608263797 -0.003655796000984908 0
          -0.008356040768265972 -0.000976966781484036 0 -0.052182976709217004 -0.0037860211889533353 0
          0 0 0 0 0 0
          0 0 0 -0.010666938014083763 -0.000985688277405682 0
          -0.031957750079931874 -0.00313987624466031 0 0 0 0
          0 0 0 -0.012934768459402038 -0.0009455635543110112 0
          0 0 0 -0.05395199145632157 -0.0020133922699574628 0
          -0.03473396832768795 -0.002496951882600266 0 0 0 0
          -0.01505246988903393 -0.0008622676989409651 0 0 0 0
          -0.036819151070484106 -0.0017561200108148687 0 -0.05459816492050413 -0.00016064364889261656 0
          -0.016927155641182905 -0.0007422398627684837 0 0 0 0
          -0.03813254765103586 -0.0009470933969776953 0 0 0 0
          -0.018480732245956137 -0.000592292951374214 0 0 0 0
          -0.03862303474385427 -0.00009966358873916583 0 -0.019650871952248225 -0.0004193390406324105 0
          0 0 0 -0.020391640282046427 -0.0002302886736177988 0
          0 0 0 -0.02067353335540295 -0.00003198638608455768 0
          0 0 0 0 0 0
          0 0 0 0 0 0
          -0.1663088406655182 -0.11357733671301214 0 -0.17176445278732216 -0.08023559114144792 0
          -0.16530513160079696 -0.12139164496347729 0 -0.15320460596271399 -0.15684957672606997 0
          -0.14377108087693874 -0.1628690783654921 0 -0.12525808491693172 -0.19672096230251077 0
          -0.10515102723983291 -0.22783494457223322 0 -0.08479331289442658 -0.25509267977981803 0
          -0.06544106442666797 -0.27743918379057725 0 -0.048015831921917815 -0.2936556729381226 0
          -0.05501771082038478 -0.3114408988994725 0 -0.048984014793852365 -0.30534358581411225 0
          -0.03129887744670274 -0.26135719801752144 0 -0.014040489259991677 -0.18722469434263728 0
          0 0 0 -0.10374660009684303 -0.016626118105923536 0
          -0.0945137311995646 -0.006684101408000297 0 -0.11008162374952551 -0.0301056518054081 0
          -0.1210589653154169 -0.03661838370148241 0 -0.13172761833748092 -0.04353025953987694 0
          -0.14195220684379925 -0.05076381074883631 0 -0.15149475949025756 -0.05821412966624705 0
          -0.15999933420153797 -0.06574074987998102 0 -0.16697317592359584 -0.07315958995559099 0
          -0.020483064172280137 0.00016894992932267778 0 0 0 0
          -0.038269155051549014 0.0007568721615545867 0 -0.054095559549087874 0.0017068741477900252 0
          -0.0691348286959715 -0.0002180621037460281 0 -0.08264874740642277 -0.00026746305283618303 0
          <InformationKey name="L2_NORM_RANGE" location="vtkDataArray" length="2">
            <Value index="0">
              0
            </Value>
            <Value index="1">
              0.3162631531
            </Value>
          </InformationKey>
        </DataArray>
        <DataArray type="Float64" Name="Pressure" format="ascii" RangeMin="68.85112682393046" RangeMax="78.19683725115136">
          75.6334934747982 76.31504022368587 74.07248187297671 74.87009752831769 75.11401801900345 74.95444970514978
          72.89701612978982 74.57410335543415 73.69481299308298 73.9745629256087 73.88012937497977 74.0491157778414
          73.62991136660789 71.99097259816351 72.74765185820324 73.04626016721748 73.28945097419017 73.0123250315809
          72.85473048259932 72.87309307586553 71.28626030089849 71.9896274432264 72.29233160722518 72.63302195194657
          72.30513730134864 72.21463072007246 72.34448040133323 70.7330488732667 71.38109388124063 72.07241498705439
          71.67755246453935 71.72207379755761 71.99692251263623 71.8705575423566 71.67922628762452 70.29596065592361
          70.8903142387172 71.59255221678231 71.17451931522227 71.61052142919831 71.23908521784803 71.45223441646739
          71.22954392207524 71.30797700838282 71.18257212226108 69.95036603876162 70.49400949087766 71.25740603176367
          70.7628285511952 70.83934432984205 71.08751840758511 71.0202187642511 70.85281163793577 70.94233476139206
          70.83433738473283 69.67856232482394 70.17487629476494 70.4267918668373 70.75458452991182 70.50967142304721
          70.7729993656884 70.75683538484118 70.5387266880647 70.66600494960154 70.54052673394972 69.46723269879938
          70.5422055315556 69.91957076737268 70.15396566772309 70.50424767147783 70.52138251100611 70.2392610816722
          70.27845756628078 70.42665601383109 70.34833712976254 70.29438643709736 69.30603614797086 69.71754388719755
          69.93433538989787 70.31435711749033 70.27654869295812 70.01922332603625 70.15391849366199 70.06450850779427
          70.22149882090434 70.1750396990593 70.0899245918138 70.1347096378608 69.18681344615081 69.56034839444294
          70.08542993935694 69.7597742412806 70.01451124386445 69.84223777277388 69.89057724678933 70.04751955125805
          70.02266192155292 69.9219465488228 69.98076225189122 69.1030881629923 69.44116783016743 69.89020957944274
          69.9268382960375 69.62363591598327 69.70223877208176 69.89065686996669 69.90178116322056 69.75135368184627
          69.74140719640381 69.78596913587018 69.85061135427094 69.78129583754912 69.79715378662411 69.0497136403613
          69.35446491906569 69.52043947191743 69.77801828862306 69.59415935594073 69.78152340569508 69.64233793097856
          69.65614623594927 69.67812174909537 69.74230720198072 69.68747278023122 69.69317085829174 69.02258890986761
          69.29569233956335 69.44560783768159 69.68351753692524 69.51371847827558 69.58195820083004 69.68421412835269
          69.55968455894704 69.60811070773657 69.59505227480811 69.65396461931854 69.61206576379183 69.01841577754509
          69.26103480495028 69.6058586759467 69.39522844499879 69.51866780117246 69.60757151815699 69.45722267339704
          69.50005041108425 69.54242123139163 69.58382978986607 69.53382132448273 69.55133616071683 69.54377720543968
          69.46589662048554 69.03453210887845 69.24721653742304 69.36586603096923 69.54954515196263 69.4214134855654
          69.4604824370587 69.48957197403011 69.53029580370159 69.49182645607029 69.50875725233097 69.42317496917495
          69.49608109897271 69.0688168624036 69.25143951384192 69.3545139375069 69.5082995402886 69.4034569073129
          69.44874266051922 69.43845375330223 69.4919079852383 69.46687636533676 69.39000172837596 69.48248182532822
          69.46167115367176 69.11933229519582 69.27128743593728 69.48232875175785 69.35858006729666 69.41915308681888
          69.4009767339347 69.43195304901103 69.46748283970108 69.45733407587156 69.36587259285464 69.43965462332478
          69.47122493044782 69.18301834289439 69.47066829430076 69.30398636773614 69.40016253292713 69.37533026923593
          69.41150979785579 69.45633341574572 69.43894544221884 69.46161222007218 69.35035742551058 69.42957121468838
          69.47381696591427 69.29192753888323 69.47252342406357 69.25350985574192 69.39148454026729 69.34475629614447
          69.40047609127105 69.43105814263762 69.45798608172387 69.45582223271953 69.34329293250156 69.47655269910744
          69.4312072490994 69.48757175644423 69.28659328501196 69.39310319836136 69.48569168437757 69.32053501129107
          69.38614194832383 69.42791770161674 69.45418471663646 69.47072424719049 69.47768833311369 69.22330538002826
          69.34480203611928 69.49777374488997 69.4433212958335 69.5085860562459 69.2878562316488 69.40423169073252
          69.50673929417948 69.3745192108124 69.42185444430501 69.45439179755802 69.48007756103519 69.49160370667929
          69.22417797867048 69.35452624010358 69.5058442547863 69.52827337818856 69.46348973902901 69.5409749736903
          69.29575600433614 69.15591081746848 69.42299623723723 69.54030169488061 69.41513678295405 69.45397026107605
          69.48612290637402 69.22987242141531 69.52528556780706 69.51958174441485 69.37116590672579 69.55599955632563
          69.49602535031235 69.58831587989152 69.15909131838725 69.30958713268309 69.6084372527838 69.45308312419338
          69.61190008200131 69.24029434530692 69.45286627324235 69.49140448066007 69.53109105082113 69.59745079778347
          69.39757758852306 69.58038395931875 69.63715469667329 69.56529349001389 69.68990423044563 69.1656219804334
          69.33123982226441 69.72671359398332 69.51630654891636 69.74065441680888 69.25629549588264 69.08808334091745
          69.45201645702836 69.72957597694284 69.17530789602527 69.69388640891198 69.3746178364063 69.63515602799747
          69.09104992804839 69.28684580060407 69.55575622135969 69.19180467438352 69.45879490252305 69.09282693095405
          69.34797655279071 69.22740917933616 69.10143637017585 68.97451283916821 69.83755293401906 69.58019201092249
          69.94382607751933 70.3071896353245 70.47155274848572 70.98059601710393 71.61206625859737 72.40599571817734
          73.44280972421389 74.87078945000354 75.67791062060252 76.26225883044324 76.49693128638513 78.19683725115136
          77.90530222277773 69.22685117050729 69.15554742053224 69.3036513532284 69.3218508246051 69.34678630445988
          69.37873214472292 69.41792762884467 69.46455478883658 69.5186858075007 68.99336716259006 68.85112682393046
          69.00639919722916 69.0102619034523 69.08578298808139 69.0853340345818
        </DataArray>
      </PointData>
      <CellData>
        <DataArray type="UInt8" Name="vtkGhostType" format="ascii" RangeMin="0" RangeMax="1">
          0 0 0 0 0 0
          0 0 0 0 0 0
          0 0 0 0 0 0
          0 0 0 0 0 0
          0 0 0 0 0 0
          0 0 0 0 0 0
          0 0 0 0 0 0
          0 0 0 0 0 0
          0 0 0 0 0 0
          0 0 0 0 0 0
          0 0 0 0 0 0
          0 0 0 0 0 0
          0 0 0 0 0 0
          0 0 0 0 0 0
          0 0 0 0 0 0
          0 0 0 0 0 0
          0 0 0 0 0 0
          0 0 0 0 0 0
          0 0 0 0 0 0
          0 0 0 0 0 0
          0 0 0 0 0 0
          0 0 0 0 0 0
          0 0 0 0 0 0
          0 0 0 0 0 0
          0 0 0 0 0 0
          0 0 0 0 1 0
          1 0 0 0 0 0
          0 0 0 0 0 0
          0 0 0 0 0 1
          0 1 0 0 0 0
          0 0 0 0 0 0
          0 0 0 0 1 0
          1 0 0 0 0 0
          0 0 0 0 0 0
          0 1 0 1 0 0
          0 0 0 0 0 0
          0 0 1 1 1 1
          1 1 1 0 1 0
          0 1 1 1 0 0
          0 0 0 0 0 0
          0 0 0 0 0 0
          0 0 0 0 0 0
          0 0 0 0 0 0
          0 0 0 0 0 0
          0 0 0 0 0 0
          0 0 0 0 0 0
          0 0 0 0 0 0
          0 0 0 0 0 0
          0 0 0 0 0 0
          0 0 0 0 0 0
          0 0 0 0 0 0
          0 0 0 0 0 0
          0 0 0 0 0 0
          0 0 0 0 0 0
          0 0 0 0 0 0
          0 0 0 0 0 0
          0 0 0 0 0 0
          0 0 0 0 0 0
          0 0 0 0 0 0
          0 0 0 0 0 0
          0 0 0 0 0 0
          0 0 0 0 0 0
          0 0 0 0 0 0
          0 0 0 0 0 0
          0 0 0 0 0 0
          0 0 0 0 0 0
          0 0 0 0 0 0
          0 0 0 0 0 0
          0 0 0 0 0 0
          0 0 0 0 0 0
          0 0 0 0 0 0
          0 0 0 0 0 0
          0 0 0 0 0 0
          0 0 0 0 0 0
          0 0 0 0 0 0
          0 0 0 0 0 0
          0 0 0 0 0 0
          0 0 0 0 0 0
          0 0 0 0 0 0
          0 0 0 0 0 0
          0 0 0 0 0 0
          0 0 0 0 0 0
          0 0 0 0 0 0
          0 0 0 0 0 0
          0 0 0 0 0 0
          0 0 0 0 0 0
          0 0 0 0 0 0
          0 0 0 0 0 0
          0 0 0 0 0 0
          0 0 0 0 0 0
          0 0 0 0 0 0
          0 0 0 0 0 0
          0 0 0 0 0 0
          0 0 0 0 0 0
          0 0 0 0 0 0
          0
        </DataArray>
      </CellData>
      <Points>
        <DataArray type="Float32" Name="Points" NumberOfComponents="3" format="ascii" RangeMin="0.4333333373069763" RangeMax="1.3017082665984545">
          1 0.800000011920929 0 0.9666666388511658 0.800000011920929 0
          1 0.7666666507720947 0 0.9666666388511658 0.7666666507720947 0
          0.9333333373069763 0.7666666507720947 0 0.8999999761581421 0.7666666507720947 0
          1 0.7333333492279053 0 0.8666666746139526 0.7666666507720947 0
          0.9666666388511658 0.7333333492279053 0 0.9333333373069763 0.7333333492279053 0
          0.8999999761581421 0.7333333492279053 0 0.8333333134651184 0.7666666507720947 0
          0.8666666746139526 0.7333333492279053 0 1 0.699999988079071 0
          0.9666666388511658 0.699999988079071 0 0.9333333373069763 0.699999988079071 0
          0.8333333134651184 0.7333333492279053 0 0.8999999761581421 0.699999988079071 0
          0.8666666746139526 0.699999988079071 0 0.800000011920929 0.7333333492279053 0
          1 0.6666666865348816 0 0.9666666388511658 0.6666666865348816 0
          0.9333333373069763 0.6666666865348816 0 0.8333333134651184 0.699999988079071 0
          0.8999999761581421 0.6666666865348816 0 0.8666666746139526 0.6666666865348816 0
          0.800000011920929 0.699999988079071 0 1 0.6333333253860474 0
          0.9666666388511658 0.6333333253860474 0 0.8333333134651184 0.6666666865348816 0
          0.9333333373069763 0.6333333253860474 0 0.8999999761581421 0.6333333253860474 0
          0.7666666507720947 0.699999988079071 0 0.800000011920929 0.6666666865348816 0
          0.8666666746139526 0.6333333253860474 0 1 0.6000000238418579 0
          0.9666666388511658 0.6000000238418579 0 0.8333333134651184 0.6333333253860474 0
          0.9333333373069763 0.6000000238418579 0 0.7666666507720947 0.6666666865348816 0
          0.8999999761581421 0.6000000238418579 0 0.800000011920929 0.6333333253860474 0
          0.8666666746139526 0.6000000238418579 0 0.7333333492279053 0.6666666865348816 0
          0.8333333134651184 0.6000000238418579 0 1 0.5666666626930237 0
          0.9666666388511658 0.5666666626930237 0 0.7666666507720947 0.6333333253860474 0
          0.9333333373069763 0.5666666626930237 0 0.8999999761581421 0.5666666626930237 0
          0.800000011920929 0.6000000238418579 0 0.7333333492279053 0.6333333253860474 0
          0.8666666746139526 0.5666666626930237 0 0.7666666507720947 0.6000000238418579 0
          0.8333333134651184 0.5666666626930237 0 1 0.5333333611488342 0
          0.9666666388511658 0.5333333611488342 0 0.9333333373069763 0.5333333611488342 0
          0.699999988079071 0.6333333253860474 0 0.8999999761581421 0.5333333611488342 0
          0.800000011920929 0.5666666626930237 0 0.7333333492279053 0.6000000238418579 0
          0.8666666746139526 0.5333333611488342 0 0.7666666507720947 0.5666666626930237 0
          0.8333333134651184 0.5333333611488342 0 1 0.5 0
          0.699999988079071 0.6000000238418579 0 0.9666666388511658 0.5 0
          0.9333333373069763 0.5 0 0.800000011920929 0.5333333611488342 0
          0.7333333492279053 0.5666666626930237 0 0.8999999761581421 0.5 0
          0.8666666746139526 0.5 0 0.7666666507720947 0.5333333611488342 0
          0.699999988079071 0.5666666626930237 0 0.8333333134651184 0.5 0
          1 0.46666666865348816 0 0.9666666388511658 0.46666666865348816 0
          0.9333333373069763 0.46666666865348816 0 0.7333333492279053 0.5333333611488342 0
          0.800000011920929 0.5 0 0.8999999761581421 0.46666666865348816 0
          0.6666666865348816 0.5666666626930237 0 0.8666666746139526 0.46666666865348816 0
          0.7666666507720947 0.5 0 0.699999988079071 0.5333333611488342 0
          0.8333333134651184 0.46666666865348816 0 0.7333333492279053 0.5 0
          1 0.4333333373069763 0 0.9666666388511658 0.4333333373069763 0
          0.800000011920929 0.46666666865348816 0 0.9333333373069763 0.4333333373069763 0
          0.6666666865348816 0.5333333611488342 0 0.8999999761581421 0.4333333373069763 0
          0.8666666746139526 0.4333333373069763 0 0.7666666507720947 0.46666666865348816 0
          0.699999988079071 0.5 0 0.8333333134651184 0.4333333373069763 0
          0.7333333492279053 0.46666666865348816 0 1 0.4000000059604645 0
          0.9666666388511658 0.4000000059604645 0 0.6666666865348816 0.5 0
          0.800000011920929 0.4333333373069763 0 0.9333333373069763 0.4000000059604645 0
          0.8999999761581421 0.4000000059604645 0 0.699999988079071 0.46666666865348816 0
          0.7666666507720947 0.4333333373069763 0 0.8666666746139526 0.4000000059604645 0
          0.6333333253860474 0.5 0 0.8333333134651184 0.4000000059604645 0
          0.7333333492279053 0.4333333373069763 0 0.6666666865348816 0.46666666865348816 0
          0.800000011920929 0.4000000059604645 0 1 0.36666667461395264 0
          0.9666666388511658 0.36666667461395264 0 0.9333333373069763 0.36666667461395264 0
          0.699999988079071 0.4333333373069763 0 0.8999999761581421 0.36666667461395264 0
          0.7666666507720947 0.4000000059604645 0 0.8666666746139526 0.36666667461395264 0
          0.6333333253860474 0.46666666865348816 0 0.8333333134651184 0.36666667461395264 0
          0.7333333492279053 0.4000000059604645 0 0.6666666865348816 0.4333333373069763 0
          0.800000011920929 0.36666667461395264 0 1 0.3333333432674408 0
          0.9666666388511658 0.3333333432674408 0 0.9333333373069763 0.3333333432674408 0
          0.699999988079071 0.4000000059604645 0 0.8999999761581421 0.3333333432674408 0
          0.6333333253860474 0.4333333373069763 0 0.7666666507720947 0.36666667461395264 0
          0.8666666746139526 0.3333333432674408 0 0.6666666865348816 0.4000000059604645 0
          0.8333333134651184 0.3333333432674408 0 0.7333333492279053 0.36666667461395264 0
          0.800000011920929 0.3333333432674408 0 1 0.30000001192092896 0
          0.9666666388511658 0.30000001192092896 0 0.699999988079071 0.36666667461395264 0
          0.9333333373069763 0.30000001192092896 0 0.6333333253860474 0.4000000059604645 0
          0.7666666507720947 0.3333333432674408 0 0.8999999761581421 0.30000001192092896 0
          0.8666666746139526 0.30000001192092896 0 0.6666666865348816 0.36666667461395264 0