<?xml version="1.0"?>
<VTKFile type="UnstructuredGrid" version="0.1" byte_order="LittleEndian" header_type="UInt32" compressor="vtkZLibDataCompressor">
  <UnstructuredGrid>
    <Piece NumberOfPoints="324" NumberOfCells="580">
      <PointData>
        <DataArray type="Float64" Name="Velocity" NumberOfComponents="3" format="ascii" RangeMin="0" RangeMax="0.22622508160192226">
          -0.14090346820818456 -0.1385280595344156 0 -0.1447547821565779 -0.11108382157610944 0
          -0.1458765579007084 -0.13243986591848225 0 -0.14702396400267043 -0.08263320733692162 0
          -0.15200203302363852 -0.10700232091321885 0 -0.15617582931564059 -0.08011623737416716 0
          -0.14817607772891397 -0.05372398281429777 0 -0.153753141031739 -0.10110114844099832 0
          -0.15874824853835381 -0.05240584352894513 0 -0.15933986565338962 -0.076130318404045 0
          -0.1485584335359665 -0.02468490117508026 0 -0.15149682269975434 -0.09392354354806338 0
          -0.16300266887313397 -0.050062363423418715 0 -0.16000026350277194 -0.0243045119455652 0
          -0.1580503307086643 -0.07107229262271236 0 -0.14838840047044807 0.004295551134390998 0
          -0.16248954707527094 -0.04694411375819872 0 -0.1649467955586162 -0.0233945421724428 0
          -0.15355113548668614 -0.06529903131691486 0 -0.16012035187074874 0.0038840114243325207 0
          -0.14775318428474785 0.03309880226420141 0 -0.16494545957325274 -0.0220655405328244 0
          -0.1584882734033609 -0.04328722557381066 0 -0.16532084500417668 0.0034872128832041395 0
          -0.15919545115852887 0.03192532652737215 0 -0.14682861856580107 -0.05911320520833472 0
          -0.14661497158483294 0.06161327635507834 0 -0.16552297054900578 0.0031269190792304028 0
          -0.1612878128337589 -0.02043138204033196 0 -0.15202995356169607 -0.03929965867980682 0
          -0.16420245148841653 0.030259877590917438 0 -0.13864720869844532 -0.052759627385620955 0
          -0.15721097293560585 0.059596983328058184 0 -0.1448184166989494 0.08967532186606687 0
          -0.1620125760681968 0.0028086724892452345 0 -0.16428468260936657 0.028249745525959376 0
          -0.1550263573761945 -0.018598982390581723 0 -0.14392557036656003 -0.03515481319262578 0
          -0.16159433264984874 0.05661421332945397 0 -0.12958345257525364 -0.04642819864227601 0
          -0.15405683071205595 0.08663324176413517 0 -0.1558435266909409 0.0025275179653402213 0
          -0.16070767050537807 0.026014965326429263 0 -0.1421005751095883 0.11700996136356971 0
          -0.1469977018425004 -0.016661760645545004 0 -0.16124464279579834 0.05293248415212719 0
          -0.13479527602874272 -0.03099051116113537 0 -0.15742836635589455 0.08220603272563663 0
          -0.12005612934127224 -0.0402603598663715 0 -0.14953890163015038 0.1126702628849937 0
          -0.1545091796178809 0.023649686649214546 0 -0.1478586581427671 0.0022732949285562054 0
          -0.15739347737117748 0.04878028428664136 0 -0.1378481184738554 -0.014696459356938448 0
          -0.15637066324525978 0.07677686011414095 0 -0.1381058137949545 0.14316779454584255 0
          -0.12509595235038934 -0.026911380188714876 0 -0.15157691851921234 0.10660793245141233 0
          -0.11035158837074083 -0.03435709332677217 0 -0.1433976798874755 0.1371900115560107 0
          -0.15104638515226557 0.044345196478838035 0 -0.1465205455173111 0.0212259139226557 0
          -0.15206675586554805 0.07067536216711214 0 -0.13871314697190176 0.002034759280501926 0
          -0.12805868168089493 -0.012762509501340485 0 -0.14959459828146993 0.09931614313547404 0
          -0.13240887089806824 0.16745484168293637 0 -0.1438725835867397 0.1292613866447032 0
          -0.11514543833209491 -0.022993160147700507 0 -0.14300677047906887 0.0397766099582 0
          -0.13738951637833285 0.01879807659181464 0 -0.14547402279466454 0.06417426712578375 0
          -0.13533659115122643 0.1594616795813441 0 -0.10064421563961237 -0.02878738139870003 0
          -0.14470954248774642 0.09121607832241194 0 -0.12889787146471005 0.0018023701308002061 0
          -0.14083137890580413 0.11997579654504892 0 -0.11796813852057271 -0.010903146494181913 0
          -0.10514268135811625 -0.019287988125653053 0 -0.13413808003823388 0.1494295681754045 0
          -0.13389970327833778 0.03519089545238348 0 -0.13735226203449427 0.05749217740771309 0
          -0.13781433886164904 0.0826542641132002 0 -0.12760269314777742 0.01640751519171687 0
          -0.1353064681889595 0.1098323625294306 0 -0.11876104492305606 0.0015698168474839384 0
          -0.12506063039295287 0.17848051115160932 0 -0.0910123521227496 -0.02359652607674402 0
          -0.1300079369521294 0.13803686353595207 0 -0.10779239485158217 -0.009147676229311225 0
          -0.12828965138636958 0.05079997510483771 0 -0.12419429214224037 0.03067760633159747 0
          -0.12960985710165354 0.07390688916503474 0 -0.12222537777078897 0.16615232596448856 0
          -0.09518367272603888 -0.01583000838148124 0 -0.1281081460230823 0.09923609222963536 0
          -0.11750620561870957 0.01408629502475699 0 -0.1238711643079146 0.12584090336855627 0
          -0.10852694124049066 0.0013344351713721826 0 -0.11709991236972234 0.15260445881818835 0
          -0.09764013873934047 -0.007514303720001565 0 -0.11872578577932606 0.044229119446913705 0
          -0.12063411085459655 0.06518831644618088 0 -0.11422366500663719 0.02630558208117555 0
          -0.11986337349742648 0.08850539466351943 0 -0.11643799894827303 0.11328475491004351 0
          -0.10732367620615224 0.011859935034673837 0 -0.10806414109064313 0.17820830205022456 0
          -0.08527332627263598 -0.012640758772221096 0 -0.11047884107137679 0.13842452153743473 0
          -0.09831107977166326 0.0010969941909237115 0 -0.11128647717390328 0.05666202939253464 0
          -0.10897118463794751 0.03788038785992002 0 -0.11104772803736666 0.0778836019940223 0
          -0.10217279790847128 0.1625862126969489 0 -0.08752456846136514 -0.006012761758634324 0
          -0.10420201227106729 0.022127849965849825 0 -0.10824747853591177 0.10070962537665548 0
          -0.10295589867720055 0.12406712700411521 0 -0.09717098497776598 0.009749368642033419 0
          -0.08813173413746374 0.0008619042030696947 0 -0.09529942966475752 0.1466226157278613 0
          -0.1020110219793718 0.0675530181407126 0 -0.10184696820195366 0.04845250300120357 0
          -0.09970189934733774 0.08837016602155709 0 -0.09922301083843013 0.03183127698268026 0
          -0.08544593558400222 0.16669214842313743 0 -0.07737089119746922 -0.004646651657340829 0
          -0.09423881024675408 0.018185155594374624 0 -0.09497057646930222 0.10987268972408776 0
          -0.08706775634033996 0.007773745970707648 0 -0.08790851512455752 0.1307508137007498 0
          -0.0929965532325276 0.057650287510352734 0 -0.07864577911793169 0.14934122566211427 0
          -0.07791731733102247 0.0006381324978462354 0 -0.09249035395762642 0.0406557114190382 0
          -0.09109362337991103 0.07645167328203353 0 -0.08957799624948787 0.026140886313921738 0
          -0.08684355243145639 0.09608707998461875 0 -0.08435073599310203 0.014510477467964793 0
          -0.08033280963746793 0.11528314833810381 0 -0.06743008726573081 0.16347322545019885 0
          -0.07694490751844424 0.005954931964345749 0 -0.07167154301331279 0.13242009783106096 0
          -0.08415384980578808 0.048280436814397296 0 -0.08262451443866517 0.0650887314602822 0
          -0.08329644884970612 0.033346105698366726 0 -0.07880371553981073 0.08288155128158885 0
          -0.06109078665848497 0.14539575794615675 0 -0.06750803461356979 0.0004379521335062508 0
          -0.07280736811782385 0.10043518284301967 0 -0.08004487775544472 0.02085471812365123 0
          -0.07447028559991918 0.011136985280097291 0 -0.06474857490522323 0.11618367707325576 0
          -0.049082956253671595 0.1513938107585357 0 -0.054848145308854256 0.128118356406586 0
          -0.06664580956269839 0.004319587796424195 0 -0.07441783235954724 0.05438277482061036 0
          -0.07554605998243696 0.03952671335651441 0 -0.07100794633963915 0.07037322304141713 0
          -0.06549471481495965 0.08634776887836826 0 -0.07426134513043817 0.026581424039718592 0
          -0.058028581477881126 0.10079576399065303 0 -0.07055589239088796 0.016014436484716916 0
          -0.04361996229661058 0.1335867052448027 0 -0.05665118691087001 0.0002703555078727618 0
          -0.04882832382670036 0.1118104318139435 0 -0.06444669446507388 0.008104444145948839 0
          -0.0315693096203846 0.12888928092324847 0 -0.06652424301859067 0.04441465642798544 0
          -0.06355335091524751 0.058644737058392155 0 -0.05850415456905532 0.07310701090551079 0
          -0.06715653044093302 0.031458272156458446 0 -0.038414107449263546 0.1169204502319888 0
          -0.05591946503158933 0.002892962721330879 0 -0.06531295922405092 0.02041105837511101 0
          -0.0516102884133557 0.08635260083089001 0 -0.04310967247770085 0.09656527228137461 0
          -0.06096898878377354 0.011668986261698253 0 -0.027390032016572263 0.11277634151635091 0
          -0.05403557016338366 0.005453705155155766 0 -0.03351416238955443 0.10145859927794737 0
          -0.056483515074686366 0.04775947851290899 0 -0.05892528409536544 0.03525654889383387 0
          -0.0519064588564378 0.06076154904139559 0 -0.058903610515810514 0.024138515428317055 0
          -0.04555531633199414 0.07290075269832585 0 -0.023481625372981735 0.09801550800680557 0
          -0.0444118828763029 0.0016940438468382845 0 -0.037737209794475486 0.08242347076440344 0
          -0.05631871189497105 0.014887945462741367 0 -0.051051673305840484 0.007871379625885752 0
          -0.028944919575772377 0.08721315452223821 0 -0.049794527108383155 0.03777671219807029 0
          -0.04574416405704005 0.04933799517584962 0 -0.0515347156990718 0.026995040035876505 0
          -0.039904871166245616 0.06044630462548383 0 -0.019853419928392266 0.08456408503658279 0
          -0.042886207409744935 0.0032195471695694172 0 -0.032731371879445775 0.06938881794624466 0
          -0.050657067081937054 0.017627585505832058 0 -0.047062761031713855 0.010068181497748342 0
          -0.02471590307466223 0.07416421316830432 0 -0.03166644996309166 0.0007588427549018753 0
          -0.016506900346803674 0.07235981598902586 0 -0.04046000079745412 0.004667904584221912 0
          -0.04004115241842612 0.038863944454779885 0 -0.034701968883159885 0.04896042972132797 0
          -0.04343325344258606 0.028791465445982174 0 -0.0280993549709128 0.05742878910447931 0
          -0.04420660746702452 0.019728840870394917 0 -0.030548727767168972 0.0014640669390984281 0
          -0.020822628941330412 0.062273172364658895 0 -0.042214963442622176 0.011970356789200507 0
          -0.01344017675793955 0.06133222566007109 0 -0.03720872091544226 0.005999314737146851 0
          -0.017119873648767537 0.00017285522083591485 0 -0.034811518709168834 0.029422319518698344 0
          -0.030014841659681303 0.038410493999217955 0 -0.028757498256807755 0.002139279274486167 0
          -0.02386847392314297 0.04645978586512857 0 -0.0372373319127065 0.020993754721024802 0
          -0.03672148732701144 0.013496908216355321 0 -0.017243316664142007 0.05148071669789321 0
          -0.01064567618915631 0.051409146790270706 0 -0.03324328229187231 0.007187637698130356 0
          -0.01649666611522894 0.0003399454526404942 0 -0.02633708675320406 0.00276932058808071 0
          -0.025939528823409854 0.028856633034511903 0 -0.029994855546459306 0.021243997184604527 0
          -0.02015351631750216 0.03636266681910369 0 -0.013961007774178556 0.041680718890273125 0
          -0.030881612657281104 0.014514467065373265 0 -0.015488731878590215 0.0005017064723546869 0
          -0.008094259363376675 0.042514736895258975 0 -0.028718683098516173 0.008232235725656416 0
          -0.02334239955132322 0.0033509422514235577 0 0 0 0
          -0.017188046366226707 0.027123808989712436 0 -0.022534867348067894 0.020568369830264735 0
          -0.01411417675583315 0.0006552974016469235 0 -0.025063120237034123 0.014762796946580075 0
          -0.01107801640515526 0.0327016497215748 0 -0.005727124324162444 0.03455736008407443 0
          -0.02386458166423196 0.009144970184660112 0 0 0 0
          -0.019824812592873362 0.003916767124359344 0 -0.012390368659122051 0.0008021297401315458 0
          -0.015116166730860848 0.019084737208422728 0 -0.019524006184588785 0.013930643191298131 0
          -0.008992084065979915 0.02440725431598904 0 -0.0035619418401771847 0.027423661108315733 0
          -0.019044669901386542 0.009820168042162077 0 0 0 0
          -0.015832133504784702 0.004571987080142361 0 -0.010315476015916111 0.0009638399319501285 0
          0 0 0 -0.01351263288224345 0.012762982854930664 0
          -0.008157125930684793 0.017010382242496302 0 -0.0020086669697265873 0.02100195491313237 0
          -0.014772924592116043 0.009675256850305085 0 -0.01147408044294175 0.005460149379606045 0
          -0.007850933636659136 0.0012255158425500269 0 0 0 0
          -0.00762778811470833 0.01123968615350911 0 -0.011445600986111344 0.0073235060630732225 0
          -0.0018890092837701147 0.015195543098319261 0 -0.007073870235418018 0.006367073837415597 0
          -0.004961890421618189 0.0017879122845328548 0 0 0 0
          -0.002397019705576405 0.009825808730237029 0 -0.004089120729395086 0.006533011407941462 0
          -0.0033263761461063625 0.005389013089867385 0 -0.0018132243840122356 0.0028562730862511337 0
          0 0 0 0.0033990871304900973 0.004225130964666267 0
          -0.0025657747290551967 -0.005137010268162849 0 0.0008572658394510017 0.0038258094341901997 0
          0 0 0 0.020210647923910162 -0.006196037115337258 0
          0.0009913935250534648 0.0003373998742550859 0 0 0 0
          -0.02060953398462465 -0.04496972625272651 0 0 0 0
          0 0 0 -0.14641153938227341 -0.08593784534658377 0
          -0.1426991857864848 -0.11485014913235515 0 -0.14600819861233744 -0.12432157856871721 0
          -0.13742322430610124 -0.15555784383242427 0 -0.13492172431102598 -0.16411679838214382 0
          -0.12833926718362904 0.004679371561563884 0 -0.12811056816077193 0.03360912926566718 0
          -0.12881260114357604 -0.02444181839318619 0 -0.12945443028402262 -0.05377372894825942 0
          -0.13003711841962687 -0.08327266867867415 0 -0.13017058320280717 -0.11275646167808125 0
          -0.12929707022490647 -0.14181156852927876 0 -0.1267042241393091 -0.16968227596998997 0
          -0.07533311369459797 -0.009734412364648231 0 -0.08145008937878334 -0.018814047228537543 0
          -0.08524356904114636 -0.030560367921860107 0 -0.0944101749848372 -0.03734425327064622 0
          -0.10369065610647644 -0.04464490499188394 0 -0.11302799373974465 -0.05241198598269019 0
          -0.12227841571870171 -0.060567460579068616 0 -0.13119598875478608 -0.06899485865310842 0
          -0.13941246344468122 -0.07752775615475646 0 -0.09174306330219632 0.18409891329077074 0
          -0.11233026571536182 0.19290861644466167 0 -0.12454865644092222 0.18885290499369478 0
          -0.12382237161838702 0.1726132792384955 0 -0.12637330428876178 0.14651679257598405 0
          -0.12757914433054 0.11907554926915767 0 -0.12799307892503287 0.09090864247289325 0
          -0.12806142096891052 0.06236596807094784 0 0 0 0
          -0.01734790923040237 0.000004176721406106794 0 -0.0320850876567881 0.00004242445021114078 0
          -0.044994898971876876 0.0001366363030972707 0 -0.05621765023776732 -0.002331465500101569 0
          -0.06701846919847906 -0.003417423667560598 0 -0.05471429584235152 0.17020081532340775 0
          -0.03599380824464739 0.1463607440326798 0 -0.07366841813188753 0.1820760668622241 0
          <InformationKey name="L2_NORM_RANGE" location="vtkDataArray" length="2">
            <Value index="0">
              0
            </Value>
            <Value index="1">
              0.2262250816
            </Value>
          </InformationKey>
        </DataArray>
        <DataArray type="Float64" Name="Pressure" format="ascii" RangeMin="66.52926069541186" RangeMax="70.8322730026459">
          70.22023416834725 69.90804101350919 70.04777893224549 69.59096852562112 69.78015416174274 69.50348866733692
          69.27269573632104 69.65883301804622 69.22202797099258 69.41896255188794 68.95528560666752 69.54670136119002
          69.17196011035058 68.93877442605017 69.33953741676834 68.63971682003148 69.12392565248886 68.92125686558006
          69.26664336864313 68.65575977146784 68.32636483899599 68.90339187282108 69.07902153490761 68.66951743955678
          68.37440779405865 69.20111141249826 68.01539080161922 68.6809120053705 68.88581459860929 69.0380094268681
          68.41888187403632 69.14330898494295 68.09587807006551 67.70706698906513 68.69009292285672 68.45906097951558
          68.8690714648979 69.0013499840195 68.17123348648694 69.09327098064803 67.82136561014998 68.69733075145301
          68.49465073762771 67.4021112432267 68.85358439402972 68.24020192773743 68.9692581229292 67.92844569210044
          69.0508167874726 67.55240549387918 68.5256497265132 68.70293574779839 68.30213063197704 68.83964260671911
          68.0266699317646 67.1021183120935 68.94176755543187 67.6926400694683 69.01564907281943 67.29128823915867
          68.35679826509443 68.55223678355576 68.1151477834453 68.70720354497105 68.82741441820728 67.82097531368895
          66.8099107095889 67.4665662740816 68.91879818406925 68.4042775353936 68.57468544698264 68.19352977503854
          67.0414712567902 68.98743704098199 67.93643844529696 68.71038228657278 67.62613684622633 68.8169768732662
          68.9002279023421 67.25403225925098 68.44482813219805 68.26184730288418 68.03868116618762 68.59329731413362
          67.76914188023821 68.71266405513127 66.80732320690957 68.96587455869141 67.44610283499999 68.80836990524978
          68.32038856871415 68.47880500097595 68.12779630520716 67.05966358583042 68.88594557270562 67.89540353403865
          68.60835993778446 67.61719530647763 68.71421717337816 67.28551875685156 68.80164211704736 68.36958432282445
          68.20417618292683 68.506589829671 68.0052181556199 67.7675196171236 68.6201571944293 66.88768103898227
          68.87584099245501 67.48510667440604 68.71522277312229 68.26837073357143 68.40991464371581 68.09919173599134
          67.14818483884903 68.79680695693007 68.52859024139657 67.89775969373844 67.65929940625189 68.62899328733553
          68.7157958542753 67.3762293860582 68.17805685103623 68.32095928372442 68.00888072984779 68.44191965047811
          67.03800821780526 68.79375715077951 68.54525817987496 67.80939215827345 68.63506977158431 67.57365292913927
          68.2424925351378 67.29297894902167 68.71582889525376 68.36258915442147 68.10188428523325 68.466262730868
          67.93688766033321 68.55689704576682 67.74259435410815 66.97095356234527 68.63824564425371 67.51184097349707
          68.29319299035053 68.17755788817823 68.39419227077076 68.04318064306682 67.2487047022918 68.71522218115237
          67.88527318570668 68.48345523215559 68.56328866398464 67.69774172064244 66.98502361489805 67.48498435579546
          68.63832386021946 68.23659549129971 68.33133570665306 68.1292198693602 68.00364144491145 68.41673544453133
          67.85372430566153 68.49320121495658 67.28259598757539 68.71466020091296 67.68409849413538 68.56404713943834
          67.08614168656054 68.28038217563035 68.19570986270915 68.09899617770513 68.35861944483244 67.53190725711919
          68.6362282603048 68.43006254386816 67.98242827896432 67.84997499792242 68.49474277820792 67.41257397252416
          68.56031456058182 67.73918292601698 68.2443434483301 68.31140687377945 68.17223661944888 68.37561072583352
          68.08583064246163 67.6780850316713 68.63384229122346 67.98596732821042 68.43282360125797 68.48931293424425
          67.90973997914664 68.27850049756964 68.22552426593126 68.33140744483059 68.16562059290811 67.89284281745675
          68.5548189318049 68.09494383557664 68.38049202309153 68.425873588339 68.04791444651323 68.62960848028955
          68.06503646956074 68.48071283313169 68.26349443474372 68.22474198303786 68.30025914340452 68.18016862278272
          68.33887977947343 68.54551541242893 68.1574527563444 68.37290040699953 68.20106572680697 68.41411948958233
          68.61671370425654 68.28798127240441 68.26854655929948 68.46679766338166 68.24637123327163 68.30774712141822
          68.33226270851002 68.24313260378025 68.30605987720631 68.35794307469949 68.52081453640189 68.39601944596328
          68.29896278278144 68.28963669552371 68.29827206753396 68.31214673890521 68.30105532619807 68.43115053303191
          68.38569643879033 68.31497979956485 68.33526220147583 68.47910574645235 68.33361569718402 68.29670216406697
          68.35066518319263 68.26881530826047 68.36915697282859 68.4481811378259 68.28491862312627 68.36781997711978
          68.28605438705785 68.28125999851734 68.32877190558892 68.23171246874003 68.40184551681025 68.4987274801123
          68.25448914027095 68.2674767612367 68.25119570155108 68.22315069726105 68.18122556271594 68.2272691410752
          68.3721192584174 68.5185977756253 68.18347641255363 68.2369825041175 68.17871772448792 68.1120797984448
          68.23187741969996 68.03999196908433 68.4480914771178 68.23673327976373 68.16871160467241 68.06920630479515
          68.22433334728309 67.96982283700187 68.16531866446469 68.25474366488065 68.09025787717728 67.87420910249398
          67.85958961310746 68.50789552808111 68.2809676800572 67.6744044179247 68.82621266676864 68.81980850378507
          68.76175655589105 69.79204766875836 70.8322730026459 69.44524482336186 69.74133478003031 69.8872761568583
          70.30082768592163 70.52181118045021 68.62184118472175 68.27608465856294 68.97023271159358 69.3222840347897
          69.67854366898206 70.03853497994417 70.39994441829954 70.75759919164256 68.86978092566999 68.95070155901
          69.0392493540045 69.0676969614103 69.10507734482069 69.15193042113344 69.20884791540338 69.27641417921164
          69.35511992908953 66.74388420179203 66.59341063622767 66.52926069541186 66.56224037692151 66.9021769892967
          67.24476294427025 67.58818535240167 67.93183777095817 68.59761935108824 68.71566106272107 68.71637475824619
          68.71533735241628 68.7932884389584 68.79244150328543 66.63209716225015 66.686342998496 66.64722167997061
        </DataArray>
      </PointData>
      <CellData>
        <DataArray type="UInt8" Name="vtkGhostType" format="ascii" RangeMin="0" RangeMax="1">
          0 0 1 0 1 0
          0 0 0 0 0 1
          1 0 0 0 0 0
          0 0 0 1 0 1
          0 0 0 0 0 0
          0 0 0 0 1 1
          1 1 1 1 1 1
          1 1 1 1 1 1
          1 1 1 0 1 0
          0 0 0 1 0 1
          0 0 0 0 0 0
          0 0 0 0 1 1
          0 0 0 0 0 0
          0 0 0 0 0 0
          1 1 0 0 0 0
          0 0 0 0 0 0
          0 0 0 0 1 1
          0 0 0 0 0 0
          0 0 0 0 0 0
          0 0 0 0 1 1
          0 0 0 0 0 0
          0 0 0 0 0 0
          0 0 0 0 0 0
          1 1 0 0 0 0
          0 0 0 0 0 0
          0 0 0 0 0 0
          0 0 0 0 1 1
          0 0 0 0 0 0
          0 0 0 0 0 0
          0 0 0 0 0 0
          0 0 1 1 0 0
          0 0 0 0 0 0
          0 0 0 0 0 0
          0 0 0 0 0 0
          0 1 0 0 0 0
          0 0 0 0 0 0
          0 0 0 0 0 0
          0 0 1 0 1 0
          0 0 0 0 0 0
          0 0 0 0 0 0
          0 1 0 1 0 0
          0 0 0 0 0 0
          0 0 0 0 1 1
          1 1 1 1 1 1
          1 1 1 0 0 0
          0 0 0 0 0 0
          0 0 0 0 0 0
          0 0 0 0 0 1
          0 1 0 0 0 0
          0 0 0 0 0 0
          0 0 0 0 0 0
          0 0 0 0 0 0
          1 1 0 0 0 0
          0 0 0 0 0 0
          0 0 0 0 0 0
          0 0 0 0 0 0
          1 1 0 0 0 0
          0 0 0 0 0 0
          0 0 0 0 0 0
          0 0 0 0 0 0
          1 0 1 0 0 0
          0 0 0 0 0 0
          0 0 0 0 0 0
          0 0 0 0 0 0
          0 0 0 1 1 0
          0 0 0 0 0 0
          0 0 0 0 0 0
          0 0 0 0 0 0
          0 0 0 0 0 1
          0 1 0 0 0 0
          0 0 0 0 0 0
          0 0 0 0 0 0
          0 0 0 0 0 0
          0 0 0 0 0 0
          0 0 0 0 0 0
          0 0 0 0 0 0
          0 0 0 0 0 0
          0 0 0 0 0 0
          0 0 0 0 0 0
          0 0 0 0 0 0
          0 0 0 0 0 0
          0 0 0 0 0 0
          0 0 0 0 0 0
          0 0 0 0 0 0
          0 0 0 0 0 0
          0 0 0 0 0 0
          0 0 0 0 0 0
          0 0 0 0 0 0
          0 0 0 0 0 0
          0 0 0 0 0 0
          0 0 0 0 0 0
          0 0 0 0 0 0
          0 0 0 0 0 0
          0 0 0 0 0 0
          0 0 0 0 0 0
          0 0 0 0 1 1
          1 1 1 1
        </DataArray>
      </CellData>
      <Points>
        <DataArray type="Float32" Name="Points" NumberOfComponents="3" format="ascii" RangeMin="0.10000000149011612" RangeMax="0.9666666717364872">
          0.6666666865348816 0.6333333253860474 0 0.6333333253860474 0.6333333253860474 0
          0.6666666865348816 0.6000000238418579 0 0.6000000238418579 0.6333333253860474 0
          0.6333333253860474 0.6000000238418579 0 0.6000000238418579 0.6000000238418579 0
          0.5666666626930237 0.6333333253860474 0 0.6333333253860474 0.5666666626930237 0
          0.5666666626930237 0.6000000238418579 0 0.6000000238418579 0.5666666626930237 0
          0.5333333611488342 0.6333333253860474 0 0.6333333253860474 0.5333333611488342 0
          0.5666666626930237 0.5666666626930237 0 0.5333333611488342 0.6000000238418579 0
          0.6000000238418579 0.5333333611488342 0 0.5 0.6333333253860474 0
          0.5666666626930237 0.5333333611488342 0 0.5333333611488342 0.5666666626930237 0
          0.6000000238418579 0.5 0 0.5 0.6000000238418579 0
          0.46666666865348816 0.6333333253860474 0 0.5333333611488342 0.5333333611488342 0
          0.5666666626930237 0.5 0 0.5 0.5666666626930237 0
          0.46666666865348816 0.6000000238418579 0 0.6000000238418579 0.46666666865348816 0
          0.4333333373069763 0.6333333253860474 0 0.5 0.5333333611488342 0
          0.5333333611488342 0.5 0 0.5666666626930237 0.46666666865348816 0
          0.46666666865348816 0.5666666626930237 0 0.6000000238418579 0.4333333373069763 0
          0.4333333373069763 0.6000000238418579 0 0.4000000059604645 0.6333333253860474 0
          0.5 0.5 0 0.46666666865348816 0.5333333611488342 0
          0.5333333611488342 0.46666666865348816 0 0.5666666626930237 0.4333333373069763 0
          0.4333333373069763 0.5666666626930237 0 0.6000000238418579 0.4000000059604645 0
          0.4000000059604645 0.6000000238418579 0 0.5 0.46666666865348816 0
          0.46666666865348816 0.5 0 0.36666667461395264 0.6333333253860474 0
          0.5333333611488342 0.4333333373069763 0 0.4333333373069763 0.5333333611488342 0
          0.5666666626930237 0.4000000059604645 0 0.4000000059604645 0.5666666626930237 0
          0.6000000238418579 0.36666667461395264 0 0.36666667461395264 0.6000000238418579 0
          0.46666666865348816 0.46666666865348816 0 0.5 0.4333333373069763 0
          0.4333333373069763 0.5 0 0.5333333611488342 0.4000000059604645 0
          0.4000000059604645 0.5333333611488342 0 0.3333333432674408 0.6333333253860474 0
          0.5666666626930237 0.36666667461395264 0 0.36666667461395264 0.5666666626930237 0
          0.6000000238418579 0.3333333432674408 0 0.3333333432674408 0.6000000238418579 0
          0.4333333373069763 0.46666666865348816 0 0.46666666865348816 0.4333333373069763 0
          0.4000000059604645 0.5 0 0.5 0.4000000059604645 0
          0.5333333611488342 0.36666667461395264 0 0.36666667461395264 0.5333333611488342 0
          0.30000001192092896 0.6333333253860474 0 0.3333333432674408 0.5666666626930237 0
          0.5666666626930237 0.3333333432674408 0 0.4333333373069763 0.4333333373069763 0
          0.46666666865348816 0.4000000059604645 0 0.4000000059604645 0.46666666865348816 0
          0.30000001192092896 0.6000000238418579 0 0.6000000238418579 0.30000001192092896 0
          0.36666667461395264 0.5 0 0.5 0.36666667461395264 0
          0.3333333432674408 0.5333333611488342 0 0.5333333611488342 0.3333333432674408 0
          0.5666666626930237 0.30000001192092896 0 0.30000001192092896 0.5666666626930237 0
          0.4333333373069763 0.4000000059604645 0 0.4000000059604645 0.4333333373069763 0
          0.36666667461395264 0.46666666865348816 0 0.46666666865348816 0.36666667461395264 0
          0.3333333432674408 0.5 0 0.5 0.3333333432674408 0
          0.2666666805744171 0.6000000238418579 0 0.6000000238418579 0.2666666805744171 0
          0.30000001192092896 0.5333333611488342 0 0.5333333611488342 0.30000001192092896 0
          0.4000000059604645 0.4000000059604645 0 0.4333333373069763 0.36666667461395264 0
          0.36666667461395264 0.4333333373069763 0 0.2666666805744171 0.5666666626930237 0
          0.5666666626930237 0.2666666805744171 0 0.3333333432674408 0.46666666865348816 0
          0.46666666865348816 0.3333333432674408 0 0.30000001192092896 0.5 0
          0.5 0.30000001192092896 0 0.2666666805744171 0.5333333611488342 0
          0.5333333611488342 0.2666666805744171 0 0.4000000059604645 0.36666667461395264 0
          0.36666667461395264 0.4000000059604645 0 0.4333333373069763 0.3333333432674408 0
          0.3333333432674408 0.4333333373069763 0 0.30000001192092896 0.46666666865348816 0
          0.46666666865348816 0.30000001192092896 0 0.23333333432674408 0.5666666626930237 0
          0.5666666626930237 0.23333333432674408 0 0.2666666805744171 0.5 0
          0.5 0.2666666805744171 0 0.36666667461395264 0.36666667461395264 0
          0.4000000059604645 0.3333333432674408 0 0.3333333432674408 0.4000000059604645 0
          0.23333333432674408 0.5333333611488342 0 0.5333333611488342 0.23333333432674408 0
          0.4333333373069763 0.30000001192092896 0 0.30000001192092896 0.4333333373069763 0