<?xml version="1.0"?>
<VTKFile type="UnstructuredGrid" version="0.1" byte_order="LittleEndian" header_type="UInt32" compressor="vtkZLibDataCompressor">
  <UnstructuredGrid>
    <Piece NumberOfPoints="319" NumberOfCells="562">
      <PointData>
        <DataArray type="Float64" Name="Velocity" NumberOfComponents="3" format="ascii" RangeMin="0" RangeMax="0.9999999999999997">
          0.9999999999999997 0 0 0 0 0
          0.9999999999999997 0 0 0.15906725593692586 -0.09374864721026777 0
          0 0 0 0.9999999999999997 0 0
          -0.014822409651638587 -0.2107146319591692 0 0.31434331803224325 -0.08140244644883515 0
          0.06109539914571467 -0.21164342035757794 0 0 0 0
          0.9999999999999997 0 0 0.4439633573871468 -0.05455892681517961 0
          -0.03196400365955999 -0.22566783681836092 0 0.16333699523270107 -0.16581391281106242 0
          -0.026272949438476172 -0.2787807666318596 0 0 0 0
          0.9999999999999997 0 0 0.5418476557162172 -0.036131384255532396 0
          -0.022496100596532793 -0.20672399879278533 0 0.025030518754240828 -0.2504194426026646 0
          -0.04025582734786945 -0.28696491550322517 0 0.26169331471220963 -0.1224697920790621 0
          -0.030574252614380994 -0.2900807764623333 0 0.09371670300743068 -0.20408002647339663 0
          0 0 0 0.9999999999999997 0 0
          0.6116949295379707 -0.02532644784169558 0 -0.014427998356237851 -0.18061011129464052 0
          0.3431777775129142 -0.09085733854811988 0 -0.037093974607184346 -0.2705905277226372 0
          0.0028622654021406343 -0.2583390893626551 0 0.16193902623748044 -0.16143956547425484 0
          -0.04822120889933307 -0.2967863537441924 0 0.9999999999999997 0 0
          0.6614420081093308 -0.01848683132218386 0 -0.03266342557736292 -0.24752348344904843 0
          0.40738663739834563 -0.06840893351620696 0 0.04735195900205552 -0.21755363135329503 0
          -0.04147716801403919 -0.2844400647659377 0 -0.052246163252958874 -0.28682996820800477 0
          0.2223479068995454 -0.12677856995480946 0 0.9999999999999997 0 0
          -0.020229322377373255 -0.2535177864460985 0 0.6977374172938675 -0.013691538700301807 0
          -0.060922545432236366 -0.2900132543607149 0 0.09377612391010391 -0.17839441063488334 0
          0.4577758558898831 -0.051938596006654035 0 0.27358020945126693 -0.09926153779102105 0
          -0.05719023011920714 -0.2709075610613267 0 0.008968610908956913 -0.21679308651733167 0
          0.9999999999999997 0 0 0.7247481150066778 -0.010187371427412953 0
          0.137363033386946 -0.14411986225883816 0 0.4973987310394992 -0.03951367794700173 0
          -0.04380237331803041 -0.24064006170655222 0 0.31609389621503975 -0.07737573114226734 0
          0.04067846135764317 -0.18069135641589165 0 0.17599610657833087 -0.11507687422164659 0
          0.9999999999999997 0 0 0.7449875088834734 -0.0075926952408715736 0
          -0.024830330610986273 -0.20664066403261552 0 0.5283691331581082 -0.029970359044035562 0
          -0.0745972755971662 -0.2512477673205047 0 0.07137120492365277 -0.14775658074458387 0
          0.35066052218742844 -0.0598248395221467 0 0.20887012256625337 -0.0906619738742117 0
          -0.06700404304058359 -0.22168438123886927 0 -0.003811576862487149 -0.17295106156666332 0
          0.9999999999999997 0 0 0.7601014516591665 -0.005633232008789155 0
          0.5522417644155346 -0.022494087266178398 0 0.09904792890756965 -0.11857830683685576 0
          0.37810686901941165 -0.0455524718297916 0 -0.09255444945284838 -0.22700349975247092 0
          -0.055580631056229304 -0.18967104606829238 0 0.2358532913717595 -0.07003237456473563 0
          0.016769592217751435 -0.14133504576969055 0 0.9999999999999997 0 0
          0.7712311822631236 -0.0041047866450110325 0 0.12271212204917713 -0.09290626716273619 0
          0.5702233541325593 -0.016475290729728993 0 -0.08949441870688847 -0.19814894431673852 0
          -0.042631975968282824 -0.15773584472328336 0 0.399236460782116 -0.03369767840246129 0
          0.03536724781917941 -0.11229998321284188 0 0.25714265488978527 -0.05234974965600989 0
          0.9999999999999997 0 0 -0.08370950929550693 -0.16751855971163684 0
          -0.11025635561545308 -0.1994840983711137 0 0.7791645658512393 -0.0028636931833036453 0
          0.14194817776865448 -0.07018467167104711 0 0.5832246522723481 -0.01145870480693356 0
          -0.02986064287290441 -0.12706639540317308 0 0.4147422616307409 -0.0235674229542302 0
          0.05108865242155414 -0.08574377307509737 0 0.2730443261389511 -0.03685841260034137 0
          -0.11057227425866809 -0.17118422440818515 0 -0.07673264261133113 -0.13674219001853608 0
          0.15663626726215346 -0.049777119360368736 0 0.9999999999999997 0 0
          0.784426746638965 -0.0018093624108628174 0 -0.018419936911138392 -0.09805846882470826 0
          0.5918908179099821 -0.0071024029294716115 0 0.42515763204313234 -0.014603986313146605 0
          0.06344356745215585 -0.06129076544164266 0 -0.10881499185191727 -0.14147139884627966 0
          -0.1267042241393091 -0.16968227596998997 0 0.2838531499841419 -0.022897626096990264 0
          -0.06975126268643246 -0.1066371541263169 0 -0.009052805805843183 -0.0706724347699703 0
          0.16678864237210886 -0.031051294658806943 0 0.9999999999999997 0 0
          0.7873462010378006 -0.0008671691782891807 0 -0.12929707022490647 -0.14181156852927876 0
          0.5966399691430183 -0.00313850625060417 0 -0.10603195882517555 -0.11143861471351083 0
          0.0721797161945126 -0.038451001111717065 0 0.43084842297571857 -0.006345938614406092 0
          -0.06361755501893548 -0.07750000158617343 0 0.28980060548539477 -0.009886365085499 0
          -0.002214415136889488 -0.0446383301643462 0 0.17246625894945358 -0.013405013615084576 0
          -0.13017058320280717 -0.11275646167808125 0 0.9999999999999997 0 0
          -0.10305243672228008 -0.08165762454420969 0 0.7880975137012945 0.000023851438418922293 0
          0.5976959956762146 0.0006592900932848378 0 0.07718746860336215 -0.01669461526959113 0
          -0.05890425323910025 -0.04931233964006357 0 0.432020944528528 0.0016096334149902 0
          0.29103578938162084 0.0027013992516921005 0 -0.13003711841962687 -0.08327266867867415 0
          0.001842698795999365 -0.019571209799095535 0 -0.10047843542268685 -0.05234854216374014 0
          0.17373783448936153 0.003731927948041753 0 0.9999999999999997 0 0
          0.7867228863054415 0.0009198143559102318 0 0.5951072189372252 0.004501465310162252 0
          -0.055961246194400245 -0.02187686085865391 0 0.07844618791813794 0.004513196217681633 0
          0.42873063674347667 0.009640224212360087 0 -0.12945443028402262 -0.05377372894825942 0
          0.28762098711102924 0.015362677374170576 0 0.003013865502988068 0.004962194990377461 0
          -0.09870457293766016 -0.02351224917175797 0 0.17066241765687204 0.02090529294917371 0
          0.9999999999999997 0 0 -0.054959925114950826 0.0050933972343902125 0
          0.7831359526184192 0.0018796315942520945 0 0.07599706877517706 0.025695569826157283 0
          0.5887509304638072 0.00860509848765916 0 -0.12881260114357604 -0.02444181839318619 0
          0.4208883657394169 0.01812734149273456 0 0.27953687431846846 0.028589605397285098 0
          0.0013107619704764097 0.029402258634462445 0 -0.09794400390184109 0.0049717373629139085 0
          0.16328979405229088 0.03864569650687722 0 -0.0559226492303818 0.031914036786607834 0
          0.9999999999999997 0 0 0.7771092992691682 0.0029733831058637613 0
          0.06993698955371043 0.047353605866582646 0 -0.12833926718362904 0.004679371561563884 0
          0.5783257507811729 0.01321638772224276 0 0.4082658687225179 0.027484358261704093 0
          -0.09825031693107934 0.03327244360880448 0 -0.0031502208303653403 0.05416635652498203 0
          0.26669747575466785 0.042890472952483494 0 0.15167737790121763 0.05747454687771931 0
          -0.05873734047283517 0.05888247852346231 0 -0.12811056816077193 0.03360912926566718 0
          0.06043129958694441 0.06995409400144349 0 0.9999999999999997 0 0
          0.7682439337261928 0.00429408155804201 0 0.5633351544319422 0.018636161016154253 0
          -0.09953141445433766 0.06154893873832904 0 0.390505848166718 0.038183470131639884 0
          -0.0101422595207751 0.07961917752769042 0 0.24897878594785308 0.05880518823697749 0
          0.1359245910582917 0.07790106564482406 0 -0.06315837537659282 0.08623364276783504 0
          -0.12806142096891052 0.06236596807094784 0 0.047744050280244206 0.09390724370713373 0
          0.9999999999999997 0 0 0.7559111775840844 0.0059799154408113385 0
          0.5430678498650514 0.025254250822386585 0 -0.10155494389317574 0.08989621411990692 0
          0.3671507626651084 0.050781086352911786 0 -0.019307281058802098 0.10603386149381333 0
          0.22627404564596523 0.07690907987055384 0 -0.12799307892503287 0.09090864247289325 0
          0.11623238525265338 0.10040151263168264 0 -0.06879638948770969 0.11408917186316686 0
          0.032287923166751234 0.11952452108950387 0 0.9999999999999997 0 0
          -0.10394757157380882 0.11828716711111895 0 0.7391381258265796 0.008263411650959595 0
          0.5165719287775606 0.0336098155989956 0 -0.03012159253187524 0.13353436052451553 0
          0.33770564096307937 0.06594451466765038 0 0.19859545477080984 0.09779454459949555 0
          -0.12757914433054 0.11907554926915767 0 -0.0751004639764932 0.14239095138038227 0
          0.09300290333989691 0.12536430982387237 0 0.014701584745506625 0.1469401535352592 0
          -0.1061916773415255 0.14650313685596741 0 0.9999999999999997 0 0
          0.7164153536273331 0.011563253307977915 0 0.482604227701651 0.044498537215417244 0
          -0.041846180115346444 0.16200491104937678 0 0.30171860547258467 0.0844868378188178 0
          -0.12637330428876178 0.14651679257598405 0 0.16621186970874824 0.12201722843370601 0
          -0.08133438410436979 0.17080776308556428 0 0.06697224521356421 0.1529760785629369 0
          -0.004052430388013939 0.17597028987627703 0 -0.10762284036210894 0.17404457896736567 0
          0.9999999999999997 0 0 0.6855708334726517 0.016552618641436236 0
          -0.05346950604022423 0.19094527017980115 0 0.4396322047117998 0.05904891238456355 0
          0.25885301945602635 0.10735772170079202 0 -0.12382237161838702 0.1726132792384955 0
          0.12974729387212117 0.14996986595837059 0 -0.08655477743716393 0.19859982183845906 0
          0.03929594718247956 0.1830163849988551 0 -0.10743471866922727 0.20001201751768005 0
          -0.02263789804563381 0.2058829099643283 0 0.9999999999999997 0 0
          0.6440466619645735 0.023877105713687508 0 -0.0636971757903538 0.21925303494346118 0
          0.3863082545535939 0.07834962458578097 0 -0.1192893351717029 0.19637720573906275 0
          0.2091773447242669 0.13528601000688148 0 0.09028772038262972 0.18152847066712005 0
          -0.08963250232077552 0.22443104104246683 0 0.011544071750122025 0.21450158330711896 0
          -0.12454865644092222 0.18885290499369478 0 -0.10472111601957854 0.2229537828577323 0
          -0.03941450895069161 0.23506577399675235 0 0.9999999999999997 0 0
          -0.07106109963527814 0.24494203213515683 0 0.5887509460057484 0.033092368042094006 0
          -0.11210618018648062 0.21633478854714397 0 0.32270285865187565 0.10201447661067656 0
          0.15431931003490734 0.167524973186873 0 -0.08938286336939891 0.24614825597689804 0
          0.05009989385705894 0.2151505538594317 0 -0.013950401084809888 0.24505053525157977 0
          -0.11408425543191404 0.20593379739441808 0 -0.09861164833655954 0.2407037815879245 0
          -0.05232941376643811 0.2605680552971029 0 -0.11233026571536182 0.19290861644466167 0
          -0.07395888600537251 0.26481416593739265 0 -0.10170339888413689 0.23041460129162697 0
          0.9999999999999997 0 0 0.5111179336225916 0.042109901291287125 0
          0.24999738394426968 0.1267981537211783 0 0.09893033890911077 0.20018941083668682 0
          -0.08469387639475164 0.26055901037264584 0 0.014337501529652966 0.24654740394622518 0
          -0.10071109506780118 0.21678867883453407 0 -0.032738159161955695 0.26993565140305453 0
          -0.08844741925749937 0.2502445730557439 0 -0.057995827136293504 0.27741498345169824 0
          -0.09706070331486798 0.20103588133192646 0 -0.08780334672581382 0.23587591394327515 0
          -0.07008939317155938 0.27396394077793146 0 0.9999999999999997 0 0
          0.39295013413155755 0.05415341311420653 0 0.1637934326069954 0.14841102063844575 0
          0.04697567285174712 0.22680198205757215 0 -0.07422789181849347 0.26309394577287915 0
          -0.010518095765396557 0.26852206848612914 0 -0.09174306330219632 0.18409891329077074 0
          -0.08445226985181047 0.2190036313592056 0 -0.03892789743497733 0.28139500007656043 0
          -0.07367021004347564 0.2475035470682121 0 -0.05205651209633503 0.2776519835434408 0
          -0.07949964265093686 0.20078765288131853 0 -0.07043351928404107 0.22921077880666874 0
          -0.056653963893107104 0.26483093721795586 0 -0.05649611959714652 0.2470365351792156 0
          -0.07366841813188753 0.1820760668622241 0 -0.06574767638658853 0.2096384653761136 0
          -0.05379426080170591 0.22681160854970323 0 -0.060358208098968164 0.1897540234238553 0
          -0.049819118582426755 0.20581276257845693 0 -0.05471429584235152 0.17020081532340775 0
          -0.04528855368312585 0.18505888837893503 0 -0.04060595111048269 0.1651356705986178 0
          -0.03599380824464739 0.1463607440326798 0 -0.14838840047044807 0.004295551134390998 0
          -0.14775318428474785 0.03309880226420141 0 -0.1485584335359665 -0.02468490117508026 0
          -0.14817607772891397 -0.05372398281429777 0 -0.14702396400267043 -0.08263320733692162 0
          -0.1447547821565779 -0.11108382157610944 0 -0.14090346820818456 -0.1385280595344156 0
          -0.13492172431102598 -0.16411679838214382 0 -0.1215775809728451 -0.1951518440633199 0
          -0.10668314404427615 -0.2245653151138539 0 -0.09114308432553525 -0.25129353348256317 0
          -0.0757061326236043 -0.2738621643846663 0 -0.06815601148222954 -0.2827439691464875 0
          -0.051635570941077034 -0.26924807799919 0 -0.02917981318727887 -0.22386326388396405 0
          -0.010351994224374769 -0.15699940180359626 0 0 0 0
          -0.10806414109064313 0.17820830205022456 0 -0.08544593558400222 0.16669214842313743 0
          -0.12506063039295287 0.17848051115160932 0 -0.13240887089806824 0.16745484168293637 0
          -0.1381058137949545 0.14316779454584255 0 -0.1421005751095883 0.11700996136356971 0
          -0.1448184166989494 0.08967532186606687 0 -0.14661497158483294 0.06161327635507834 0
          -0.049082956253671595 0.1513938107585357 0 -0.0315693096203846 0.12888928092324847 0
          -0.06743008726573081 0.16347322545019885 0
          <InformationKey name="L2_NORM_RANGE" location="vtkDataArray" length="2">
            <Value index="0">
              0
            </Value>
            <Value index="1">
              1
            </Value>
          </InformationKey>
        </DataArray>
        <DataArray type="Float64" Name="Pressure" format="ascii" RangeMin="53.04822393232631" RangeMax="125.55884019864787">
          125.55884019864787 120.53504790171522 103.23110146686327 105.19994081220054 103.57373251521491 87.23423602441022
          96.58444660428921 91.05581447047078 88.57282092664734 89.5488298368861 79.25329847098607 82.85279575324923
          86.92047484648124 82.715193884511 84.0910643204228 81.68931848510813 75.7340296479195 78.74512937839687
          81.10379446655546 81.07249655961778 80.48927565996956 79.21243834826615 79.33811600050055 78.57087214201162
          77.72003303849594 73.89186738946563 76.32852178872683 78.06885513237883 76.909162339961 78.10946055154896
          77.74875449672687 76.59248832873128 77.68305688833753 72.65546516006218 74.57803169560883 76.38374286699377
          75.14852747108986 76.14166631301458 76.73610181638948 76.1550815328369 74.9903335235569 71.75024034566582
          75.5450081607463 73.24039669513213 75.57135716379184 74.72594317850516 73.75770129226294 73.70332079611275
          74.76194397139965 74.38080767000955 71.08011847044658 72.22433315922024 73.5567328775439 72.67034736971765
          73.88929027387564 72.67889582740024 73.36199644012753 72.60645938561446 70.56970716862519 71.44061739720755
          73.05999445739862 71.80982117813429 73.30682477272651 72.49858989609329 71.84828854098991 71.81779451039763
          72.66845184121135 72.31048866294448 70.1614540784355 70.81275758558498 71.10606273966306 71.75851187986787
          71.1518323549365 72.24137948318729 72.04617088170717 71.14154395842152 71.63843100979976 69.81936432875666
          70.28885475588179 71.10878553119775 70.50996199910148 71.73908533779596 71.45770542513021 70.54930469369178
          71.03102082093751 70.54560345291229 69.52230479156063 71.23828244252061 71.41815124337283 69.83569738435156
          70.52646385545485 69.98877404872051 70.90728873378806 70.0136936838958 70.47610010383897 70.0082345700128
          71.00013142551 70.75246657796828 69.99487382124441 69.2570688710682 69.4303992526372 70.39292676783933
          69.51858731945349 69.52419932108468 69.96266295404321 70.58009538177764 70.75759919164256 69.51181811367904
          70.28680005685257 69.90941267321149 69.49951176246667 69.01472286359957 69.05553713158795 70.39994441829954
          69.08010130067248 70.1666061505998 69.47978921002746 69.06309974825237 69.8410719721235 69.04066677720486
          69.44973486775157 69.02693374603128 70.03853497994417 68.78904814806424 69.76296527166593 68.69671264635674
          68.65655095538894 69.01677435353409 69.41205179657524 68.61450043117244 68.58047291857021 69.67854366898206
          69.00626614446378 69.36915616294874 68.56474436810281 68.57577452697109 68.34090976348718 68.23216537794305
          68.99518833268482 68.56356365512049 68.16329413263063 69.3222840347897 68.11771826864214 68.57154829875141
          68.98340654731007 68.1013493137909 68.37213346473352 68.5856006202218 67.9749738414259 68.11077644465941
          67.79063372596721 68.97023271159358 67.694049835658 67.63893116493695 68.13853769196294 68.60318539782978
          67.62548375504062 68.17849656421139 68.17664628514815 67.58394588624087 67.6494696780689 68.62184118472175
          67.31342728783719 67.18995207508043 68.22573132069594 67.70057933966415 67.13011850535378 67.12591052243444
          67.76932740582389 68.27608465856294 67.17100661730369 67.98910438428035 67.14899529851698 66.77755502845835
          67.84834585170263 66.63146404814304 67.2514214039075 66.57628433634723 66.59139157473892 67.35393352279343
          67.93183777095817 66.66720033897506 67.8106692553194 66.64519781023809 66.152407842784 67.46864345226305
          65.99371434495762 66.7854366722635 65.95989121805651 67.58818535240167 66.0100766679083 66.9288224304771
          66.13024771755605 67.64193784554239 67.08487198628855 66.03997928004173 65.39776744398347 66.29780893781219
          65.2435520128894 65.25763346543853 67.24476294427025 66.49147578678793 65.36700104226941 65.55125998321897
          66.69629100484485 67.46476458277414 65.28480026864399 64.46682827317746 65.78384372075296 64.34481602538891
          66.9021769892967 64.44264368386771 66.04012535967134 64.64381525480599 64.91938912127848 66.30322600360797
          67.17754028204091 64.26326494700113 65.23830904877607 63.2991768138706 63.27871267733386 66.56224037692151
          63.50821193801815 65.5733211682456 63.8361647869213 65.90672982523098 64.23306854605099 66.53734856987377
          62.673453823396855 64.66272485177 61.74572268394944 66.22766858941438 62.033611422752394 62.49221104561661
          65.0945986264653 62.9840119383568 66.52926069541186 65.51127147643271 63.52523717707385 65.5277776530759
          64.08457010400191 60.128756736222726 65.90324685715841 59.455032848445896 60.45750693946879 64.62696719175061
          61.37106068669364 62.10648362648461 66.26494584853076 65.13550350555684 62.82403003517827 66.59341063622767
          63.5346746888264 65.60355603156042 65.6555005984182 57.26840918417961 56.19994091282289 58.10910242258682
          64.20243251383243 59.76392305465138 66.02803293206 60.9200298093216 64.81066044667303 61.92823697165533
          66.40789418987316 65.35743552947784 62.88009816723374 69.81002065139242 57.08990562923881 53.04822393232631
          54.82576182258048 63.74360399167843 57.095721196980996 66.74388420179203 65.84415575718224 58.8407443431584
          64.50160197331991 60.35352749957248 66.27300068894644 65.15965475347785 61.74541268231604 62.97369180634379
          66.64722167997061 65.72800529346146 64.01526410991296 66.21591345828212 64.88399946869217 66.63209716225015
          65.6040729435073 66.19817888651244 66.686342998496 68.63971682003148 68.32636483899599 68.95528560666752
          69.27269573632104 69.59096852562112 69.90804101350919 70.22023416834725 70.52181118045021 71.10243180279417
          71.81861007909836 72.72102429441506 73.92101574937217 74.4503867990855 74.83272102800409 74.99018972633753
          76.18021884438375 75.45789882640719 66.88768103898227 67.03800821780526 66.80732320690957 66.8099107095889
          67.1021183120935 67.4021112432267 67.70706698906513 68.01539080161922 66.98502361489805 67.08614168656054
          66.97095356234527
        </DataArray>
      </PointData>
      <CellData>
        <DataArray type="UInt8" Name="vtkGhostType" format="ascii" RangeMin="0" RangeMax="0">
          0 0 0 0 0 0
          0 0 0 0 0 0
          0 0 0 0 0 0
          0 0 0 0 0 0
          0 0 0 0 0 0
          0 0 0 0 0 0
          0 0 0 0 0 0
          0 0 0 0 0 0
          0 0 0 0 0 0
          0 0 0 0 0 0
          0 0 0 0 0 0
          0 0 0 0 0 0
          0 0 0 0 0 0
          0 0 0 0 0 0
          0 0 0 0 0 0
          0 0 0 0 0 0
          0 0 0 0 0 0
          0 0 0 0 0 0
          0 0 0 0 0 0
          0 0 0 0 0 0
          0 0 0 0 0 0
          0 0 0 0 0 0
          0 0 0 0 0 0
          0 0 0 0 0 0
          0 0 0 0 0 0
          0 0 0 0 0 0
          0 0 0 0 0 0
          0 0 0 0 0 0
          0 0 0 0 0 0
          0 0 0 0 0 0
          0 0 0 0 0 0
          0 0 0 0 0 0
          0 0 0 0 0 0
          0 0 0 0 0 0
          0 0 0 0 0 0
          0 0 0 0 0 0
          0 0 0 0 0 0
          0 0 0 0 0 0
          0 0 0 0 0 0
          0 0 0 0 0 0
          0 0 0 0 0 0
          0 0 0 0 0 0
          0 0 0 0 0 0
          0 0 0 0 0 0
          0 0 0 0 0 0
          0 0 0 0 0 0
          0 0 0 0 0 0
          0 0 0 0 0 0
          0 0 0 0 0 0
          0 0 0 0 0 0
          0 0 0 0 0 0
          0 0 0 0 0 0
          0 0 0 0 0 0
          0 0 0 0 0 0
          0 0 0 0 0 0
          0 0 0 0 0 0
          0 0 0 0 0 0
          0 0 0 0 0 0
          0 0 0 0 0 0
          0 0 0 0 0 0
          0 0 0 0 0 0
          0 0 0 0 0 0
          0 0 0 0 0 0
          0 0 0 0 0 0
          0 0 0 0 0 0
          0 0 0 0 0 0
          0 0 0 0 0 0
          0 0 0 0 0 0
          0 0 0 0 0 0
          0 0 0 0 0 0
          0 0 0 0 0 0
          0 0 0 0 0 0
          0 0 0 0 0 0
          0 0 0 0 0 0
          0 0 0 0 0 0
          0 0 0 0 0 0
          0 0 0 0 0 0
          0 0 0 0 0 0
          0 0 0 0 0 0
          0 0 0 0 0 0
          0 0 0 0 0 0
          0 0 0 0 0 0
          0 0 0 0 0 0
          0 0 0 0 0 0
          0 0 0 0 0 0
          0 0 0 0 0 0
          0 0 0 0 0 0
          0 0 0 0 0 0
          0 0 0 0 0 0
          0 0 0 0 0 0
          0 0 0 0 0 0
          0 0 0 0 0 0
          0 0 0 0 0 0
          0 0 0 0
        </DataArray>
      </CellData>
      <Points>
        <DataArray type="Float32" Name="Points" NumberOfComponents="3" format="ascii" RangeMin="0.5426273808170171" RangeMax="1.4142135623730951">
          1 1 0 1 0.9666666388511658 0
          0.9666666388511658 1 0 0.9666666388511658 0.9666666388511658 0
          1 0.9333333373069763 0 0.9333333373069763 1 0
          0.9666666388511658 0.9333333373069763 0 0.9333333373069763 0.9666666388511658 0
          0.9333333373069763 0.9333333373069763 0 1 0.8999999761581421 0
          0.8999999761581421 1 0 0.8999999761581421 0.9666666388511658 0
          0.9666666388511658 0.8999999761581421 0 0.8999999761581421 0.9333333373069763 0
          0.9333333373069763 0.8999999761581421 0 1 0.8666666746139526 0
          0.8666666746139526 1 0 0.8666666746139526 0.9666666388511658 0
          0.9666666388511658 0.8666666746139526 0 0.8999999761581421 0.8999999761581421 0
          0.9333333373069763 0.8666666746139526 0 0.8666666746139526 0.9333333373069763 0
          0.8999999761581421 0.8666666746139526 0 0.8666666746139526 0.8999999761581421 0
          1 0.8333333134651184 0 0.8333333134651184 1 0
          0.8333333134651184 0.9666666388511658 0 0.9666666388511658 0.8333333134651184 0
          0.8333333134651184 0.9333333373069763 0 0.9333333373069763 0.8333333134651184 0
          0.8666666746139526 0.8666666746139526 0 0.8333333134651184 0.8999999761581421 0
          0.8999999761581421 0.8333333134651184 0 0.800000011920929 1 0
          0.800000011920929 0.9666666388511658 0 0.9333333373069763 0.800000011920929 0
          0.800000011920929 0.9333333373069763 0 0.8333333134651184 0.8666666746139526 0
          0.8666666746139526 0.8333333134651184 0 0.8999999761581421 0.800000011920929 0
          0.800000011920929 0.8999999761581421 0 0.7666666507720947 1 0
          0.8333333134651184 0.8333333134651184 0 0.7666666507720947 0.9666666388511658 0
          0.8666666746139526 0.800000011920929 0 0.800000011920929 0.8666666746139526 0
          0.7666666507720947 0.9333333373069763 0 0.7666666507720947 0.8999999761581421 0
          0.8333333134651184 0.800000011920929 0 0.800000011920929 0.8333333134651184 0
          0.7333333492279053 1 0 0.7333333492279053 0.9666666388511658 0
          0.7666666507720947 0.8666666746139526 0 0.7333333492279053 0.9333333373069763 0
          0.800000011920929 0.800000011920929 0 0.7333333492279053 0.8999999761581421 0
          0.7666666507720947 0.8333333134651184 0 0.7333333492279053 0.8666666746139526 0
          0.699999988079071 1 0 0.699999988079071 0.9666666388511658 0
          0.7666666507720947 0.800000011920929 0 0.699999988079071 0.9333333373069763 0
          0.800000011920929 0.7666666507720947 0 0.7333333492279053 0.8333333134651184 0
          0.699999988079071 0.8999999761581421 0 0.699999988079071 0.8666666746139526 0
          0.7666666507720947 0.7666666507720947 0 0.7333333492279053 0.800000011920929 0
          0.6666666865348816 1 0 0.6666666865348816 0.9666666388511658 0
          0.6666666865348816 0.9333333373069763 0 0.699999988079071 0.8333333134651184 0
          0.6666666865348816 0.8999999761581421 0 0.7666666507720947 0.7333333492279053 0
          0.7333333492279053 0.7666666507720947 0 0.6666666865348816 0.8666666746139526 0
          0.699999988079071 0.800000011920929 0 0.6333333253860474 1 0
          0.6333333253860474 0.9666666388511658 0 0.6666666865348816 0.8333333134651184 0
          0.6333333253860474 0.9333333373069763 0 0.7333333492279053 0.7333333492279053 0
          0.699999988079071 0.7666666507720947 0 0.6333333253860474 0.8999999761581421 0
          0.6666666865348816 0.800000011920929 0 0.6333333253860474 0.8666666746139526 0
          0.6000000238418579 1 0 0.699999988079071 0.7333333492279053 0
          0.7333333492279053 0.699999988079071 0 0.6000000238418579 0.9666666388511658 0
          0.6333333253860474 0.8333333134651184 0 0.6000000238418579 0.9333333373069763 0
          0.6666666865348816 0.7666666507720947 0 0.6000000238418579 0.8999999761581421 0
          0.6333333253860474 0.800000011920929 0 0.6000000238418579 0.8666666746139526 0
          0.699999988079071 0.699999988079071 0 0.6666666865348816 0.7333333492279053 0
          0.6000000238418579 0.8333333134651184 0 0.5666666626930237 1 0
          0.5666666626930237 0.9666666388511658 0 0.6333333253860474 0.7666666507720947 0
          0.5666666626930237 0.9333333373069763 0 0.5666666626930237 0.8999999761581421 0
          0.6000000238418579 0.800000011920929 0 0.6666666865348816 0.699999988079071 0
          0.699999988079071 0.6666666865348816 0 0.5666666626930237 0.8666666746139526 0
          0.6333333253860474 0.7333333492279053 0 0.6000000238418579 0.7666666507720947 0
          0.5666666626930237 0.8333333134651184 0 0.5333333611488342 1 0
          0.5333333611488342 0.9666666388511658 0 0.6666666865348816 0.6666666865348816 0
          0.5333333611488342 0.9333333373069763 0 0.6333333253860474 0.699999988079071 0
          0.5666666626930237 0.800000011920929 0 0.5333333611488342 0.8999999761581421 0
          0.6000000238418579 0.7333333492279053 0 0.5333333611488342 0.8666666746139526 0
          0.5666666626930237 0.7666666507720947 0 0.5333333611488342 0.8333333134651184 0
          0.6333333253860474 0.6666666865348816 0 0.5 1 0
          0.6000000238418579 0.699999988079071 0 0.5 0.9666666388511658 0
          0.5 0.9333333373069763 0 0.5333333611488342 0.800000011920929 0
          0.5666666626930237 0.7333333492279053 0 0.5 0.8999999761581421 0
          0.5 0.8666666746139526 0 0.6000000238418579 0.6666666865348816 0
          0.5333333611488342 0.7666666507720947 0 0.5666666626930237 0.699999988079071 0
          0.5 0.8333333134651184 0 0.46666666865348816 1 0
          0.46666666865348816 0.9666666388511658 0 0.46666666865348816 0.9333333373069763 0
          0.5333333611488342 0.7333333492279053 0 0.5 0.800000011920929 0
          0.46666666865348816 0.8999999761581421 0 0.5666666626930237 0.6666666865348816 0
          0.46666666865348816 0.8666666746139526 0 0.5 0.7666666507720947 0
          0.5333333611488342 0.699999988079071 0 0.46666666865348816 0.8333333134651184 0