<?xml version="1.0"?>
<VTKFile type="UnstructuredGrid" version="0.1" byte_order="LittleEndian" header_type="UInt32" compressor="vtkZLibDataCompressor">
  <UnstructuredGrid>
    <Piece NumberOfPoints="319" NumberOfCells="562">
      <PointData>
        <DataArray type="Float64" Name="Velocity" NumberOfComponents="3" format="ascii" RangeMin="0" RangeMax="1.0000000000000002">
          1.0000000000000002 0 0 0 0 0
          1.0000000000000002 0 0 0.15982483369587325 -0.0944470016007101 0
          0 0 0 1.0000000000000002 0 0
          -0.014020274974803628 -0.2130917734385817 0 0.317005352387799 -0.08252293462621463 0
          0.06447106107900513 -0.2156147679946815 0 0 0 0
          1.0000000000000002 0 0 0.44919756139840183 -0.05581540762289958 0
          -0.03130042025887399 -0.22986381941512482 0 0.17050703581490917 -0.1705362894439638 0
          -0.023162872858442 -0.2861183527376479 0 0 0 0
          1.0000000000000002 0 0 0.5498901680437779 -0.037389565613665035 0
          -0.021945985539885412 -0.2125114677590183 0 0.032057509802486214 -0.25953941181893564 0
          -0.03762160163227466 -0.2973808626356665 0 0.27325902534394325 -0.12740156223111043 0
          -0.024464445893565407 -0.3034843225345592 0 0.10557352787545503 -0.21393068888057534 0
          0 0 0 1.0000000000000002 0 0
          0.6225323690369914 -0.026528897876748406 0 -0.013985703628605843 -0.18768621022919077 0
          0.35930289858451586 -0.09568987944944728 0 -0.034987175669155775 -0.28354736711503986 0
          0.013479329651432946 -0.2732489739465098 0 0.1790527711631938 -0.17131797567345514 0
          -0.04328509395174526 -0.313871461052448 0 1.0000000000000002 0 0
          0.6749306644176004 -0.01960226469074831 0 -0.031104097641084613 -0.2624422557160545 0
          0.42796357250367845 -0.07295982070393713 0 0.06310701889072966 -0.23284433989495745 0
          -0.03274311649739456 -0.3039053722335441 0 -0.04855258539843933 -0.3068379946693409 0
          0.24478257414911953 -0.13623015095900576 0 1.0000000000000002 0 0
          -0.0069872820332299 -0.2738881611633212 0 0.7136631845206589 -0.014699812546065167 0
          -0.05428199371298475 -0.3132308166796216 0 0.11493325472328493 -0.19326965996145307 0
          0.48253016442861646 -0.05609396569754018 0 0.3011414309581135 -0.10799154747891353 0
          -0.04692484193307578 -0.2956243628986059 0 0.02713079970318629 -0.2369336509643337 0
          1.0000000000000002 0 0 0.7428555529777343 -0.011076421313725852 0
          0.16388089287634583 -0.15803296104966755 0 0.525949714183831 -0.04320262621569351 0
          -0.02943452840124519 -0.26544256279845374 0 0.348406806827354 -0.08519359023177099 0
          0.06387772548540481 -0.19977233551442156 0 0.20759643727429508 -0.1276580419818146 0
          1.0000000000000002 0 0 0.7649962977581111 -0.0083562896412357 0
          -0.006124305565392609 -0.23043069268624358 0 0.5602671155744408 -0.03315036705732533 0
          -0.06425414862240907 -0.27984595476990226 0 0.09946700113315572 -0.1651880931304017 0
          0.38722547563107085 -0.0666089745315833 0 0.24509931880026112 -0.10166376494679503 0
          -0.05323010352520979 -0.24942939693162577 0 0.019228148017900605 -0.19490757469011225 0
          1.0000000000000002 0 0 0.7817169943822149 -0.006268538942037431 0
          0.5869929012370627 -0.025140430466953297 0 0.13169355252892326 -0.13394780382482613 0
          0.41833911487013536 -0.05122627778835165 0 -0.08368167688175482 -0.25778795159261014 0
          -0.03827196338625669 -0.21552953694467833 0 0.276131528061127 -0.07929060482251932 0
          0.04392828618445787 -0.16085881683291242 0 1.0000000000000002 0 0
          0.7941511392151497 -0.004610579905799067 0 0.15940367659368035 -0.10592854128112122 0
          0.6073061106891706 -0.01857347691836082 0 -0.07800073997887157 -0.22710223182813777 0
          -0.021874361890176476 -0.18092245887000916 0 0.44249409945607887 -0.038212798474205154 0
          0.06625912000148443 -0.1289613693282842 0 0.3008010798760231 -0.05975598728639324 0
          1.0000000000000002 0 0 -0.06957158423571419 -0.19368947559335847 0
          -0.10428298078399226 -0.2306435872648048 0 0.8030822585780127 -0.003239285981211727 0
          0.18206565936289035 -0.08066475660162233 0 0.6221000673716602 -0.012999485845542304 0
          -0.005905934237828279 -0.14699862142250472 0 0.460345496221337 -0.02689241833033551 0
          0.08519514969735542 -0.09924025940528418 0 0.31935274084175014 -0.04234094514765233 0
          -0.10280759332527853 -0.1995624310218524 0 -0.06007230363128607 -0.15940258489132664 0
          0.19947674665575604 -0.057583721207105414 0 1.0000000000000002 0 0
          0.8090323891410443 -0.0020539623372792296 0 0.00834381897696521 -0.11431480807926091 0
          0.6320083733783203 -0.008078561183507424 0 0.47240183476210273 -0.016716840994792124 0
          0.10014765839611256 -0.0714147978765786 0 -0.09926679737391468 -0.16621455668337473 0
          -0.12477453100348063 -0.19946575043118595 0 0.33204074391347305 -0.026408597420141327 0
          -0.05081707468245367 -0.1252464135867129 0 0.020026614227959757 -0.08295809068202117 0
          0.21159313771633373 -0.03609835999362155 0 1.0000000000000002 0 0
          0.8123267155630002 -0.000979411527241476 0 -0.12632746933723557 -0.16795216836886775 0
          0.6374406035972041 -0.003542719547178214 0 -0.094815155756419 -0.13189733071064008 0
          0.11079594831239511 -0.04506683016534881 0 0.4790131450851809 -0.007229204266216473 0
          -0.04276084923112095 -0.09167260067421214 0 0.3390720034152733 -0.01139347029787157 0
          0.028611699541765435 -0.052759199236927935 0 0.21844207908807922 -0.015639680220716382 0
          -0.12615732140816321 -0.1345143953772188 0 1.0000000000000002 0 0
          -0.0903736803129414 -0.09735977860774528 0 0.8131353819226704 0.00004631154460388417 0
          0.6386133885230115 0.0008359160484747604 0 0.1169885234045978 -0.01972279001097016 0
          -0.03655292956341878 -0.058791514809215635 0 0.48037658174256015 0.0019717839976203513 0
          0.3405843442722572 0.0032196438011205565 0 -0.12505093605510081 -0.1000999987624601 0
          0.03379891298204093 -0.023415863939316144 0 -0.08661578356895755 -0.06297523759540387 0
          0.2200780699587063 0.004336069097182009 0 1.0000000000000002 0 0
          0.8114942671897926 0.001080721003086268 0 0.6355681812634868 0.0052703946361707145 0
          -0.03259321489241638 -0.026515434389249342 0 0.11868696029656146 0.005104642253252218 0
          0.4765441822902106 0.011263367285154525 0 -0.12362715391397952 -0.06529472351194579 0
          0.3366410307374336 0.01791853874481283 0 0.03546227030086512 0.005433097653033848 0
          -0.08398472231531269 -0.028879220089830418 0 0.21656419525209544 0.02435016912237876 0
          1.0000000000000002 0 0 -0.031077120173847953 0.005344827872049061 0
          0.8073081698473474 0.002184619720126053 0 0.11593735672642813 0.029893731048764468 0
          0.6281756509906773 0.009980943688497992 0 -0.12231972312189317 -0.030436535120356854 0
          0.4674296219766527 0.021026581517581463 0 0.3272365745576323 0.03318455462938452 0
          0.03361714032522704 0.034159581623155695 0 -0.08271873224243942 0.004926150663547694 0
          0.20797283465579575 0.04490590608639885 0 -0.03202569935853351 0.03701140403193606 0
          1.0000000000000002 0 0 0.8003377183976699 0.0034306049338995643 0
          0.10886403526555943 0.05509716067547769 0 -0.12138055119150773 0.004286474720288749 0
          0.6161287285088365 0.015216964924098733 0 0.45281560743775207 0.03167213339087892 0
          -0.08287306243225048 0.038492439897711415 0 0.028408109532219766 0.06310890112709983 0
          0.3123139748829491 0.04950983616473561 0 0.19440433545977762 0.06648908386820811 0
          -0.035301183459183164 0.06868535194116306 0 -0.12089021086737878 0.03875475870687972 0
          0.09768315856080159 0.08112308984040188 0 1.0000000000000002 0 0
          0.7901683176294654 0.004915045428983817 0 0.5989280239308401 0.02128163622402836 0
          -0.08433483106683476 0.0718595026113 0 0.4323677434192052 0.04366443522577519 0
          0.020114641508817553 0.09256277275029307 0 0.29179734473177454 0.06740773898443456 0
          0.17602442793616366 0.08955831029444625 0 -0.040608871433090825 0.10049510314045365 0
          -0.12076892819066463 0.07284748441545337 0 0.08273452392056112 0.10830520493207857 0
          1.0000000000000002 0 0 0.7761521019348527 0.006780698658501188 0
          0.5758664310832792 0.02856442632424756 0 -0.08682999165227791 0.10499447057281686 0
          0.4056698239527006 0.057542035545645624 0 0.00917171618316775 0.12269267661678498 0
          0.2656531467146993 0.08740911658679072 0 -0.12078586431891761 0.10637754600050763 0
          0.15312767875453748 0.114515201961867 0 -0.04748833814245221 0.13243802955249462 0
          0.06453304409974946 0.13685112862381799 0 1.0000000000000002 0 0
          -0.08992493843139175 0.1377270061099208 0 0.7572946030733132 0.009266629967487958 0
          0.5460118796021279 0.03759769727603726 0 -0.0037965197244709307 0.15349322703024723 0
          0.3722977472198388 0.07393527785094098 0 0.23400054237947537 0.11003182534368418 0
          -0.12056805216932458 0.1390254104255022 0 -0.05529817403981067 0.1643061667123961 0
          0.12624167719089072 0.14163660900451439 0 0.043846740512799576 0.1667518898440441 0
          -0.0930270733268167 0.16967354792628475 0 1.0000000000000002 0 0
          0.7320639122856479 0.012801219853142266 0 0.5081707665329955 0.04915720661520202 0
          -0.017929461371558132 0.18468138690925504 0 0.3319171035954029 0.0935850918201742 0
          -0.11961271405893391 0.1702666109979094 0 0.19726083001852104 0.13570653708016897 0
          -0.06319691964817006 0.19558497121223403 0 0.09626426056670685 0.17094114416216127 0
          0.021793098463281178 0.1976250542917276 0 -0.09538841466815962 0.2001426397739759 0
          1.0000000000000002 0 0 0.6982680851319107 0.018068811449657912 0
          -0.03207837520910157 0.21554000425725203 0 0.4609081931730913 0.06432497642338549 0
          0.2843745617061939 0.1173063470892732 0 -0.11730709313590783 0.19928794749218 0
          0.15626647932180524 0.1646173306140395 0 -0.07012920056171938 0.2253104958202979 0
          0.06454954193185415 0.20195420771995715 0 -0.09611968010860296 0.2280125188196292 0
          -0.00011798896559441593 0.22846305416873045 0 1.0000000000000002 0 0
          0.6533685691927437 0.025702676761009208 0 -0.044807264802275155 0.24468732025126255 0
          0.4030578584689296 0.0840738109747015 0 -0.1129609002293923 0.22488801187472524 0
          0.23000258652162556 0.1455776663431293 0 0.11236352079492198 0.19629476396124715 0
          -0.07486022013638644 0.2518764347771549 0 0.03288732189674316 0.23330895529697326 0
          -0.12289329817256572 0.21717054247029832 0 -0.09424564753205102 0.251579645672872 0
          -0.02007468558236288 0.25727431279180674 0 1.0000000000000002 0 0
          -0.05452442449147664 0.26978431082181953 0 0.5944856949222059 0.035106263795016954 0
          -0.10587145301420545 0.24536515323219965 0 0.33507443457913894 0.10767821263629757 0
          0.17080600979342353 0.17715568413933355 0 -0.07612748336678057 0.2728146012942274 0
          0.06810276028778305 0.22861964821166963 0 0.0038040587528605694 0.2620529599109175 0
          -0.11186424599746828 0.23467155280142893 0 -0.08885993259651635 0.2684060580700892 0
          -0.035901517576692285 0.28059846704500313 0 -0.11378639290977571 0.22074978202992165 0
          -0.05956195801117682 0.28720672357383153 0 -0.09546917382877862 0.2584204068247348 0
          1.0000000000000002 0 0 0.5137162065862991 0.04357342274533665 0
          0.2589685698177169 0.13090094749485517 0 0.11203435474734978 0.207090974681943 0
          -0.07280164143764291 0.2845907675165996 0 0.028928412308614225 0.2563086197780562 0
          -0.09785326251063399 0.24443927269441174 0 -0.01815223988837653 0.28261352815803725 0
          -0.0793260552644545 0.2752099578815191 0 -0.04420532874095396 0.29280591656040605 0
          -0.0973355724145033 0.2277582194585653 0 -0.08153017885294778 0.26111668947633804 0
          -0.05766082107971135 0.2915803212689877 0 1.0000000000000002 0 0
          0.39440627723751254 0.05339517173602488 0 0.17136433557109368 0.1467702456375358 0
          0.05833072966343639 0.22661071226049598 0 -0.06362047191232413 0.282321030854924 0
          0.0015729611973489285 0.27050833806217434 0 -0.09484578847705859 0.20941405482638664 0
          -0.08096095710470814 0.24392141617649726 0 -0.027176567788364782 0.2860186021634249 0
          -0.06518613012918308 0.2677217458043633 0 -0.04084224548844719 0.28514855199714734 0
          -0.0786309655728262 0.2248553084291389 0 -0.06420017423893343 0.24983652667266118 0
          -0.04624081958378617 0.2749179674271518 0 -0.047291549276269176 0.25911941560463575 0
          -0.0752090919645325 0.2048482764837891 0 -0.06175831779608856 0.23013356585322717 0
          -0.046134444699343226 0.24025341460653107 0 -0.05852451306146567 0.20963610762404963 0
          -0.04387426114323749 0.22003687397251268 0 -0.05490299986484691 0.189056143201148 0
          -0.04109941898428609 0.1995523005322577 0 -0.03814412403419858 0.17944263748075798 0
          -0.035196744413809426 0.1600878180193534 0 -0.14898300078741988 0.0035343207152210253 0
          -0.14800894174908247 0.03800507719316731 0 -0.1495535953170747 -0.031180105780002017 0
          -0.1496271134028872 -0.06586330816790416 0 -0.14896454576719173 -0.10016497609415914 0
          -0.14718276278948514 -0.13358463940259993 0 -0.14376950788543585 -0.16538973976335541 0
          -0.13812281477939423 -0.19453236460804083 0 -0.12060278818796455 -0.22762699139968123 0
          -0.10239485530544089 -0.25742245509538025 0 -0.08471534490892209 -0.2827032203480993 0
          -0.06849378553913786 -0.3019952932384159 0 -0.06360393777940548 -0.3088034237924469 0
          -0.049163112777767616 -0.2913934920463167 0 -0.028160705483374498 -0.24017619261405743 0
          -0.010026608181019778 -0.16505919907359676 0 0 0 0
          -0.1127909095624146 0.20465014845526236 0 -0.09103935888406725 0.1902194073401216 0
          -0.12764073217291072 0.20599471366641886 0 -0.13121569239507322 0.19403016833460437 0
          -0.13727670734460878 0.16687988046388622 0 -0.14156273672039482 0.13693821200379788 0
          -0.14453464904262078 0.10509031964026902 0 -0.14658515284824658 0.07196490395567036 0
          -0.05113574329087091 0.16888617099857814 0 -0.03235404616964065 0.1417122319755769 0
          -0.07113739671051701 0.18459303683063355 0
          <InformationKey name="L2_NORM_RANGE" location="vtkDataArray" length="2">
            <Value index="0">
              0
            </Value>
            <Value index="1">
              1
            </Value>
          </InformationKey>
        </DataArray>
        <DataArray type="Float64" Name="Pressure" format="ascii" RangeMin="53.2415250957691" RangeMax="125.5407047656027">
          125.5407047656027 120.62452204296714 103.09280601601725 105.18484824815535 103.7347873546447 87.00109082083972
          96.6451445747617 90.96656920771777 88.56995312262302 89.73908767931196 78.9670318918615 82.72323123027377
          87.01729824731517 82.67998064213778 84.1331116832525 81.88642810413992 75.43083441193895 78.60108900292317
          81.22042330150734 81.08871793148234 80.56102918452675 79.16393333184546 79.39090399075177 78.57543956774823
          77.91344207502557 73.59801868989186 76.18837243148113 78.19832743027428 76.86076444517114 78.20413923582032
          77.79287842903655 76.5951944537618 77.76498863921276 72.39017611485072 74.45574915125226 76.49507857019664
          75.11154421609284 76.18380184612263 76.8129929536695 76.25871291877849 75.00090056501975 71.52850231045086
          75.6212694879749 73.14767808134546 75.67327865148924 74.77408908435983 73.74231062003948 73.73122360433534
          74.86536185835052 74.46264092488519 70.91398930698134 72.1712381471217 73.61941711472252 72.68559990022041
          73.9989793971861 72.7326314900241 73.45659041065551 72.691450249757 70.46884062620003 71.43560796214437
          73.18172202417571 71.8634814265706 73.43819231039103 72.61268120411118 71.93509874182249 71.9316918023108
          72.81198751145011 72.4498005828572 70.13350123259585 70.86275676645774 71.20458158475634 71.89790492322516
          71.27773007620584 72.40243304818539 72.20627162290373 71.289837070075 71.8002406116873 69.87035313318398
          70.39940432859332 71.27838422959013 70.65855913199962 71.9163423375142 71.63837914544703 70.71918078484713
          71.21961056673128 70.73279557934832 69.65694093956675 71.43492213262891 71.6098001128352 70.01111402540215
          70.73036335118879 70.19152837554411 71.11216811306069 70.23139560496924 70.69514955660706 70.2379115379564
          71.21048433498213 70.97147946613028 70.23639686605485 69.47893684351632 69.67387337864835 70.62524794944784
          69.77848559030973 69.79256287112946 70.21523368429959 70.81155354691842 70.979814218838 69.78666802515647
          70.53095187554298 70.17195155693962 69.78120959628927 69.32640147240714 69.36917041351848 70.64238834235215
          69.39904087236155 70.4214654581024 69.76829917920139 69.38394527541381 70.11281375247485 69.36247494409417
          69.74475355636729 69.35057716676886 70.30306352529864 69.19215303691576 70.0433256047092 69.08149816572835
          69.0352990350085 69.34298056668423 69.71344585803475 68.98860039702969 68.95010176992861 69.96690257766564
          69.33548400066711 69.67684053766797 68.9313107298925 69.07092451598275 68.79664894033563 68.67026951119627
          69.32786669145355 68.9285497841303 68.59030974763809 69.63603459824802 68.53507088631166 68.93612512760991
          69.31991124773661 68.51100290777585 68.95882243528916 68.95074382487732 68.50011676453634 68.51494143610975
          68.28627561841684 69.31070020210878 68.17243454034741 68.10289733992369 68.5390571536141 68.96965172003594
          68.07754574344403 68.57681428279166 68.85298097352526 68.17533711671798 68.0925109832047 68.99008151300627
          67.86321724901013 67.71683172384358 68.62292493421052 68.13703969606992 67.6385161587032 67.61882810901294
          68.20104222737335 68.67285878109952 67.65190167255939 68.75130679209074 67.80148382643483 67.37625802000751
          68.27663584839858 67.20251314876614 67.7232290033206 67.1258296823707 67.12273887451849 67.81877709998022
          68.35758822306437 67.18421402647765 68.65210132377238 67.35100935072364 66.79253765539941 67.92799291966763
          66.6030012387511 67.2914157426805 66.54621385907448 68.04302382134793 66.57662909768578 67.42605201652617
          66.68101107236525 68.5512272871279 67.5748550858961 66.78776206182533 66.06896933873975 66.83627558927961
          65.88321856904636 65.87522984284881 67.72848412301745 67.01994656981869 65.96485406513224 66.13294825858327
          67.21616438358132 68.4223198087996 66.05849080518689 65.1553986993891 66.35279092647575 65.00466406567828
          67.41432510974094 65.08461163116955 66.59846743858925 65.26838941823827 65.52894045120654 66.85209492580739
          68.14816680479495 65.04024899233426 65.83571058158333 63.98881630980261 63.94692473109956 67.10226207260077
          64.1663499251 66.16024312250285 64.48221467808308 66.48381993064943 64.86744372010499 67.45267832390648
          63.41640572020842 65.2869740322684 62.41814658613006 66.79514591317964 62.70030464832232 63.159573677098216
          65.70933154598318 63.64694021052888 67.08720053044453 66.11628880172307 64.18235107949918 66.25729360420804
          64.7353653409237 60.759274224644344 66.49815783915282 60.07793337820412 61.11528261674382 65.27001697288343
          62.04640638882651 62.78590091316442 66.84941542215167 65.76916667091805 63.504991633001865 67.16714464950181
          64.21452495196687 66.22660800580769 66.01949862047266 57.63759552415381 56.68604123770968 58.72913446364637
          64.87661531708548 60.44400548037457 66.63965463371366 61.61819947314043 65.47536523184381 62.63639384750756
          67.00746798528287 66.01051702823327 63.59294316536891 69.70458471369766 57.040481969373886 53.2415250957691
          55.31810908325247 64.45257589456651 57.74557057345873 67.33086595145349 66.48447468332961 59.54616711773347
          65.20012074653553 61.08373317247382 66.89974129501661 65.84484532540296 62.48770975648704 63.714647684593906
          67.25963720707139 66.39898429138611 64.74511626946874 66.87215542165272 65.59907799343536 67.27289707902996
          66.30418095901156 66.88371119956092 67.35712922535798 69.00989957707061 68.72309525442712 69.29962963040305
          69.59213701060737 69.88664087075749 70.18124019225463 70.4723701181819 70.75434715834162 71.30630824216307
          71.99403409703882 72.86929357531436 74.04475427441926 74.57029947850346 74.95140617161357 75.11220392787705
          76.31658612368174 75.6405961341976 67.45037432046922 67.61188379647079 67.35570921801533 67.34144908893043
          67.60708077948767 67.88018733654687 68.15800292804374 68.43912693774959 67.60951869804325 67.74139377718507
          67.56833325058065
        </DataArray>
      </PointData>
      <CellData>
        <DataArray type="UInt8" Name="vtkGhostType" format="ascii" RangeMin="0" RangeMax="0">
          0 0 0 0 0 0
          0 0 0 0 0 0
          0 0 0 0 0 0
          0 0 0 0 0 0
          0 0 0 0 0 0
          0 0 0 0 0 0
          0 0 0 0 0 0
          0 0 0 0 0 0
          0 0 0 0 0 0
          0 0 0 0 0 0
          0 0 0 0 0 0
          0 0 0 0 0 0
          0 0 0 0 0 0
          0 0 0 0 0 0
          0 0 0 0 0 0
          0 0 0 0 0 0
          0 0 0 0 0 0
          0 0 0 0 0 0
          0 0 0 0 0 0
          0 0 0 0 0 0
          0 0 0 0 0 0
          0 0 0 0 0 0
          0 0 0 0 0 0
          0 0 0 0 0 0
          0 0 0 0 0 0
          0 0 0 0 0 0
          0 0 0 0 0 0
          0 0 0 0 0 0
          0 0 0 0 0 0
          0 0 0 0 0 0
          0 0 0 0 0 0
          0 0 0 0 0 0
          0 0 0 0 0 0
          0 0 0 0 0 0
          0 0 0 0 0 0
          0 0 0 0 0 0
          0 0 0 0 0 0
          0 0 0 0 0 0
          0 0 0 0 0 0
          0 0 0 0 0 0
          0 0 0 0 0 0
          0 0 0 0 0 0
          0 0 0 0 0 0
          0 0 0 0 0 0
          0 0 0 0 0 0
          0 0 0 0 0 0
          0 0 0 0 0 0
          0 0 0 0 0 0
          0 0 0 0 0 0
          0 0 0 0 0 0
          0 0 0 0 0 0
          0 0 0 0 0 0
          0 0 0 0 0 0
          0 0 0 0 0 0
          0 0 0 0 0 0
          0 0 0 0 0 0
          0 0 0 0 0 0
          0 0 0 0 0 0
          0 0 0 0 0 0
          0 0 0 0 0 0
          0 0 0 0 0 0
          0 0 0 0 0 0
          0 0 0 0 0 0
          0 0 0 0 0 0
          0 0 0 0 0 0
          0 0 0 0 0 0
          0 0 0 0 0 0
          0 0 0 0 0 0
          0 0 0 0 0 0
          0 0 0 0 0 0
          0 0 0 0 0 0
          0 0 0 0 0 0
          0 0 0 0 0 0
          0 0 0 0 0 0
          0 0 0 0 0 0
          0 0 0 0 0 0
          0 0 0 0 0 0
          0 0 0 0 0 0
          0 0 0 0 0 0
          0 0 0 0 0 0
          0 0 0 0 0 0
          0 0 0 0 0 0
          0 0 0 0 0 0
          0 0 0 0 0 0
          0 0 0 0 0 0
          0 0 0 0 0 0
          0 0 0 0 0 0
          0 0 0 0 0 0
          0 0 0 0 0 0
          0 0 0 0 0 0
          0 0 0 0 0 0
          0 0 0 0 0 0
          0 0 0 0 0 0
          0 0 0 0
        </DataArray>
      </CellData>
      <Points>
        <DataArray type="Float32" Name="Points" NumberOfComponents="3" format="ascii" RangeMin="0.5426273808170171" RangeMax="1.4142135623730951">
          1 1 0 1 0.9666666388511658 0
          0.9666666388511658 1 0 0.9666666388511658 0.9666666388511658 0
          1 0.9333333373069763 0 0.9333333373069763 1 0
          0.9666666388511658 0.9333333373069763 0 0.9333333373069763 0.9666666388511658 0
          0.9333333373069763 0.9333333373069763 0 1 0.8999999761581421 0
          0.8999999761581421 1 0 0.8999999761581421 0.9666666388511658 0
          0.9666666388511658 0.8999999761581421 0 0.8999999761581421 0.9333333373069763 0
          0.9333333373069763 0.8999999761581421 0 1 0.8666666746139526 0
          0.8666666746139526 1 0 0.8666666746139526 0.9666666388511658 0
          0.9666666388511658 0.8666666746139526 0 0.8999999761581421 0.8999999761581421 0
          0.9333333373069763 0.8666666746139526 0 0.8666666746139526 0.9333333373069763 0
          0.8999999761581421 0.8666666746139526 0 0.8666666746139526 0.8999999761581421 0
          1 0.8333333134651184 0 0.8333333134651184 1 0
          0.8333333134651184 0.9666666388511658 0 0.9666666388511658 0.8333333134651184 0
          0.8333333134651184 0.9333333373069763 0 0.9333333373069763 0.8333333134651184 0
          0.8666666746139526 0.8666666746139526 0 0.8333333134651184 0.8999999761581421 0
          0.8999999761581421 0.8333333134651184 0 0.800000011920929 1 0
          0.800000011920929 0.9666666388511658 0 0.9333333373069763 0.800000011920929 0
          0.800000011920929 0.9333333373069763 0 0.8333333134651184 0.8666666746139526 0
          0.8666666746139526 0.8333333134651184 0 0.8999999761581421 0.800000011920929 0
          0.800000011920929 0.8999999761581421 0 0.7666666507720947 1 0
          0.8333333134651184 0.8333333134651184 0 0.7666666507720947 0.9666666388511658 0
          0.8666666746139526 0.800000011920929 0 0.800000011920929 0.8666666746139526 0
          0.7666666507720947 0.9333333373069763 0 0.7666666507720947 0.8999999761581421 0
          0.8333333134651184 0.800000011920929 0 0.800000011920929 0.8333333134651184 0
          0.7333333492279053 1 0 0.7333333492279053 0.9666666388511658 0
          0.7666666507720947 0.8666666746139526 0 0.7333333492279053 0.9333333373069763 0
          0.800000011920929 0.800000011920929 0 0.7333333492279053 0.8999999761581421 0
          0.7666666507720947 0.8333333134651184 0 0.7333333492279053 0.8666666746139526 0
          0.699999988079071 1 0 0.699999988079071 0.9666666388511658 0
          0.7666666507720947 0.800000011920929 0 0.699999988079071 0.9333333373069763 0
          0.800000011920929 0.7666666507720947 0 0.7333333492279053 0.8333333134651184 0
          0.699999988079071 0.8999999761581421 0 0.699999988079071 0.8666666746139526 0
          0.7666666507720947 0.7666666507720947 0 0.7333333492279053 0.800000011920929 0
          0.6666666865348816 1 0 0.6666666865348816 0.9666666388511658 0
          0.6666666865348816 0.9333333373069763 0 0.699999988079071 0.8333333134651184 0
          0.6666666865348816 0.8999999761581421 0 0.7666666507720947 0.7333333492279053 0
          0.7333333492279053 0.7666666507720947 0 0.6666666865348816 0.8666666746139526 0
          0.699999988079071 0.800000011920929 0 0.6333333253860474 1 0
          0.6333333253860474 0.9666666388511658 0 0.6666666865348816 0.8333333134651184 0
          0.6333333253860474 0.9333333373069763 0 0.7333333492279053 0.7333333492279053 0
          0.699999988079071 0.7666666507720947 0 0.6333333253860474 0.8999999761581421 0
          0.6666666865348816 0.800000011920929 0 0.6333333253860474 0.8666666746139526 0
          0.6000000238418579 1 0 0.699999988079071 0.7333333492279053 0
          0.7333333492279053 0.699999988079071 0 0.6000000238418579 0.9666666388511658 0
          0.6333333253860474 0.8333333134651184 0 0.6000000238418579 0.9333333373069763 0
          0.6666666865348816 0.7666666507720947 0 0.6000000238418579 0.8999999761581421 0
          0.6333333253860474 0.800000011920929 0 0.6000000238418579 0.8666666746139526 0
          0.699999988079071 0.699999988079071 0 0.6666666865348816 0.7333333492279053 0
          0.6000000238418579 0.8333333134651184 0 0.5666666626930237 1 0
          0.5666666626930237 0.9666666388511658 0 0.6333333253860474 0.7666666507720947 0
          0.5666666626930237 0.9333333373069763 0 0.5666666626930237 0.8999999761581421 0
          0.6000000238418579 0.800000011920929 0 0.6666666865348816 0.699999988079071 0
          0.699999988079071 0.6666666865348816 0 0.5666666626930237 0.8666666746139526 0
          0.6333333253860474 0.7333333492279053 0 0.6000000238418579 0.7666666507720947 0
          0.5666666626930237 0.8333333134651184 0 0.5333333611488342 1 0
          0.5333333611488342 0.9666666388511658 0 0.6666666865348816 0.6666666865348816 0
          0.5333333611488342 0.9333333373069763 0 0.6333333253860474 0.699999988079071 0
          0.5666666626930237 0.800000011920929 0 0.5333333611488342 0.8999999761581421 0
          0.6000000238418579 0.7333333492279053 0 0.5333333611488342 0.8666666746139526 0
          0.5666666626930237 0.7666666507720947 0 0.5333333611488342 0.8333333134651184 0
          0.6333333253860474 0.6666666865348816 0 0.5 1 0
          0.6000000238418579 0.699999988079071 0 0.5 0.9666666388511658 0
          0.5 0.9333333373069763 0 0.5333333611488342 0.800000011920929 0
          0.5666666626930237 0.7333333492279053 0 0.5 0.8999999761581421 0
          0.5 0.8666666746139526 0 0.6000000238418579 0.6666666865348816 0
          0.5333333611488342 0.7666666507720947 0 0.5666666626930237 0.699999988079071 0
          0.5 0.8333333134651184 0 0.46666666865348816 1 0
          0.46666666865348816 0.9666666388511658 0 0.46666666865348816 0.9333333373069763 0
          0.5333333611488342 0.7333333492279053 0 0.5 0.800000011920929 0
          0.46666666865348816 0.8999999761581421 0 0.5666666626930237 0.6666666865348816 0
          0.46666666865348816 0.8666666746139526 0 0.5 0.7666666507720947 0
          0.5333333611488342 0.699999988079071 0 0.46666666865348816 0.8333333134651184 0
          0.4333333373069763 1 0 0.5 0.7333333492279053 0