<?xml version="1.0"?>
<VTKFile type="UnstructuredGrid" version="0.1" byte_order="LittleEndian" header_type="UInt32" compressor="vtkZLibDataCompressor">
  <UnstructuredGrid>
    <Piece NumberOfPoints="165" NumberOfCells="32">
      <PointData>
        <DataArray type="Float64" Name="nsi_BC" NumberOfComponents="3" format="ascii" RangeMin="0" RangeMax="0">
          0 0 0 0 0 0
          0 0 0 0 0 0
          0 0 0 0 0 0
          0 0 0 0 0 0
          0 0 0 0 0 0
          0 0 0 0 0 0
          0 0 0 0 0 0
          0 0 0 0 0 0
          0 0 0 0 0 0
          0 0 0 0 0 0
          0 0 0 0 0 0
          0 0 0 0 0 0
          0 0 0 0 0 0
          0 0 0 0 0 0
          0 0 0 0 0 0
          0 0 0 0 0 0
          0 0 0 0 0 0
          0 0 0 0 0 0
          0 0 0 0 0 0
          0 0 0 0 0 0
          0 0 0 0 0 0
          0 0 0 0 0 0
          0 0 0 0 0 0
          0 0 0 0 0 0
          0 0 0 0 0 0
          0 0 0 0 0 0
          0 0 0 0 0 0
          0 0 0 0 0 0
          0 0 0 0 0 0
          0 0 0 0 0 0
          0 0 0 0 0 0
          0 0 0 0 0 0
          0 0 0 0 0 0
          0 0 0 0 0 0
          0 0 0 0 0 0
          0 0 0 0 0 0
          0 0 0 0 0 0
          0 0 0 0 0 0
          0 0 0 0 0 0
          0 0 0 0 0 0
          0 0 0 0 0 0
          0 0 0 0 0 0
          0 0 0 0 0 0
          0 0 0 0 0 0
          0 0 0 0 0 0
          0 0 0 0 0 0
          0 0 0 0 0 0
          0 0 0 0 0 0
          0 0 0 0 0 0
          0 0 0 0 0 0
          0 0 0 0 0 0
          0 0 0 0 0 0
          0 0 0 0 0 0
          0 0 0 0 0 0
          0 0 0 0 0 0
          0 0 0 0 0 0
          0 0 0 0 0 0
          0 0 0 0 0 0
          0 0 0 0 0 0
          0 0 0 0 0 0
          0 0 0 0 0 0
          0 0 0 0 0 0
          0 0 0 0 0 0
          0 0 0 0 0 0
          0 0 0 0 0 0
          0 0 0 0 0 0
          0 0 0 0 0 0
          0 0 0 0 0 0
          0 0 0 0 0 0
          0 0 0 0 0 0
          0 0 0 0 0 0
          0 0 0 0 0 0
          0 0 0 0 0 0
          0 0 0 0 0 0
          0 0 0 0 0 0
          0 0 0 0 0 0
          0 0 0 0 0 0
          0 0 0 0 0 0
          0 0 0 0 0 0
          0 0 0 0 0 0
          0 0 0 0 0 0
          0 0 0 0 0 0
          0 0 0
          <InformationKey name="L2_NORM_RANGE" location="vtkDataArray" length="2">
            <Value index="0">
              0
            </Value>
            <Value index="1">
              0
            </Value>
          </InformationKey>
        </DataArray>
        <DataArray type="Float64" Name="nsi_FIXNO" NumberOfComponents="3" format="ascii" RangeMin="1.4142135623730951" RangeMax="1.4142135623730951">
          1 1 0 1 1 0
          1 1 0 -1 -1 0
          1 1 0 1 1 0
          -1 -1 0 -1 -1 0
          -1 -1 0 1 1 0
          1 1 0 -1 -1 0
          -1 -1 0 -1 -1 0
          -1 -1 0 1 1 0
          1 1 0 1 1 0
          -1 -1 0 -1 -1 0
          1 1 0 -1 -1 0
          1 1 0 1 1 0
          -1 -1 0 -1 -1 0
          -1 -1 0 1 1 0
          -1 -1 0 1 1 0
          -1 -1 0 -1 -1 0
          1 1 0 -1 -1 0
          1 1 0 -1 -1 0
          1 1 0 -1 -1 0
          -1 -1 0 1 1 0
          1 1 0 -1 -1 0
          -1 -1 0 -1 -1 0
          1 1 0 1 1 0
          -1 -1 0 -1 -1 0
          -1 -1 0 1 1 0
          1 1 0 -1 -1 0
          -1 -1 0 -1 -1 0
          1 1 0 1 1 0
          -1 -1 0 -1 -1 0
          -1 -1 0 1 1 0
          1 1 0 -1 -1 0
          -1 -1 0 -1 -1 0
          1 1 0 1 1 0
          -1 -1 0 -1 -1 0
          -1 -1 0 1 1 0
          1 1 0 -1 -1 0
          -1 -1 0 -1 -1 0
          1 1 0 1 1 0
          -1 -1 0 -1 -1 0
          -1 -1 0 1 1 0
          1 1 0 -1 -1 0
          -1 -1 0 -1 -1 0
          1 1 0 1 1 0
          -1 -1 0 -1 -1 0
          -1 -1 0 1 1 0
          1 1 0 -1 -1 0
          -1 -1 0 -1 -1 0
          1 1 0 1 1 0
          -1 -1 0 -1 -1 0
          -1 -1 0 1 1 0
          1 1 0 -1 -1 0
          -1 -1 0 -1 -1 0
          1 1 0 1 1 0
          -1 -1 0 -1 -1 0
          -1 -1 0 1 1 0
          1 1 0 -1 -1 0
          -1 -1 0 -1 -1 0
          1 1 0 1 1 0
          -1 -1 0 -1 -1 0
          -1 -1 0 1 1 0
          1 1 0 -1 -1 0
          -1 -1 0 -1 -1 0
          1 1 0 1 1 0
          -1 -1 0 -1 -1 0
          -1 -1 0 1 1 0
          -1 -1 0 1 1 0
          -1 -1 0 -1 -1 0
          1 1 0 1 1 0
          -1 -1 0 -1 -1 0
          -1 -1 0 1 1 0
          1 1 0 -1 -1 0
          -1 -1 0 -1 -1 0
          1 1 0 1 1 0
          -1 -1 0 -1 -1 0
          -1 -1 0 1 1 0
          1 1 0 -1 -1 0
          -1 -1 0 -1 -1 0
          1 1 0 1 1 0
          -1 -1 0 -1 -1 0
          -1 -1 0 1 1 0
          1 1 0 1 1 0
          1 1 0 1 1 0
          1 1 0
          <InformationKey name="L2_NORM_RANGE" location="vtkDataArray" length="2">
            <Value index="0">
              1.4142135624
            </Value>
            <Value index="1">
              1.4142135624
            </Value>
          </InformationKey>
        </DataArray>
        <DataArray type="Float64" Name="tem_BC" format="ascii" RangeMin="0" RangeMax="1">
          1 0 1 0 0 1
          0 0 0 0 1 0
          0 0 0 0 1 0
          0 0 0 0 0 1
          0 0 0 0 0 1
          0 0 0 0 1 0
          0 0 0 1 0 0
          0 0 0 1 0 0
          0 0 1 0 0 0
          0 1 0 0 0 0
          1 0 0 0 0 1
          0 0 0 0 1 0
          0 0 0 1 0 0
          0 0 1 0 0 0
          0 1 0 0 0 0
          1 0 0 0 0 1
          0 0 0 0 1 0
          0 0 0 1 0 0
          0 0 1 0 0 0
          0 1 0 0 0 0
          1 0 0 0 0 1
          0 0 0 0 0 1
          0 0 0 1 0 0
          0 0 1 0 0 0
          0 1 0 0 0 0
          1 0 0 0 0 1
          0 0 0 0 1 0
          0 0 0
        </DataArray>
        <DataArray type="Float64" Name="tem_FIXNO" format="ascii" RangeMin="-1" RangeMax="1">
          1 -1 1 -1 -1 1
          -1 -1 -1 -1 1 -1
          -1 -1 -1 1 1 1
          -1 -1 1 -1 1 1
          -1 -1 -1 1 -1 1
          -1 -1 1 -1 1 -1
          1 -1 -1 1 1 -1
          -1 -1 1 1 -1 -1
          -1 1 1 -1 -1 -1
          1 1 -1 -1 -1 1
          1 -1 -1 -1 1 1
          -1 -1 -1 1 1 -1
          -1 -1 1 1 -1 -1
          -1 1 1 -1 -1 -1
          1 1 -1 -1 -1 1
          1 -1 -1 -1 1 1
          -1 -1 -1 1 1 -1
          -1 -1 1 1 -1 -1
          -1 1 1 -1 -1 -1
          1 1 -1 -1 -1 1
          1 -1 -1 -1 1 1
          -1 -1 -1 1 -1 1
          -1 -1 1 1 -1 -1
          -1 1 1 -1 -1 -1
          1 1 -1 -1 -1 1
          1 -1 -1 -1 1 1
          -1 -1 -1 1 1 -1
          -1 -1 1
        </DataArray>
        <DataArray type="Float64" Name="Velocity" NumberOfComponents="3" format="ascii" RangeMin="0" RangeMax="6.278470204967621">
          0 0 0 0 0 0
          0 0 0 3.4895915939215523 -0.1997033953854465 0
          0 0 0 0 0 0
          0.06106205325738071 2.364522776067786 0 1.1565258981552566 -4.062462504262816 0
          -0.40251743164721887 -5.7264521350325595 0 0 0 0
          0 0 0 0.26922522166459584 2.4750842112133107 0
          -0.005390677456276977 -0.052171619351052446 0 -0.04172273633682366 -0.8595769574232239 0
          -0.07516649241707399 -5.543418481213606 0 0 0 0
          0 0 0 0 0 0
          0.02396597754900248 2.7849870201064597 0 -0.12378793403126459 -0.9962901487777632 0
          0 0 0 -0.38223516074205044 -5.8939715180061345 0
          0 0 0 0 0 0
          -0.14263718352902158 -1.0618989008131485 0 -0.01375007433514767 2.968631274023607 0
          -0.16221929921106615 -5.604483465307093 0 0 0 0
          -0.09099252472447308 -1.036757822761702 0 0 0 0
          -0.02311237169857311 2.9092665893278764 0 -0.14496224436673055 -5.712205083471167 0
          0 0 0 -0.06484612432514612 -0.9813977553545016 0
          0 0 0 -0.021927735570581943 2.9722175104526762 0
          0 0 0 -0.08863441103239689 -5.6033318364988345 0
          -0.03583731568146109 -0.9721660701193725 0 0 0 0
          0 0 0 -0.02135325530024986 2.9496755359721076 0
          -0.06984634230550527 -5.598556724134235 0 -0.018340792358477576 -0.9389727516072042 0
          0 0 0 0 0 0
          -0.013500380669250339 2.955865276664759 0 -0.0422775340483748 -5.533725647331024 0
          -0.0018407736022024452 -0.9487456338093233 0 0 0 0
          0 0 0 -0.0035233121155576236 2.967948192032551 0
          0.025856116797700997 -5.520445033473112 0 -0.0029411716112067174 -0.9794935152682385 0
          0 0 0 0 0 0
          0.0007609649451901519 2.9627124906345377 0 0.07594630070949714 -5.612034649280376 0
          -0.004382008109641502 -0.9679750256214839 0 0 0 0
          0 0 0 0.009608817438130034 2.9118939438243303 0
          0.032379832526628405 -5.671982353667801 0 0.01016682075714282 -0.9450636868079065 0
          0 0 0 0 0 0
          0.008076825150091404 2.9192454556941883 0 -0.0020854919794671464 -5.656130268108847 0
          0.005252920452946187 -0.9497375084022993 0 0 0 0
          0 0 0 0.001384816933719495 2.9302445749730954 0
          0.0002999652312385823 -5.644450587186536 0 -0.0020031497181926365 -0.9520560252333647 0
          0 0 0 0 0 0
          0.0018647820128411716 2.9183762990068884 0 0.003948208372388679 -5.645656703138015 0
          -0.0011491931877853107 -0.954143121540531 0 0 0 0
          0 0 0 0.002463312024394297 2.9217283785706294 0
          -0.003441941072348923 -5.656501852549347 0 0.0006468145501600057 -0.9470029812127013 0
          0 0 0 0 0 0
          0.0031702459675843632 2.9303793840714945 0 -0.007904722344807397 -5.639573018440564 0
          0.0035985717319701664 -0.9542195762854087 0 0 0 0
          0 0 0 0.004527551082335009 2.950232152878841 0
          0.017371733441230244 -5.645648673663732 0 -0.0022042100659334044 -0.9714610757377922 0
          0 0 0 0 0 0
          0.000772343257216035 2.971184677694004 0 0.020829482102251887 -5.684994129040184 0
          -0.0016968076552722354 -0.9623509069058875 0 0 0 0
          0 0 0 -0.002345940403279643 2.95763200406136 0
          0.004951241367048166 -5.682031454642856 0 0.005451427005026324 -0.9549255284716012 0
          0 0 0 0 0 0
          0.001071366151760292 2.9275611200940412 0 0.011177102527533213 -5.679807735630948 0
          0.0015585937053511497 -0.9593973167113761 0 0 0 0
          0 0 0 0.002210881490408884 2.929282181465655 0
          0.002260058061835619 -5.695872510407652 0 0.000019574927270508925 -0.954636684413226 0
          0 0 0 0 0 0
          -0.0009216285716209309 2.9368739522184097 0 -0.014942517011027034 -5.681943628474666 0
          0.0018265586170530628 -0.9571412970118196 0 0 0 0
          0 0 0 0.0010758843938943501 2.9691819674105857 0
          0.011601796829159013 -5.662733018425188 0 -0.012832190411022489 -0.9851501260727288 0
          0 0 0 0 0 0
          -0.007510689350355451 2.904897633845031 0 0.03518652416725756 -5.776067684204405 0
          -0.0349385117679972 -0.9521996160307858 0 0 0 0
          0.022568378320842703 2.9207129687293856 0 0 0 0
          -0.12155426661666226 -5.806054135943387 0 -0.04422178937687844 -0.8857023715825579 0
          0 0 0 0 0 0
          -0.039312995596071106 2.7790467211851095 0 -0.2095253486672903 -5.806273165953623 0
          -0.10769106331935561 -0.827561445911039 0 0 0 0
          0 0 0 0.18001056052908648 3.0569914051060776 0
          -0.6341881694399849 -5.736196454831337 0 -0.19369914002817692 -0.702169479276058 0
          0 0 0 0 0 0
          -0.25657794943384293 2.7230984184600913 0 -0.5125560602419675 -5.588732225232742 0
          -0.3223429627005083 -0.5669685506010881 0 0 0 0
          0 0 0 0.9305778794978433 2.9824251476642796 0
          -1.6075909345311215 -6.069171236822991 0 -0.58423610607178 -0.35645328575639196 0
          0 0 0 0 0 0
          -1.751495789230568 1.905689974407755 0 -2.0374455224324106 -2.748845239060664 0
          0.09223757932921746 -0.0005974390746620743 0 0 0 0
          0 0 0 0 0 0
          0 0 0 0 0 0
          0 0 0
          <InformationKey name="L2_NORM_RANGE" location="vtkDataArray" length="2">
            <Value index="0">
              0
            </Value>
            <Value index="1">
              6.278470205
            </Value>
          </InformationKey>
        </DataArray>
        <DataArray type="Float64" Name="Pressure" format="ascii" RangeMin="-4.921270916131926" RangeMax="78504.6015751314">
          0 -3.1845687709338155 2450.1080545035256 2458.340557881718 -4.809537767621556 4902.781312396441
          4920.060063517342 2466.5667477721063 4937.569553927024 -4.921270916131926 7355.7274211094755 7363.05450645805
          2457.5968143926016 4919.94362304061 7370.381823334927 -4.910654649403302 9809.043322694657 2448.751264197611
          9806.045795871058 7363.050714253653 4902.265555958508 9803.136382583352 7355.696891082081 12262.361499189217
          9806.124129239666 12261.566259065328 12260.781355670086 9809.063013468289 12261.617157029272 14715.747462352312
          14717.075033841782 14718.430075279066 12262.424017398449 14717.117677110813 17169.12911598316 17176.266093886257
          14715.791638042892 17183.425023867996 17176.29432084575 19622.518591129392 17169.164671901355 19635.465432424062
          19648.422968416606 19635.486118713972 19622.54447916208 22075.908983340065 22107.613296833617 22139.311725493062
          22107.62426618545 22075.92839014452 24529.309973930584 24579.75423753832 24630.194162363467 24579.75158960444
          24529.31085079779 26982.70784050203 27013.402112550226 27044.085151848773 27013.387354056245 26982.69014009671
          29436.087275084956 29447.035512907896 29457.97884381758 29447.02424434464 29436.070794014213 31889.46098254018
          31901.332808938234 31913.215438600357 31901.330266321518 31889.455102841563 34342.84044630822 34355.64586384294
          34368.45145266905 34355.64529679935 34342.83901909628 36796.22252911687 36822.75720809901 36849.291619818316
          36822.7563488075 36796.220421822836 39249.602298105114 39289.86694365052 39330.14219481357 39289.86733155431
          39249.60204777282 41702.9824461354 41751.61002490837 41800.238262468454 41751.610821783535 41702.98482504807
          44156.36725916716 44213.3554022486 44270.34096242462 44213.35317645209 44156.366086106296 46609.75174223219
          46635.20693416656 46660.66912064198 46635.20288977212 46609.746518570355 49063.13311364047 49057.06693347016
          49050.9997760069 49057.063562866315 49063.12801310193 51516.513562874345 51514.43203905889 51512.35881293881
          51514.429017610026 51516.50898357527 53969.89024381642 53971.80393177962 53973.70765222665 53971.80358735857
          53969.8893068177 56423.266366292366 56418.34231180926 56413.41925991912 56418.344770716234 56423.27201086811
          58876.65326483587 58864.885217327304 58853.115703939555 58864.885056427775 58876.65394523486 61330.03449799605
          61297.11548020858 61264.18167010558 61297.11636911552 61330.03395200105 63729.32443370774 63783.400970121256
          63675.26278700151 63729.35463463759 63783.42396389312 66236.74648829414 66196.68705986583 66156.64864956342
          66196.75815620505 66236.83103570939 68690.13770883581 68664.0168031655 68638.03489384502 68664.17229242476
          68690.26123742753 71143.45014232528 71129.43953204753 71115.49614869681 71129.65106406028 71143.73342065027
          73596.76405330835 73594.74360358345 73592.93665463557 73595.17397606332 73597.23857567743 76049.99503877436
          76049.00996798309 76048.56400834171 76049.74475750879 76050.77264892102 78500.0483509823 78503.14489308356
          78504.6015751314 78504.41515328675 78504.44597418801
        </DataArray>
        <DataArray type="Float64" Name="Temperature" format="ascii" RangeMin="-0.06190551943315904" RangeMax="1.1431391506786654">
          1 1.1431391506786654 1 0.6960169704761763 0.9749332066398957 1
          0.12164095442022674 0.8501517545540451 0.8031298423144048 0.10436455043550587 1 0.12093964642160074
          0.35946313783542894 0.3195559582225355 0.7440514230273891 0 1 0
          0.09991830628686882 0.23333834322821756 0 0.6994394683146922 0 1
          0.15091541211129886 0.0935359279840256 0.6643687408273499 0 0.08781879172606821 1
          0.08540718516535505 0.620806245103276 0 0.056100501595274105 1 0.0810378627604892
          0 0.5750124438649463 0.042184929321320855 1 0 0.07807685073552008
          0.5286597295941908 0.03951884914815124 0 1 0.07803090734683547 0.4821570771918251
          0.04741906863833524 0 1 0.07998450092222156 0.4358702874788278 0.0575925586173992
          0 1 0.07744562585611575 0.397128052180473 0.05267121783903158 0
          1 0.07202122519680472 0.3625953287505569 0.04880089419651704 0 1
          0.06892768652739525 0.3298656219755316 0.05042673580768678 0 1 0.06709146430481959
          0.3010484353774027 0.048947116768018446 0 1 0.06526727733313252 0.2747750902799947
          0.04619659087992741 0 1 0.06335485554869962 0.2508997658619716 0.04336618520022149
          0 1 0.06328130319899015 0.22780680446452395 0.04310304469699709 0
          1 0.06387946961209456 0.2061278619957408 0.042505472294671755 0 1
          0.0622309682735739 0.18882085401463722 0.038454893286211676 0 1 0.06049473360551369
          0.17328711281848527 0.034825800459673255 0 1 0.059004745570388484 0.1582303198591199
          0.03213392263527806 0 1 0.05708439456084355 0.14455948105222555 0.029378388105536047
          0 1 0.058082847603346796 0.13065858208347553 0.028716169778103377 0
          1 0.0599313392580335 0.11769114053360444 0.027545168340561484 0 1
          0.05467661632603606 0.11034269362542963 0.021027061569460798 0 0.046000625517093614 1
          0.10723002272107388 0.011783394771108522 0 1 0.04720516918704641 0.09978071510006867
          0.007885519984398456 0 1 0.0368817847916554 0.1017485913631541 -0.0072855439743520125
          0 1 0.04855169418167561 0.09763919352979955 -0.022366202446121135 0
          1 0.009866281913805522 0.07752417824517471 -0.01994034534183218 0 1
          0.03905270257097043 0.09758745078906216 -0.06190551943315904 0 1 0.4016814221564404
          -0.008391868372229957 -0.033920737589757624 0
        </DataArray>
      </PointData>
      <CellData>
        <DataArray type="UInt8" Name="vtkGhostType" format="ascii" RangeMin="0" RangeMax="0">
          0 0 0 0 0 0
          0 0 0 0 0 0
          0 0 0 0 0 0
          0 0 0 0 0 0
          0 0 0 0 0 0
          0 0
        </DataArray>
      </CellData>
      <Points>
        <DataArray type="Float32" Name="Points" NumberOfComponents="3" format="ascii" RangeMin="0" RangeMax="8.06225774829855">
          0 8 0 0.25 8 0
          0 7.75 0 0.2516412138938904 7.749100208282471 0
          0.5 8 0 0 7.5 0
          0.2532823085784912 7.498199939727783 0 0.5032823085784912 7.748199939727783 0
          0.5065646171569824 7.496399879455566 0 0.75 8 0
          0 7.25 0 0.25276580452919006 7.24924898147583 0
          0.7516412138938904 7.749100208282471 0 0.7532823085784912 7.498199939727783 0
          0.5055314898490906 7.248498916625977 0 1 8 0
          0 7 0 1 7.75 0
          0.25224921107292175 7.000298023223877 0 0.7527657747268677 7.24924898147583 0
          1 7.5 0 0.5044984221458435 7.00059700012207 0
          1 7.25 0 0 6.75 0
          0.7522491812705994 7.000298023223877 0 0.2514094114303589 6.7500810623168945 0
          0.5028188228607178 6.7501630783081055 0 1 7 0
          0.7514094114303589 6.7500810623168945 0 0 6.5 0
          0.250569611787796 6.499864101409912 0 0.501139223575592 6.499728202819824 0
          1 6.75 0 0.7505695819854736 6.499864101409912 0
          0 6.25 0 0.24966830015182495 6.24927282333374 0
          1 6.5 0 0.49933651089668274 6.248545169830322 0
          0.749668300151825 6.24927282333374 0 0 6 0
          1 6.25 0 0.24876689910888672 5.99868106842041 0
          0.49753379821777344 5.99736213684082 0 0.7487668991088867 5.99868106842041 0
          1 6 0 0 5.75 0
          0.24663250148296356 5.746769905090332 0 0.4932650029659271 5.7435407638549805 0
          0.7466325163841248 5.746769905090332 0 1 5.75 0
          0 5.5 0 0.2444981038570404 5.4948601722717285 0
          0.48899608850479126 5.489719867706299 0 0.744498074054718 5.4948601722717285 0
          1 5.5 0 0 5.25 0
          0.24734920263290405 5.2468719482421875 0 0.4946984052658081 5.243743896484375 0
          0.747349202632904 5.2468719482421875 0 1 5.25 0
          0 5 0 0.25020039081573486 4.998884201049805 0
          0.5004007816314697 4.997767925262451 0 0.7502003908157349 4.998884201049805 0
          1 5 0 0 4.75 0
          0.2502462863922119 4.7487897872924805 0 0.5004926919937134 4.747579097747803 0
          0.7502462863922119 4.7487897872924805 0 1 4.75 0
          0 4.5 0 0.2502923011779785 4.498694896697998 0
          0.500584602355957 4.497389793395996 0 0.7502923011779785 4.498694896697998 0
          1 4.5 0 0 4.25 0
          0.25063058733940125 4.24729585647583 0 0.5012611150741577 4.244592189788818 0
          0.7506306171417236 4.24729585647583 0 1 4.25 0
          0 4 0 0.2509688138961792 3.995897054672241 0
          0.5019376277923584 3.991792917251587 0 0.7509688138961792 3.995897054672241 0
          1 4 0 0 3.75 0
          0.2500407099723816 3.7450449466705322 0 0.500081479549408 3.7400898933410645 0
          0.7500407099723816 3.7450449466705322 0 1 3.75 0
          0 3.5 0 0.24911269545555115 3.4941930770874023 0
          0.4982253909111023 3.4883859157562256 0 0.7491127252578735 3.4941930770874023 0
          1 3.5 0 0 3.25 0
          0.24996420741081238 3.247406005859375 0 0.49992841482162476 3.2448110580444336 0
          0.74996417760849 3.247406005859375 0 1 3.25 0
          0 3 0 0.2508156895637512 3.0006179809570312 0
          0.501631498336792 3.0012359619140625 0 0.7508156895637512 3.0006179809570312 0
          1 3 0 0 2.75 0
          0.25134411454200745 2.7502119541168213 0 0.5026882886886597 2.750422954559326 0
          0.7513440847396851 2.7502119541168213 0 1 2.75 0
          0 2.5 0 0.25187259912490845 2.499804973602295 0
          0.5037450790405273 2.4996109008789062 0 0.7518725991249084 2.499804973602295 0
          1 2.5 0 0 2.25 0
          0.2508259117603302 2.250502109527588 0 0.5016518235206604 2.2510039806365967 0
          0.7508258819580078 2.250502109527588 0 1 2.25 0
          0 2 0 0.24977919459342957 2.0011990070343018 0
          0.49955838918685913 2.0023980140686035 0 0.749779224395752 2.0011990070343018 0
          1 2 0 0 1.75 0
          0.25333869457244873 1.7533539533615112 0 0.5066773295402527 1.7567089796066284 0
          0.7533386945724487 1.7533539533615112 0 1 1.75 0
          0.25689810514450073 1.5055090188980103 0 0 1.5 0
          0.5137962102890015 1.511018991470337 0 0.7568981051445007 1.5055090188980103 0
          1 1.5 0 0 1.25 0
          0.25599539279937744 1.2540819644927979 0 0.5119907855987549 1.2581650018692017 0
          0.7559953927993774 1.2540819644927979 0 1 1.25 0
          0 1 0 0.25509271025657654 1.0026559829711914 0
          0.5101853013038635 1.0053110122680664 0 0.7550926804542542 1.0026559829711914 0
          1 1 0 0 0.75 0
          0.25327691435813904 0.7514302134513855 0 0.5065537095069885 0.752860426902771 0
          0.7532768845558167 0.7514302134513855 0 1 0.75 0
          0 0.5 0 0.25146108865737915 0.5002049207687378 0
          0.5029221773147583 0.5004099011421204 0 0.7514610886573792 0.5002049207687378 0
          1 0.5 0 0 0.25 0
          0.2507305145263672 0.2501024901866913 0 0.5014610886573792 0.2502048909664154 0
          0.7507305145263672 0.2501024901866913 0 1 0.25 0
          0 0 0 0.25 0 0
          0.5 0 0 0.75 0 0
          1 0 0
          <InformationKey name="L2_NORM_RANGE" location="vtkDataArray" length="2">
            <Value index="0">
              0
            </Value>
            <Value index="1">
              8.0622577483
            </Value>
          </InformationKey>
        </DataArray>
      </Points>
      <Cells>
        <DataArray type="Int64" Name="connectivity" format="ascii" RangeMin="0" RangeMax="164">
          20 15 4 8 17 9
          7 13 12 4 0 5
          8 1 2 6 7 3
          5 16 21 8 10 18
          14 6 11 20 8 21
          27 13 14 24 22 19
          36 27 21 31 32 24
          26 33 28 21 16 29
          31 18 23 30 26 25
          150 160 162 152 155 161
          157 151 156 162 164 154
          152 163 159 153 157 158
          44 36 31 42 40 33
          37 43 38 31 29 39
          42 30 34 41 37 35
          140 150 152 142 145 151
          147 141 146 152 154 144
          142 153 149 143 147 148
          39 50 52 42 45 51
          47 41 46 44 42 52
          54 43 47 53 49 48
          64 54 52 62 59 53
          57 63 58 52 50 60
          62 51 55 61 57 56
          131 140 142 132 135 141
          137 130 136 142 144 134
          132 143 139 133 137 138
          74 64 62 72 69 63
          67 73 68 62 60 70
          72 61 65 71 67 66
          120 131 132 122 125 130
          127 121 126 132 134 124
          122 133 129 123 127 128
          110 120 122 112 115 121
          117 111 116 122 124 114
          112 123 119 113 117 118
          114 104 102 112 109 103
          107 113 108 110 112 102
          100 111 107 101 105 106
          90 100 102 92 95 101
          97 91 96 102 104 94
          92 103 99 93 97 98
          80 90 92 82 85 91
          87 81 86 92 94 84
          82 93 89 83 87 88
          70 80 82 72 75 81
          77 71 76 72 82 84
          74 77 83 79 73 78
        </DataArray>
        <DataArray type="Int64" Name="offsets" format="ascii" RangeMin="9" RangeMax="288">
          9 18 27 36 45 54
          63 72 81 90 99 108
          117 126 135 144 153 162
          171 180 189 198 207 216
          225 234 243 252 261 270
          279 288
        </DataArray>
        <DataArray type="UInt8" Name="types" format="ascii" RangeMin="28" RangeMax="28">
          28 28 28 28 28 28
          28 28 28 28 28 28
          28 28 28 28 28 28
          28 28 28 28 28 28
          28 28 28 28 28 28
          28 28
        </DataArray>
      </Cells>
    </Piece>
  </UnstructuredGrid>
</VTKFile>
