<?xml version="1.0"?>
<VTKFile type="UnstructuredGrid" version="0.1" byte_order="LittleEndian" header_type="UInt32" compressor="vtkZLibDataCompressor">
  <UnstructuredGrid>
    <Piece NumberOfPoints="81" NumberOfCells="64">
      <PointData>
        <DataArray type="Float64" Name="Velocity" NumberOfComponents="3" format="ascii" RangeMin="0" RangeMax="0.06276946446481742">
          0 0 0 0.012014467807718955 0 0
          0 0 0 -0.0003456065708124964 0.011322937183388596 0
          0.03530782376145979 0 0 0 0 0
          -0.0022887891616207856 0.008810894410288029 0 -0.0008074969024823973 0.010563300638193523 0
          -0.005419427451221661 0.007475734496568625 0 0.055168474627280924 0 0
          0 0 0 -0.0015285970735497009 0.00576675572086277 0
          -0.0023477308544058366 0.006641858031213658 0 -0.004037741771547538 0.004946205399971348 0
          -0.007933060522597693 0.004428594327191507 0 0.06276946446481742 0 0
          0 0 0 -0.0009707407876157367 0.003505444220680641 0
          -0.0029925128489353063 4.6478044916045165e-7 0 -0.005863180446236179 0.002793697930801204 0
          -0.0026135405625903603 0.0030521829934822913 0 -0.008940482400807977 -3.4740913707833954e-7 0
          0.055168474627280924 0 0 0 0 0
          -0.0037869952945944313 0.0017007540156994488 0 -0.006543521193048061 3.9298937379424557e-7 0
          -0.0006454023563122786 0.0020708607670577145 0 -0.0023505590340364363 -0.006641354071780226 0
          -0.00175686046496396 0.00183331122408799 0 -0.007930460550904999 -0.004428494747124608 0
          -0.00420690209230426 1.9699939310659883e-7 0 -0.0025553111406907735 0.0010199392759464836 0
          -0.005863855753696835 -0.0027931156811679776 0 0.0353078237614598 0 0
          0 0 0 -0.00047012433005121323 0.0010631617103334717 0
          -0.0008094951497021975 -0.010564099210801517 0 -0.0012640046800027546 0.0009689807443033057 0
          -0.005416362430107109 -0.007473614230128419 0 -0.002840299714573915 2.4315811346159627e-7 0
          -0.0037865063319562843 -0.0017001909667215018 0 -0.0018334521947415375 0.00053713666251762 0
          -0.0040383925273124715 -0.004945812818605335 0 0.012014467807718957 0 0
          0 0 0 -0.00033433805441987615 0.0003354709153672143 0
          -0.0025554201502869744 -0.0010194784497136787 0 -0.00034319685845884685 -0.011320265398082398 0
          -0.0020376128115297833 1.4907553770912451e-7 0 -0.0026130432620085765 -0.0030512319678316496 0
          -0.0009437951875576758 0.0003279697439938804 0 -0.0022881133630667317 -0.008808017050153862 0
          -0.0013993393261858532 0.00017676369051926913 0 -0.001528630420110999 -0.0057660083489658644 0
          -0.00183341202480158 -0.0005368158297069796 0 -0.0017569835345404433 -0.001832866632832074 0
          0 0 0 0 0 0
          0 0 0 0 0 0
          -0.0015618068976930384 8.211165678979804e-8 0 -0.0009706638831889175 -0.0035045000658225686 0
          0 0 0 0 0 0
          -0.001263987123119368 -0.0009686032881683759 0 0 0 0
          0 0 0 -0.0013993731366789919 -0.00017660142196523082 0
          -0.000645466835537934 -0.0020704057569583484 0 0 0 0
          0 0 0 -0.0009438583808379286 -0.00032780682321782484 0
          -0.00047017677208046384 -0.0010628121672048496 0 0 0 0
          0 0 0 -0.0003344269823429593 -0.00033530487955461585 0
          0 0 0 0 0 0
          0 0 0 0 0 0
          0 0 0
          <InformationKey name="L2_NORM_RANGE" location="vtkDataArray" length="2">
            <Value index="0">
              0
            </Value>
            <Value index="1">
              0.062769464465
            </Value>
          </InformationKey>
        </DataArray>
        <DataArray type="Float64" Name="Pressure" format="ascii" RangeMin="0" RangeMax="1.1210113446374537">
          0 0.025877231153440147 0.1564049983841261 0.19788450186129536 0.0773572877896211 0.32150879555323053
          0.3301488660717187 0.26700234584847793 0.376378120183647 0.2712337469979971 0.41727018623440343 0.41489687735826314
          0.39159354932786555 0.44094983815677813 0.4576273190627254 0.5607516546767993 0.4719000354573597 0.4690883499335561
          0.5607480087273391 0.49347029994124536 0.4843640758777416 0.5607369216412236 0.850253207334342 0.5037936471276764
          0.5177312170712909 0.5607382605923258 0.5015218641726343 0.7298882483389447 0.5110929845493231 0.6638434812052489
          0.560738786814158 0.5327254096708126 0.6280035610248961 1.0440938963507809 0.5207010116996699 0.5190043494094574
          0.8544470666037024 0.525720432682437 0.7450832468545943 0.5607403977838777 0.6037457559802551 0.540958204394634
          0.6805179014679674 1.0955118727929032 0.5266514038839489 0.5259061959237693 0.5887551373172285 0.9235148109885083
          0.5607416320211318 0.6371114328508536 0.5316177345051692 0.7913013049046748 0.5442618427447801 0.7065673147863213
          0.5805251403962184 0.6103871411162195 0.5263032964751609 1.1210113446374537 0.5258826429184643 0.9649851566770902
          0.5607424363934038 0.6523864050247757 0.5313381565748019 0.7999412802830332 0.5957632226605657 0.5440719286168205
          0.7041959905074283 0.5772231925231645 0.6199586811923339 0.5607427698218765 0.6495758932369007 0.5898678471651253
          0.6024801489758437 0.5774137882252051 0.6176883372618738 0.5955805047100599 0.5901481777645536 0.6007848311531112
          0.5956050898653744 0.5948367505416271 0.5951861558481752
        </DataArray>
        <DataArray type="Float64" Name="stream" format="ascii" RangeMin="-0.003408006905088023" RangeMax="0.0003308429803995389">
          0.000010810126672433217 0.00011101223379624041 0 -0.0006573205379954681 0.000255665448835111 9.558824947867943e-7
          -0.0005610900991793941 -0.001949182245419484 -0.0015870732946452176 0.0003308429803995389 0.000010196605139261206 -0.00034483083426458115
          -0.0029888707482329767 -0.0010074371882120505 -0.0023485242796728147 0.00032009418696034883 0.00001526446531714561 -0.00020075207389621546
          -0.003408006905088023 -0.0014919937366048824 -0.0006052311348079389 -0.0026425622884076183 0.0002208402499266277 0.000018869766622957375
          -0.0008992064287050119 -0.001672260420999605 -0.00010717943594276039 -0.00304103909803793 -0.0003435951004534677 -0.0023697354133308452
          -0.001006714651109198 -0.0005151643344845713 -0.001503651742385203 0.00006519356699143916 0.000021399472179917988 -0.000042508373674127286
          -0.002044908966438989 -0.00016352902403764705 -0.0016213851519250597 -0.0005751319698388968 -0.0009025839267672818 -0.0002512091375401542
          -0.0010214345829374094 0.00001032678035966903 0.000023233968526380166 0.0000051383565571476654 -0.0005111214586713193 -0.0007031453233356002
          -0.0002795879042011765 -0.0006051079905401338 -0.000030447796867756573 -0.0005579973095629649 -0.00005571377066770645 -0.00033644542735253275
          -0.000243193011395782 -0.0003337486774000741 0.000023233968526380166 0.00004251783004548779 0.000024634226742385045 0.000023444547045018728
          -0.00006168257851649569 -0.00018679115741257685 0.000026586814548491603 0.000017510793058569648 -0.00014799910021267136 0.000029165875883700488
          0.00003322396225166079 -0.00004748950355420499 -0.00008869224408409698 0.000032548114236509847 0.00003737896337341074 -0.00001508057256995532
          -0.000021462173487730833 0.00003625971586237092 0.00004161297288564379 0.000024460240949371918 0.00004008514604739307 0.000043740708504030026
          0.00004251783004548779 0.0000439673129835116 0.00004251783004548779
        </DataArray>
        <DataArray type="Float64" Name="Sigma" NumberOfComponents="6" format="ascii" RangeMin="4.8130626898985026e-9" RangeMax="0.003896425055667726">
          0.0007301005096421804 0.000002600567108393839 0 -0.000001592759419002149 0 0
          0.0014676997693731642 -0.0010815187764378269 0 0.0007169704006101551 0 0
          -0.00002770424488259654 -0.00000339565114802329 0 0.0007103476141311084 0 0
          -0.00010272077440659086 -0.00023863526193925418 0 0.0004962128345895469 0 0
          0.0019448484187704214 -0.0010099795927943165 0 0.002132093513527522 0 0
          -0.0001379981332026305 5.274924768887107e-7 0 0.0005062878936250562 0 0
          -0.00017565973483369841 0.000329081371933854 0 0.00004094069609344585 0 0
          -0.00018501489528908245 -0.00015597540208571003 0 0.0005743501055221191 0 0
          -0.00019749167349662956 0.0003312700539816035 0 -0.00036649274141793914 0 0
          0.0011488528733752342 -0.0006444546465436706 0 0.0034288851685615298 0 0
          -0.0000917376293558297 -5.859322373070827e-7 0 0.00034343229336097274 0 0
          -0.00013714335975072687 0.00014190181119339717 0 0.00006271487363987085 0 0
          -0.00007669462710874031 -0.00009917984054768322 0 0.0009425171223386451 0 0
          -0.00014565304497148585 0.00008888574225830782 0 -0.00012118356934176287 0 0
          -0.00014404393825770133 0.0002271080036406381 0 -0.0005061970356473792 0 0
          -0.00001701097074218737 8.569220130740858e-7 0 0.0038963878281036545 0 0
          -0.0000620119688701745 -4.530879688332502e-8 0 0.00021387523621945592 0 0
          -0.00008909550215684269 0.0001280459709872446 0 0.0000285295390051016 0 0
          0.0001248625676035573 -0.000003287618216605689 0 0.0010038457274056032 0 0
          -0.00007389296755095158 0.000054816693466416166 0 -0.00007177647986490111 0 0
          -0.00009289132654845263 0.00010262654188647339 0 -0.00012896364513785582 0 0
          -0.00003456296961670099 0.0000017357026346458059 0 -0.0006713792523679081 0 0
          -0.0011925060355455156 0.0006362188896426106 0 0.003377112102154909 0 0
          -0.000042773284186899726 -6.302587564681845e-8 0 0.00012977189245672808 0 0
          -0.00004956471030609809 0.000060245115736300335 0 -0.00014294148059884257 0 0
          0.000009439524450002117 -6.156706236681486e-7 0 -0.00010700476841918398 0 0
          -0.00006187843419262678 0.0000762438576847791 0 0.00001988727706503299 0 0
          0.0002650061972436691 0.0001070136469365706 0 0.0010035331821097143 0 0
          -0.0000640272905575708 0.00005472925309455344 0 -0.00006470471901315503 0 0
          0.00009182021759096316 -0.0002294855112510306 0 -0.0005312099766813181 0 0
          -0.000002404762422780768 1.7531240678905573e-7 0 -0.00018343292321906158 0 0
          -0.00003252207419736211 0.00003142857224964215 0 -0.000059434686051464736 0 0
          0.00008799178020309436 -0.000053823213659678874 0 -0.0000636186249965918 0 0
          -0.001952917878427882 0.0009841731332052273 0 0.002083052611244588 0 0
          -0.00003093499289948611 -1.0259135666678094e-8 0 0.0000692945690168377 0 0
          -0.000044156504554580396 0.00006122516898356949 0 0.000013097481683807133 0 0
          0.0002524812928520908 0.00018561140172139706 0 0.00063460067469036 0 0
          -0.00004528654068139315 0.000046276926049751146 0 -0.00003152285085240581 0 0
          0.0001788968273269261 -0.00034613215718816225 0 -0.0003928519611155233 0 0
          6.789672683470223e-7 -5.4301610026205333e-8 0 -0.00007698585983712307 0 0
          0.000045925245846760957 -0.00006035145967478851 0 -0.00014507325377457268 0 0
          -0.00002323171425857308 0.000026602769795024945 0 -0.000029778034886309694 0 0
          0.00015075825090139376 -0.00008505922680014845 0 -0.00011415817103047533 0 0
          -0.0014790933201871389 0.001059539130643432 0 0.0007045329339333712 0 0
          -0.000025915024589128543 -1.904676950451348e-9 0 0.000024066781914053168 0 0
          -0.000037556398203998764 0.000039100247796486016 0 -0.0000027917165367135407 0 0
          0.000033539937986860545 -0.00003134247394347907 0 -0.00005872363035764059 0 0
          0.00010344853341501034 0.00026817155978176575 0 0.0005102024136886382 0 0
          -1.715240000227828e-7 2.2403489582550757e-8 0 -0.00003951237863659287 0 0
          0.00009162589241430239 -0.0001039627217068901 0 -0.00013135283880524453 0 0
          -0.000039292466284178596 0.000029611122796392014 0 -0.000029382226399236283 0 0
          0.0001752231753148688 -0.00033631437350344355 0 0.000036511047525907367 0 0
          -0.000020265647280839903 0.000016851959128430434 0 -0.000035815032754291746 0 0
          0.0001372218926155207 -0.0001369739572096623 0 0.00006458938670206028 0 0
          0.00002296542306915547 -0.000026591451584880706 0 -0.000029955154086088073 0 0
          0.00006441456232889299 -0.00005442625562556347 0 -0.0000641411543865179 0 0
          -6.910612634317569e-10 -4.3351248309398054e-9 0 -5.897283409559777e-9 0 0
          -0.0007110281522223012 0.000002231607689795506 0 0.0000014843570174994053 0 0
          5.253615830994713e-9 0.000024355540498801674 0 -0.000022555491213540736 0 0
          0.000028876597873757534 -0.000002910282521797098 0 0.000707108922094869 0 0
          8.688797473735806e-8 -5.454725919217133e-9 0 -0.00004125897553535839 0 0
          0.00008904253104636208 -0.00012819117855179864 0 0.000028387372147920476 0 0
          -5.569789522527975e-9 0.00001928456261030107 0 -0.000057590681684389576 0 0
          0.00013805890373319 4.809247027990687e-7 0 0.0005064635301500548 0 0
          0.00004520196821795288 -0.000046367281084896656 0 -0.000031746889201936106 0 0
          -1.950318915015891e-8 0.000010719815143642474 0 -0.00008244002110401004 0 0
          0.00009178652523363933 -6.58574464520561e-7 0 0.00034273850039360425 0 0
          0.000020398794945135045 -0.0000168454015377088 0 -0.0000357418569449459 0 0
          0.00006187638601955934 -0.0000757091614364991 0 0.000020075074159919667 0 0
          -3.018519906627505e-8 1.3526037008143514e-8 0 -0.00009124984066503011 0 0
          0.00006202520718023162 -8.681707147051041e-9 0 0.00021373594255785203 0 0
          0.0000393520102590126 -0.00002957665377972368 0 -0.000029316315425791472 0 0
          0.000044140116407108996 -0.00006120243554214166 0 0.000013094790302227188 0 0
          -2.5475977496723753e-8 -0.00001070042289629003 0 -0.0000824787987228113 0 0
          0.000042793187329508956 -7.506238469644207e-8 0 0.0001296571307482593 0 0
          0.00003755636821775994 -0.00003905475715970633 0 -0.00000277018451964581 0 0
          -1.332945596934243e-8 -0.000019278252232450733 0 -0.00005762989067655888 0 0
          0.00003095219944421216 -1.7448681122420057e-9 0 0.00006925515746312786 0 0
          -2.490557899355432e-9 -0.00002435069339861536 0 -0.000022570561566790684 0 0
          0.0000259270971805665 -2.858914378960127e-9 0 0.000024046442549200167 0 0
          -3.246828121807173e-9 3.124776301280276e-9 0 -1.6909916236611801e-9 0 0
          <InformationKey name="L2_NORM_RANGE" location="vtkDataArray" length="2">
            <Value index="0">
              4.8130626899e-09
            </Value>
            <Value index="1">
              0.0038964250557
            </Value>
          </InformationKey>
        </DataArray>
      </PointData>
      <CellData>
        <DataArray type="UInt8" Name="vtkGhostType" format="ascii" RangeMin="0" RangeMax="0">
          0 0 0 0 0 0
          0 0 0 0 0 0
          0 0 0 0 0 0
          0 0 0 0 0 0
          0 0 0 0 0 0
          0 0 0 0 0 0
          0 0 0 0 0 0
          0 0 0 0 0 0
          0 0 0 0 0 0
          0 0 0 0 0 0
          0 0 0 0
        </DataArray>
        <DataArray type="Float64" Name="NN-Viscosity" format="ascii" RangeMin="0.0000018607442813039421" RangeMax="0.00017938467259440307">
          0.0000018610761911754734 0.0000043687878382337766 0.000005332357012604218 0.00000625820649880607 0.000006285257566422201 0.000005373696926996826
          0.000004377625972048556 0.0000018607442813039421 0.000004782440448817769 0.000011566909938586332 0.000013578759114563733 0.000008726408180625927
          0.000008790814935750188 0.00001367799661768428 0.000011575582792162379 0.000004779779831720825 0.000007106423592858475 0.000014293089787583222
          0.00001821460742186728 0.000011120103542866208 0.000011308234787132865 0.000018668438669079392 0.000014358652099135302 0.00000709610753667569
          0.000010558451478831608 0.00001850112647487282 0.00003057881686453396 0.0000263270689480837 0.00002710242470373848 0.000031757535487035825
          0.00001885410902899076 0.000010548523206493179 0.000017689658334165488 0.000043429649286612824 0.0001325067550372917 0.000127202495591175
          0.00012694417988916138 0.00013412626999172612 0.000046739450120339914 0.00001797917252903698 0.000046670822741008804 0.00009428593453493843
          0.0001492661208470854 0.00014331384494469866 0.00014437409078876709 0.0001495409670322964 0.00009689723056386348 0.00004812081689926309
          0.00010970397937984718 0.00007935893529873705 0.00007741504408461679 0.00005386394880794291 0.00006218648114822242 0.00008485196220101719
          0.00008005750598744238 0.00010896805557889955 0.00005940895532953979 0.00012948222538292043 0.000167204876599462 0.0001478166031537789
          0.00016285431553955272 0.00017938467259440307 0.0001320976994864579 0.00005974011635595462
        </DataArray>
      </CellData>
      <Points>
        <DataArray type="Float32" Name="Points" NumberOfComponents="3" format="ascii" RangeMin="0" RangeMax="1.4142135623730951">
          0 1 0 0.125 1 0
          0 0.875 0 0.125 0.875 0
          0.25 1 0 0 0.75 0
          0.125 0.75 0 0.25 0.875 0
          0.25 0.75 0 0.375 1 0
          0 0.625 0 0.125 0.625 0
          0.375 0.875 0 0.25 0.625 0
          0.375 0.75 0 0.5 1 0
          0 0.5 0 0.125 0.5 0
          0.5 0.875 0 0.375 0.625 0
          0.25 0.5 0 0.5 0.75 0
          0.625 1 0 0 0.375 0
          0.375 0.5 0 0.5 0.625 0
          0.125 0.375 0 0.625 0.875 0
          0.25 0.375 0 0.625 0.75 0
          0.5 0.5 0 0.375 0.375 0
          0.625 0.625 0 0.75 1 0
          0 0.25 0 0.125 0.25 0
          0.75 0.875 0 0.25 0.25 0
          0.75 0.75 0 0.5 0.375 0
          0.625 0.5 0 0.375 0.25 0
          0.75 0.625 0 0.875 1 0
          0 0.125 0 0.125 0.125 0
          0.625 0.375 0 0.875 0.875 0
          0.5 0.25 0 0.75 0.5 0
          0.25 0.125 0 0.875 0.75 0
          0.375 0.125 0 0.875 0.625 0
          0.625 0.25 0 0.75 0.375 0
          0 0 0 1 1 0
          0.125 0 0 1 0.875 0
          0.5 0.125 0 0.875 0.5 0
          0.25 0 0 1 0.75 0
          0.75 0.25 0 0.375 0 0
          1 0.625 0 0.625 0.125 0
          0.875 0.375 0 0.5 0 0
          1 0.5 0 0.75 0.125 0
          0.875 0.25 0 0.625 0 0
          1 0.375 0 0.875 0.125 0
          0.75 0 0 1 0.25 0
          0.875 0 0 1 0.125 0
          1 0 0
          <InformationKey name="L2_NORM_RANGE" location="vtkDataArray" length="2">
            <Value index="0">
              0
            </Value>
            <Value index="1">
              1.4142135624
            </Value>
          </InformationKey>
        </DataArray>
      </Points>
      <Cells>
        <DataArray type="Int64" Name="connectivity" format="ascii" RangeMin="0" RangeMax="80">
          58 45 44 56 62 50
          45 58 65 52 50 62
          69 60 52 65 73 67
          60 69 76 71 67 73
          78 75 71 76 80 79
          75 78 45 35 34 44
          50 37 35 45 52 41
          37 50 60 48 41 52
          67 54 48 60 71 64
          54 67 75 72 64 71
          79 77 72 75 35 26
          23 34 37 28 26 35
          41 31 28 37 48 39
          31 41 54 46 39 48
          64 55 46 54 72 68
          55 64 77 74 68 72
          26 17 16 23 28 20
          17 26 31 24 20 28
          39 30 24 31 46 40
          30 39 55 49 40 46
          68 61 49 55 74 70
          61 68 17 11 10 16
          20 13 11 17 24 19
          13 20 30 25 19 24
          40 32 25 30 49 42
          32 40 61 53 42 49
          70 66 53 61 11 6
          5 10 13 8 6 11
          19 14 8 13 25 21
          14 19 32 29 21 25
          42 38 29 32 53 51
          38 42 66 63 51 53
          6 3 2 5 8 7
          3 6 14 12 7 8
          21 18 12 14 29 27
          18 21 38 36 27 29
          51 47 36 38 63 59
          47 51 3 1 0 2
          7 4 1 3 12 9
          4 7 18 15 9 12
          27 22 15 18 36 33
          22 27 47 43 33 36
          59 57 43 47
        </DataArray>
        <DataArray type="Int64" Name="offsets" format="ascii" RangeMin="4" RangeMax="256">
          4 8 12 16 20 24
          28 32 36 40 44 48
          52 56 60 64 68 72
          76 80 84 88 92 96
          100 104 108 112 116 120
          124 128 132 136 140 144
          148 152 156 160 164 168
          172 176 180 184 188 192
          196 200 204 208 212 216
          220 224 228 232 236 240
          244 248 252 256
        </DataArray>
        <DataArray type="UInt8" Name="types" format="ascii" RangeMin="9" RangeMax="9">
          9 9 9 9 9 9
          9 9 9 9 9 9
          9 9 9 9 9 9
          9 9 9 9 9 9
          9 9 9 9 9 9
          9 9 9 9 9 9
          9 9 9 9 9 9
          9 9 9 9 9 9
          9 9 9 9 9 9
          9 9 9 9 9 9
          9 9 9 9
        </DataArray>
      </Cells>
    </Piece>
  </UnstructuredGrid>
</VTKFile>
