<?xml version="1.0"?>
<VTKFile type="UnstructuredGrid" version="0.1" byte_order="LittleEndian" header_type="UInt32" compressor="vtkZLibDataCompressor">
  <UnstructuredGrid>
    <Piece NumberOfPoints="79" NumberOfCells="35">
      <PointData>
        <DataArray type="Float64" Name="plcd_BC" NumberOfComponents="3" format="ascii" RangeMin="0" RangeMax="0">
          0 0 0 0 0 0
          0 0 0 0 0 0
          0 0 0 0 0 0
          0 0 0 0 0 0
          0 0 0 0 0 0
          0 0 0 0 0 0
          0 0 0 0 0 0
          0 0 0 0 0 0
          0 0 0 0 0 0
          0 0 0 0 0 0
          0 0 0 0 0 0
          0 0 0 0 0 0
          0 0 0 0 0 0
          0 0 0 0 0 0
          0 0 0 0 0 0
          0 0 0 0 0 0
          0 0 0 0 0 0
          0 0 0 0 0 0
          0 0 0 0 0 0
          0 0 0 0 0 0
          0 0 0 0 0 0
          0 0 0 0 0 0
          0 0 0 0 0 0
          0 0 0 0 0 0
          0 0 0 0 0 0
          0 0 0 0 0 0
          0 0 0 0 0 0
          0 0 0 0 0 0
          0 0 0 0 0 0
          0 0 0 0 0 0
          0 0 0 0 0 0
          0 0 0 0 0 0
          0 0 0 0 0 0
          0 0 0 0 0 0
          0 0 0 0 0 0
          0 0 0 0 0 0
          0 0 0 0 0 0
          0 0 0 0 0 0
          0 0 0 0 0 0
          0 0 0
          <InformationKey name="L2_NORM_RANGE" location="vtkDataArray" length="2">
            <Value index="0">
              0
            </Value>
            <Value index="1">
              0
            </Value>
          </InformationKey>
        </DataArray>
        <DataArray type="Float64" Name="plcd_FIXNO" NumberOfComponents="3" format="ascii" RangeMin="1.7320508075688772" RangeMax="1.7320508075688772">
          -1 -1 -1 -1 -1 -1
          -1 -1 -1 -1 -1 -1
          -1 -1 -1 -1 -1 -1
          -1 -1 -1 -1 -1 -1
          -1 -1 -1 -1 -1 -1
          -1 -1 -1 -1 -1 -1
          -1 -1 -1 -1 -1 -1
          -1 -1 -1 -1 -1 -1
          -1 -1 -1 -1 -1 -1
          -1 -1 -1 -1 -1 -1
          -1 -1 -1 -1 -1 -1
          -1 -1 -1 -1 -1 -1
          -1 -1 -1 -1 -1 -1
          -1 -1 -1 -1 -1 -1
          -1 -1 -1 -1 -1 -1
          -1 -1 -1 -1 -1 -1
          -1 -1 -1 -1 -1 -1
          -1 -1 -1 -1 -1 -1
          -1 -1 -1 -1 -1 -1
          -1 -1 -1 -1 -1 -1
          -1 -1 -1 -1 -1 -1
          -1 -1 -1 -1 -1 -1
          -1 -1 -1 -1 -1 -1
          -1 -1 -1 -1 -1 -1
          -1 -1 -1 -1 -1 -1
          -1 -1 -1 -1 -1 -1
          -1 -1 -1 -1 -1 -1
          -1 -1 -1 -1 -1 -1
          -1 -1 -1 -1 -1 -1
          -1 -1 -1 -1 -1 -1
          -1 -1 -1 -1 -1 -1
          -1 -1 -1 -1 -1 -1
          -1 -1 -1 -1 -1 -1
          -1 -1 -1 -1 -1 -1
          -1 -1 -1 -1 -1 -1
          -1 -1 -1 -1 -1 -1
          -1 -1 -1 -1 -1 -1
          -1 -1 -1 -1 -1 -1
          -1 -1 -1 -1 -1 -1
          -1 -1 -1
          <InformationKey name="L2_NORM_RANGE" location="vtkDataArray" length="2">
            <Value index="0">
              1.7320508076
            </Value>
            <Value index="1">
              1.7320508076
            </Value>
          </InformationKey>
        </DataArray>
        <DataArray type="Float64" Name="Displacement" NumberOfComponents="3" format="ascii" RangeMin="0" RangeMax="0.002951927918749957">
          -0.0004994086038997653 -0.001771517386667912 -0.00002991889080475801 -0.0005001576740626085 -0.0017489317847666967 -0.00003775119782156034
          -0.00016523713147369054 -0.0017662477761548102 -0.000009921010477444418 -0.00016594169505152636 -0.0017436927779332428 -0.00001257426384789127
          -0.0004985698853642589 -0.0017212110673481232 -0.000045448910212994226 0.00016523678253256514 -0.001766242503892229 0.000009921056258281076
          -0.00016581578291627186 -0.0017159710160478934 -0.000015135773264109758 0.0001659395675552015 -0.0017436925489695404 0.000012573691444696034
          -0.0004989467473882456 -0.0016883466636876334 -0.00005327635327684117 0.0004994098810105454 -0.001771527378128343 0.00002991855229711649
          -0.0001663343890196944 -0.0016830643400926543 -0.000017796890563281404 0.0005001620460388686 -0.0017489287707828838 0.000037751248212228045
          -0.00037346911107620116 -0.0008766166649149089 -0.000015994801868064502 -0.00037487163112353037 -0.0008630326918323786 -0.000024943010959989198
          -0.0001232937779918516 -0.0008709659551959285 -0.000005268387601824747 -0.00012442437523660677 -0.0008574537973323794 -0.000008287910394567728
          -0.0003730700244578773 -0.0008432020267132546 -0.000034417240100342704 0.00012329379004771335 -0.0008709671329613685 0.0000052682802247904735
          -0.00012419796213130853 -0.0008376024367316693 -0.00001146563111678747 0.00012442489559116082 -0.0008574536220842396 0.00000828796995719671
          0.00012419781391484567 -0.0008376021578964775 0.000011465592605566557 -0.00037259445026409615 -0.0008170841077244175 -0.00004350114972311328
          0.00037346869610102167 -0.0008766135538897501 0.00001599456837256213 -0.0001241485246383484 -0.0008115039947502352 -0.000014520329757455007
          0.00037487076833350486 -0.0008630331386698216 0.00002494280407120611 0.0001241484393622654 -0.0008115038497077325 0.000014520528221047785
          0.0003730702050196388 -0.0008432013648254956 0.00003441722656120814 0.0003725949201355234 -0.0008170839213358753 0.00004350142655352006
          -0.00021756192609872252 -0.0002647962952950662 0.000006436910007239885 -0.00021707712683805973 -0.0002635879824008065 -0.000009211943486898873
          -0.00007104983899831255 -0.0002546366142122636 0.0000022757135856449247 -0.00007118433402113675 -0.00025333406369232374 -0.000003029811534180621
          -0.00021389651901834465 -0.000252534224043963 -0.000024087688060049578 0.00007104994608852255 -0.00025463634580416935 -0.0000022757573476024215
          -0.00007066118145403743 -0.00024226811816318485 -0.000008043965051943385 0.00007118428605200031 -0.0002533341411043705 0.000003029740303785211
          0.00007066126859665739 -0.00024226817451966778 0.00000804393472722495 -0.0002152170649452518 -0.00023165431875153908 -0.00003959887511410149
          0.00021756207788495855 -0.0002647971525503148 -0.000006436886013405793 -0.00007199696051383188 -0.00022135576993127752 -0.000013347713303310889
          0.0002170772887538938 -0.0002635879123566107 0.000009211945355458495 0.00007199702804088535 -0.0002213557752693723 0.000013347625363838871
          0.00021389640946597796 -0.00025253436982117185 0.000024087642486381278 0.00021521697359985659 -0.0002316543052708407 0.00003959878295135431
          0 0 0 0 0 0
          0 0 0 0 0 0
          0 0 0 0 0 0
          0 0 0 0 0 0
          0 0 0 0 0 0
          0 0 0 0 0 0
          0 0 0 0 0 0
          0 0 0 0 0 0
          0.00019929239888673463 -0.002855008258939601 0.0000165109278271456 0.00019925195674612745 -0.002819917680793654 0.000018562239466572178
          0.00016581618559335834 -0.0017159719663180316 0.000015135712476908282 0.0005999402640752553 -0.0028591135304400187 0.00004957996879127456
          0.0005985935683989106 -0.002824019814928713 0.000055693642549061345 0.0004985708692938488 -0.0017212133286012995 0.000045448865310163484
          0.00019850027445700527 -0.0028860377085813084 0.00001446646690147363 0.0005990639399106054 -0.0028901438770172383 0.000043554712985508676
          -0.00019925208568205953 -0.002819919602055313 -0.000018563529008918473 -0.00019969562405573735 -0.0027807695029808976 -0.000020616480878789812
          0.00019969890811918786 -0.0027807669035225563 0.000020616986953679594 0.00016633415363697437 -0.0016830651197145914 0.00001779606315539461
          -0.000199284559333545 -0.0028550032002157724 -0.000016508415703177866 -0.00019850010308481087 -0.0028860143788838398 -0.000014465274991893502
          -0.0005986013719834112 -0.002824025137032861 -0.00005569485896188506 -0.0005989245172247551 -0.0027848754692291157 -0.00006174508100725689
          -0.0005999553266068932 -0.0028590955153493707 -0.00004957731566278766 -0.0005990636371921874 -0.002890173820295225 -0.000043548646013674857
          0.000498945181108452 -0.0016883477303559957 0.00005327522779045522
          <InformationKey name="L2_NORM_RANGE" location="vtkDataArray" length="2">
            <Value index="0">
              0
            </Value>
            <Value index="1">
              0.0029519279187
            </Value>
          </InformationKey>
        </DataArray>
      </PointData>
      <CellData>
        <DataArray type="UInt8" Name="vtkGhostType" format="ascii" RangeMin="0" RangeMax="1">
          1 1 0 1 1 1
          1 0 1 0 1 0
          1 0 1 0 0 1
          0 0 0 0 1 0
          0 0 0 0 0 0
          0 0 0 0 0
        </DataArray>
        <DataArray type="Float64" Name="Stress" NumberOfComponents="6" format="ascii" RangeMin="103628.7326044675" RangeMax="4863417.247158845">
          3866288.2240338335 -2911.9363156484615 11918.95587526912 -128127.93843761121 231602.8655270352 1242.4724279045804
          3855577.778034885 -9202.513028676622 2789.2307647546077 -271597.7466634069 146762.06399955117 2299.6166981531715
          4271694.13935716 46102.02539615271 51950.451203808676 -257180.2220183882 122645.88518960876 5206.244327016731
          74.17350726906443 140.92499985647737 -1.134155972798908 -103608.888218918 -50.95097626594861 2021.025579977777
          151.66077973687788 -108.81459432817792 157.05004477660623 -302164.79804420867 112.62846284330044 -977.3062044714934
          -44.57413844647817 -28.516846792816068 -33.95851360948109 -291016.12441709917 -38.67180420443037 -4073.616007009856
          -140.55602273519617 -1121.7376038468283 -296.67301179382866 -547945.2805117996 -83.29474582200965 -3809.4489356500926
          15.847943996137474 220.45432037379942 69.92946195337936 -555794.042196461 20.652646989416553 -526.5088672948586
          -3862538.8586211107 6640.588075439475 -4240.508747216998 -16998.359572941146 -119234.65136423743 -420.08804801075894
          -4269055.840029202 -48838.12788708464 -48526.86891616382 -15533.339403117832 -137957.9506254434 -4259.5191404291
          -3866585.199915018 2522.297211998026 -11743.46395727406 -127593.99862251221 -231554.54749619804 1669.5229064128398
          -4248855.631332143 -41688.39313750574 -31412.11358522962 -116077.11271728144 -223829.3267187357 -519.583682935161
          -3855297.75273103 10606.539399613284 -2339.2296160598307 -271219.9433147183 -146563.88390181476 1798.9190383850364
          -4271726.509617569 -46491.51369002295 -52040.219609905806 -257284.58403154707 -122665.82654471375 5292.291810806171
          4269055.095076623 48798.01868004141 48569.80360223345 -15563.21982006036 137990.32357419684 -4274.922815529593
          4564507.432098972 -198294.30343659848 -163455.20251563698 4676.867740445858 54054.54993217593 2702.0552614060325
          4793930.051890709 534616.044728964 565709.9590074854 54405.49473659793 249418.7339336895 6326.533701258233
          4248948.35844925 41753.99513186264 31417.626128787597 -115971.3838148796 223832.51231907954 -428.0712449925704
          4598066.674167828 -188149.71936366716 -143259.96597145413 -67150.52328021746 232681.67975870098 306.8680080707818
          4704000.656138195 531175.6289834145 580139.4199882131 -121636.0506114263 181907.22385390144 1507.9174370800079
          4546915.768577469 -204529.21873605435 -170959.41310671234 -207233.928985462 198501.93723660498 -2930.3689357742223
          4678285.298794412 528512.7497948592 551207.5893525067 -160846.45989686562 14192.042068683102 -5690.287063402726
          -3.686682417697739 -57.22568920064077 11.042464991431189 -104686.59022911219 4.197596935538968 -3239.8902548500664
          -4.092407547694165 14.189077781556989 -5.950901552434516 -154606.81641529512 0.918853581759322 13638.243657528612
          2.0078691818052903 -1.6363668944250094 2.501140928507084 120148.00863426854 -0.28457490647633676 17073.202674907916
          10.705081993190106 18.489912328703213 8.703518003754652 -347759.98832506407 10.67965908894439 -3355.861560605059
          -1.6826366171590053 -6.628450628180872 -3.4411677497409983 -151108.3381187959 -2.83351881004819 453.1792535465838
          -4.8138731549843214 -40.86150497040944 -15.868031408619572 -627208.5583689881 -6.152105336437671 -18779.107948694735
          3.5477429137099534 9.450637816626113 3.863772367927595 -228105.05198105762 2.073342701238289 -18694.386314119263
          -4564504.505104263 198305.2274266937 163442.9782859599 4661.3310917664785 -54056.04186992395 2695.0119880997663
          -4793931.158878723 -534617.5754558651 -565707.275699151 54410.323913641274 -249419.62606420572 6329.053180038005
          -4598080.290439043 188140.15340380257 143254.3858277145 -67138.5351973261 -232683.20055208664 323.4608622690721
          -4703999.012701833 -531173.6291888996 -580138.9192652386 -121635.74753135559 -181906.85718618438 1505.3835261127451
          -4546907.756078299 204635.41567496117 170979.15677527507 -207216.4997077143 -198504.24766173796 -2944.1678801273956
          -4678287.159978603 -528541.9881527921 -551213.1779107011 -160848.54995524138 -14190.453419865851 -5687.3500848287995
          <InformationKey name="L2_NORM_RANGE" location="vtkDataArray" length="2">
            <Value index="0">
              103628.7326
            </Value>
            <Value index="1">
              4863417.2472
            </Value>
          </InformationKey>
        </DataArray>
        <DataArray type="Float64" Name="Damage" format="ascii" RangeMin="0" RangeMax="0.4486279196670854">
          0.026100919357954472 0.02602613445503903 0.11883278548815998 0 0 0
          0 0 0.02697059706800427 0.12113977193719942 0.026103627163202196 0.1200027091700375
          0.02603171783599327 0.11883691413775643 0.12113854920021906 0.20952969707220157 0.42848922294005215 0.11999741564503308
          0.20784367467254194 0.44195726023090587 0.2065645318297452 0.4486276569171549 0 0
          0.15992868924802478 0 0.18322318503870333 0 0.19188999568202242 0.20952970606256063
          0.4284890617066224 0.20784273662230207 0.4419572742697437 0.20656347282698315 0.4486279196670854
        </DataArray>
        <DataArray type="Float64" Name="Tau" format="ascii" RangeMin="8040844.011283461" RangeMax="16019870.909922356">
          8275075.506125436 8274326.806683045 9316368.452110885 8040844.011283461 8040844.011283461 8040844.011283461
          8040844.011283461 8040844.011283461 8283828.99204874 9349287.042763637 8275102.615719711 9333809.020450968
          8274382.716794602 9316417.16882293 9349271.104603449 10910437.824957121 15452306.551018354 9333743.98071927
          10894875.249560334 15828444.111486565 10873234.502487203 16019863.557504086 8040844.011283461 8040844.011283461
          9935030.97712585 8040844.011283461 10365803.321663655 8040844.011283461 10543117.486561084 10910436.935331833
          15452302.222673716 10894856.398066465 15828445.091344077 10873213.052599205 16019870.909922356
        </DataArray>
        <DataArray type="Float64" Name="ComparisonRatio" format="ascii" RangeMin="0.23438775010182264" RangeMax="1.9923121114452882">
          0.8114392695971819 0.8118634414354268 1.0221185258207492 0.2455900649823629 0.23438775010182264 0.2972334611888753
          0.24073333165046482 0.2994858850622381 0.816015836260897 1.0295198877266198 0.8114308132624627 1.0250354090850113
          0.8118709139372382 1.0221232797218949 1.029519115004733 1.3246416505393412 1.921726939278342 1.025028420675887
          1.3216536008149973 1.968505307312891 1.3179652070553411 1.9923111970613931 0.3083284522711231 0.39984206307702264
          0.9997642689724914 0.3835863366228002 1.077729596331291 0.38413668634375575 1.1147130645275893 1.3246414368225012
          1.921726400983527 1.3216514446204433 1.9685054291729227 1.3179627883775784 1.9923121114452882
        </DataArray>
      </CellData>
      <Points>
        <DataArray type="Float32" Name="Points" NumberOfComponents="3" format="ascii" RangeMin="0.5995491172905656" RangeMax="8.934065394197013">
          -2.598129987716675 -1.3746089935302734 2 -2.598129987716675 -1.3746089935302734 1.3333330154418945
          -2.598129987716675 -0.707939624786377 2 -2.598129987716675 -0.707939624786377 1.3333330154418945
          -2.598129987716675 -1.3746089935302734 0.6666666865348816 -2.598129987716675 -0.041270170360803604 2
          -2.598129987716675 -0.707939624786377 0.6666666865348816 -2.598129987716675 -0.041270170360803604 1.3333330154418945
          -2.598129987716675 -1.3746089935302734 0 -2.598129987716675 0.6253991723060608 2
          -2.598129987716675 -0.707939624786377 0 -2.598129987716675 0.6253991723060608 1.3333330154418945
          -4.598133087158203 -1.3746089935302734 2 -4.598133087158203 -1.3746089935302734 1.3333330154418945
          -4.598133087158203 -0.707939624786377 2 -4.598133087158203 -0.707939624786377 1.3333330154418945
          -4.598133087158203 -1.3746089935302734 0.6666666865348816 -4.598133087158203 -0.041270170360803604 2
          -4.598133087158203 -0.707939624786377 0.6666666865348816 -4.598133087158203 -0.041270170360803604 1.3333330154418945
          -4.598133087158203 -0.041270170360803604 0.6666666865348816 -4.598133087158203 -1.3746089935302734 0
          -4.598133087158203 0.6253991723060608 2 -4.598133087158203 -0.707939624786377 0
          -4.598133087158203 0.6253991723060608 1.3333330154418945 -4.598133087158203 -0.041270170360803604 0
          -4.598133087158203 0.6253991723060608 0.6666666865348816 -4.598133087158203 0.6253991723060608 0
          -6.598135948181152 -1.3746089935302734 2 -6.598135948181152 -1.3746089935302734 1.3333330154418945
          -6.598135948181152 -0.707939624786377 2 -6.598135948181152 -0.707939624786377 1.3333330154418945
          -6.598135948181152 -1.3746089935302734 0.6666666865348816 -6.598135948181152 -0.041270170360803604 2
          -6.598135948181152 -0.707939624786377 0.6666666865348816 -6.598135948181152 -0.041270170360803604 1.3333330154418945
          -6.598135948181152 -0.041270170360803604 0.6666666865348816 -6.598135948181152 -1.3746089935302734 0
          -6.598135948181152 0.6253991723060608 2 -6.598135948181152 -0.707939624786377 0
          -6.598135948181152 0.6253991723060608 1.3333330154418945 -6.598135948181152 -0.041270170360803604 0
          -6.598135948181152 0.6253991723060608 0.6666666865348816 -6.598135948181152 0.6253991723060608 0
          -8.598137855529785 -1.3746089935302734 2 -8.598137855529785 -1.3746089935302734 1.3333330154418945
          -8.598137855529785 -0.707939624786377 2 -8.598137855529785 -0.707939624786377 1.3333330154418945
          -8.598137855529785 -1.3746089935302734 0.6666666865348816 -8.598137855529785 -0.041270170360803604 2
          -8.598137855529785 -0.707939624786377 0.6666666865348816 -8.598137855529785 -0.041270170360803604 1.3333330154418945
          -8.598137855529785 -0.041270170360803604 0.6666666865348816 -8.598137855529785 -1.3746089935302734 0
          -8.598137855529785 0.6253991723060608 2 -8.598137855529785 -0.707939624786377 0
          -8.598137855529785 0.6253991723060608 1.3333330154418945 -8.598137855529785 -0.041270170360803604 0
          -8.598137855529785 0.6253991723060608 0.6666666865348816 -8.598137855529785 0.6253991723060608 0
          -0.598127007484436 -0.041270170360803604 1.3333330154418945 -0.598127007484436 -0.041270170360803604 0.6666666865348816
          -2.598129987716675 -0.041270170360803604 0.6666666865348816 -0.598127007484436 0.6253991723060608 1.3333330154418945
          -0.598127007484436 0.6253991723060608 0.6666666865348816 -2.598129987716675 0.6253991723060608 0.6666666865348816
          -0.598127007484436 -0.041270170360803604 2 -0.598127007484436 0.6253991723060608 2
          -0.598127007484436 -0.707939624786377 0.6666666865348816 -0.598127007484436 -0.707939624786377 0
          -0.598127007484436 -0.041270170360803604 0 -2.598129987716675 -0.041270170360803604 0
          -0.598127007484436 -0.707939624786377 1.3333330154418945 -0.598127007484436 -0.707939624786377 2
          -0.598127007484436 -1.3746089935302734 0.6666666865348816 -0.598127007484436 -1.3746089935302734 0
          -0.598127007484436 -1.3746089935302734 1.3333330154418945 -0.598127007484436 -1.3746089935302734 2
          -2.598129987716675 0.6253991723060608 0
          <InformationKey name="L2_NORM_RANGE" location="vtkDataArray" length="2">
            <Value index="0">
              0.59954911729
            </Value>
            <Value index="1">
              8.9340653942
            </Value>
          </InformationKey>
        </DataArray>
      </Points>
      <Cells>
        <DataArray type="Int64" Name="connectivity" format="ascii" RangeMin="0" RangeMax="78">
          7 60 61 62 11 63
          64 65 5 66 60 7
          9 67 63 11 17 5
          7 19 22 9 11 24
          6 68 69 10 62 61
          70 71 3 72 68 6
          7 60 61 62 15 3
          6 18 19 7 62 20
          2 73 72 3 5 66
          60 7 14 2 3 15
          17 5 7 19 4 74
          75 8 6 68 69 10
          16 4 8 21 18 6
          10 23 1 76 74 4
          3 72 68 6 13 1
          4 16 15 3 6 18
          0 77 76 1 2 73
          72 3 12 0 1 13
          14 2 3 15 20 62
          71 25 26 65 78 27
          36 20 25 41 42 26
          27 43 52 36 41 57
          58 42 43 59 19 7
          62 20 24 11 65 26
          35 19 20 36 40 24
          26 42 51 35 36 52
          56 40 42 58 33 17
          19 35 38 22 24 40
          49 33 35 51 54 38
          40 56 18 6 10 23
          20 62 71 25 34 18
          23 39 36 20 25 41
          50 34 39 55 52 36
          41 57 31 15 18 34
          35 19 20 36 47 31
          34 50 51 35 36 52
          30 14 15 31 33 17
          19 35 46 30 31 47
          49 33 35 51 32 16
          21 37 34 18 23 39
          48 32 37 53 50 34
          39 55 29 13 16 32
          31 15 18 34 45 29
          32 48 47 31 34 50
          28 12 13 29 30 14
          15 31 44 28 29 45
          46 30 31 47
        </DataArray>
        <DataArray type="Int64" Name="offsets" format="ascii" RangeMin="8" RangeMax="280">
          8 16 24 32 40 48
          56 64 72 80 88 96
          104 112 120 128 136 144
          152 160 168 176 184 192
          200 208 216 224 232 240
          248 256 264 272 280
        </DataArray>
        <DataArray type="UInt8" Name="types" format="ascii" RangeMin="12" RangeMax="12">
          12 12 12 12 12 12
          12 12 12 12 12 12
          12 12 12 12 12 12
          12 12 12 12 12 12
          12 12 12 12 12 12
          12 12 12 12 12
        </DataArray>
      </Cells>
    </Piece>
  </UnstructuredGrid>
</VTKFile>
