<?xml version="1.0"?>
<VTKFile type="UnstructuredGrid" version="0.1" byte_order="LittleEndian" header_type="UInt32" compressor="vtkZLibDataCompressor">
  <UnstructuredGrid>
    <Piece NumberOfPoints="79" NumberOfCells="35">
      <PointData>
        <DataArray type="Float64" Name="plcd_BC" NumberOfComponents="3" format="ascii" RangeMin="0" RangeMax="0">
          0 0 0 0 0 0
          0 0 0 0 0 0
          0 0 0 0 0 0
          0 0 0 0 0 0
          0 0 0 0 0 0
          0 0 0 0 0 0
          0 0 0 0 0 0
          0 0 0 0 0 0
          0 0 0 0 0 0
          0 0 0 0 0 0
          0 0 0 0 0 0
          0 0 0 0 0 0
          0 0 0 0 0 0
          0 0 0 0 0 0
          0 0 0 0 0 0
          0 0 0 0 0 0
          0 0 0 0 0 0
          0 0 0 0 0 0
          0 0 0 0 0 0
          0 0 0 0 0 0
          0 0 0 0 0 0
          0 0 0 0 0 0
          0 0 0 0 0 0
          0 0 0 0 0 0
          0 0 0 0 0 0
          0 0 0 0 0 0
          0 0 0 0 0 0
          0 0 0 0 0 0
          0 0 0 0 0 0
          0 0 0 0 0 0
          0 0 0 0 0 0
          0 0 0 0 0 0
          0 0 0 0 0 0
          0 0 0 0 0 0
          0 0 0 0 0 0
          0 0 0 0 0 0
          0 0 0 0 0 0
          0 0 0 0 0 0
          0 0 0 0 0 0
          0 0 0
          <InformationKey name="L2_NORM_RANGE" location="vtkDataArray" length="2">
            <Value index="0">
              0
            </Value>
            <Value index="1">
              0
            </Value>
          </InformationKey>
        </DataArray>
        <DataArray type="Float64" Name="plcd_FIXNO" NumberOfComponents="3" format="ascii" RangeMin="1.7320508075688772" RangeMax="1.7320508075688772">
          -1 -1 -1 -1 -1 -1
          -1 -1 -1 -1 -1 -1
          -1 -1 -1 -1 -1 -1
          -1 -1 -1 -1 -1 -1
          -1 -1 -1 -1 -1 -1
          -1 -1 -1 -1 -1 -1
          -1 -1 -1 -1 -1 -1
          -1 -1 -1 -1 -1 -1
          -1 -1 -1 -1 -1 -1
          -1 -1 -1 -1 -1 -1
          -1 -1 -1 -1 -1 -1
          -1 -1 -1 -1 -1 -1
          -1 -1 -1 -1 -1 -1
          -1 -1 -1 -1 -1 -1
          -1 -1 -1 -1 -1 -1
          -1 -1 -1 -1 -1 -1
          -1 -1 -1 -1 -1 -1
          -1 -1 -1 -1 -1 -1
          -1 -1 -1 -1 -1 -1
          -1 -1 -1 -1 -1 -1
          -1 -1 -1 -1 -1 -1
          -1 -1 -1 -1 -1 -1
          -1 -1 -1 -1 -1 -1
          -1 -1 -1 -1 -1 -1
          -1 -1 -1 -1 -1 -1
          -1 -1 -1 -1 -1 -1
          -1 -1 -1 -1 -1 -1
          -1 -1 -1 -1 -1 -1
          -1 -1 -1 -1 -1 -1
          -1 -1 -1 -1 -1 -1
          -1 -1 -1 -1 -1 -1
          -1 -1 -1 -1 -1 -1
          -1 -1 -1 -1 -1 -1
          -1 -1 -1 -1 -1 -1
          -1 -1 -1 -1 -1 -1
          -1 -1 -1 -1 -1 -1
          -1 -1 -1 -1 -1 -1
          -1 -1 -1 -1 -1 -1
          -1 -1 -1 -1 -1 -1
          -1 -1 -1
          <InformationKey name="L2_NORM_RANGE" location="vtkDataArray" length="2">
            <Value index="0">
              1.7320508076
            </Value>
            <Value index="1">
              1.7320508076
            </Value>
          </InformationKey>
        </DataArray>
        <DataArray type="Float64" Name="Displacement" NumberOfComponents="3" format="ascii" RangeMin="0.0017226748260777628" RangeMax="0.004101277707889807">
          -0.00030813703907542003 -0.004089496828046621 -0.000039320424467788795 -0.0003036925879321776 -0.004025739891475436 -0.000029512641448986817
          -0.00010061685424658403 -0.004052972686698237 -0.0000020334871170433806 -0.00010063557714496599 -0.004026993762737013 -0.00000116410354051633
          -0.0002997460764634677 -0.004008442976130213 -0.000022955275042163794 0.00009879695471217751 -0.0040299588598622735 0.00001260302857822432
          -0.00009999598421521575 -0.004008349363523799 -0.000004674043718432505 0.0000992198314798054 -0.004023355201233931 0.00001350229636489102
          0.00009977289799305414 -0.0040108893347985735 0.000010606673499041505 -0.0002988026945623852 -0.003992859155024823 -0.000021667748462887545
          -0.00029743898903899385 -0.0034278512863879637 -0.000017448452356260122 0.0002931028599344733 -0.004 0.000009140115342129992
          -0.0000991659423677235 -0.003993884266391418 -0.00000570857966984434 -0.00029816627920452754 -0.0034247513777214762 -0.000020045280768483507
          -0.00009692403893634552 -0.0034356732021471556 -0.00000771817193248104 0.0002970443830686875 -0.004024147359827939 0.000017104220405849944
          -0.00009832127195712759 -0.003423796056470032 -0.00000798446887619219 -0.0002971345354405285 -0.0034106187835452645 -0.00002145134362672866
          0.00010057869692305517 -0.003996160885084101 0.000009572633830174177 0.00010031388897676983 -0.0034396028244447776 0.0000059486251019425135
          0.00030012885546417696 -0.004010801413176504 0.000021949164582866107 -0.00009885831046694892 -0.003410459121850093 -0.000007438616491638438
          0.00009945736680602405 -0.003424499057416018 0.000005938711976934404 0.0000989024892199449 -0.003410114756214528 0.000006586151823237976
          -0.0002967621875540724 -0.0033963254439118673 -0.000021898236043376928 0.0003013361588535193 -0.003999999999999998 0.000022310966717586195
          0.00029668507315015085 -0.0034463974544977874 0.000022607402840966357 -0.00009883260122879982 -0.003396047137030968 -0.000007434793634481461
          0.0002964877319049988 -0.003424255954468746 0.000021205091637652766 0.00009898231506881243 -0.003395990366510607 0.000006847956711832952
          0.00029686525020833235 -0.003410532024533863 0.000020832328579663535 0.0002971965238941385 -0.0033955806945246457 0.000021324787921865896
          -0.00028757375409364637 -0.0028488367332371134 -0.000017559912050915168 -0.0002878241735796181 -0.002834860224399661 -0.00001802747190195556
          -0.00009631809504131703 -0.002846553252889265 -0.000005540263130114142 -0.00009603153132923207 -0.002834595516326804 -0.0000058262437444786
          -0.0002879366419120733 -0.002822830169668951 -0.000018819536519790283 0.00009514645848432504 -0.0028462527730446505 0.000005897685709040103
          -0.00009588186043178841 -0.002822249000726635 -0.000006300059002637105 0.00009572926779232485 -0.0028346481230717415 0.000006184981356320688
          0.00009588059017267872 -0.002822342555147946 0.000006323079528504919 -0.0002881640590793283 -0.0028100161758775537 -0.00001970034546728466
          0.0002884525888662755 -0.002845480785551852 0.000016979181327648143 -0.00009605479037253818 -0.002809442831218281 -0.000006614983786612254
          0.0002886495001507671 -0.0028354667329733773 0.000018112633141584014 0.00009595061857367895 -0.002809402559680387 0.000006577908695252105
          0.0002880033920282667 -0.0028228783895693703 0.00001898635481793014 0.00028793668147520556 -0.002810119755389475 0.000019760759242241987
          -0.0002728765724480036 -0.002259407041041739 -0.000016810130399398968 0.00009078329126906654 -0.0022792393393676245 0.0000047262636888330725
          -0.00009085136873862922 -0.002258561609302159 -0.000005582213557695484 0.00009087077356478749 -0.0022692964879186274 0.000005152795465492444
          0.00009084850229148563 -0.0022585322778451056 0.000005615067156499142 -0.0002729193028143379 -0.0022477724077107483 -0.00001803860664606505
          0.00027281682427158767 -0.002280362773798587 0.000014296151676539845 -0.00009093065512839616 -0.0022469197023150377 -0.000005996471147260134
          0.0002730743914167662 -0.0022700524858418375 0.000015515751777646367 0.00009094313602564501 -0.002246933679358155 0.000006044959921952551
          0.0002728904100768961 -0.0022593829830078616 0.000016793966235077182 0.0002729745514219215 -0.002247745006312168 0.000018060404131333934
          0.00008381505950454373 -0.001730976769232594 0.0000048927899679822614 0.00008391317281662257 -0.0017206212186207871 0.000005455076701144886
          0.0002517673146536067 -0.00173210236242786 0.000014690474174538665 0.0002518334835760463 -0.00172176204352955 0.000016350026086356688
          0.00008381604810883793 -0.0017402248622416252 0.000004345618496623292 0.0002520656603868648 -0.0017413777748549407 0.000013032623337886932
          0.00008360985147429642 -0.0017483630723408835 0.0000037829797512513087 0.00025186587289152625 -0.0017494340840448974 0.000011372278874834968
          -0.0000838141551870149 -0.0017309704253628904 -0.000004905555355215656 -0.00008390795790261001 -0.0017206261868602003 -0.000005470133961146104
          -0.00009082782452131168 -0.0022693724158743536 -0.000005222802566753182 -0.00008381366632979488 -0.001740196548409678 -0.0000043311441067434404
          -0.00009051479779541246 -0.0022793348387813595 -0.0000048065439732366 -0.00008365381175599835 -0.0017483078107864917 -0.00000376667923125621
          -0.00025178302588081615 -0.0017320984204295183 -0.000014693521837389201 -0.0002518412425783872 -0.001721756115680428 -0.00001636050027115561
          -0.0002732585793329166 -0.0022703211820951316 -0.000015592745708386973 -0.00025204723695590513 -0.001741294798275022 -0.000013010235237744298
          -0.00027309137379269053 -0.0022798212844064546 -0.000014307539991096734
          <InformationKey name="L2_NORM_RANGE" location="vtkDataArray" length="2">
            <Value index="0">
              0.0017226748261
            </Value>
            <Value index="1">
              0.0041012777079
            </Value>
          </InformationKey>
        </DataArray>
      </PointData>
      <CellData>
        <DataArray type="UInt8" Name="vtkGhostType" format="ascii" RangeMin="0" RangeMax="0">
          0 0 0 0 0 0
          0 0 0 0 0 0
          0 0 0 0 0 0
          0 0 0 0 0 0
          0 0 0 0 0 0
          0 0 0 0 0
        </DataArray>
        <DataArray type="Float64" Name="Stress" NumberOfComponents="6" format="ascii" RangeMin="64994.64726293323" RangeMax="1330697.9400371106">
          114938.8997700993 -147205.80097786745 -10467.2504183257 -85343.26972693404 9766.085469088392 -33507.55887048948
          367212.74467006075 20636.828124060972 1191.012316098735 -41051.95795088409 16734.698878017552 -3820.055503051169
          601388.8629942082 -4311.057660713503 2735.953877939439 -47166.935329538326 28434.42738414579 1953.741621192201
          845440.7130577372 1067.3124764145668 1449.0753769658745 -45243.22039216909 25393.704149719946 -848.7442075032995
          33416.710847425325 -54455.01890083042 -104498.01421184282 -125681.778086536 -11036.074290522803 -175970.13116963828
          358051.3293975742 10499.304892326836 19503.252702058548 -86550.42752642249 43212.79291750207 20474.86030897865
          608242.7418517041 -4923.023689639951 2843.3028308685907 -63302.12965169058 53507.71427375452 -3627.0430988779326
          843838.3973291458 2406.705761144879 163.49345740335548 -69704.37211992807 47310.912210604474 1285.6948415850093
          123476.66130305635 1023789.9486733287 -94375.52774712411 86056.89824136118 -82325.02272633868 229880.86693706387
          332597.2674338976 -222285.9107376546 22781.844117717465 -210923.95616266748 57940.69397047056 -73075.8743424234
          615477.2284836778 42618.114463123915 190.52076937318543 -71365.62016627876 25470.266712095407 19896.630125987056
          841386.8815216966 -7759.194632179906 951.7224233014235 -107406.72504729166 30398.874954230636 -4437.502697119209
          -18364.326277910255 -194919.0466310327 36343.1419862138 -70729.63407899001 37263.47941556625 21185.086656613934
          6970.691900458878 16196.57566093504 -4383.8191332398055 -69110.79897645356 -8883.133444807421 -2960.5435255763214
          -1854.7872022627053 -1839.0253483819988 1225.0191245926555 -64910.04182323412 1036.7710496685254 1262.072690613979
          67.57342202023574 544.1142954801417 -471.9941897447882 -66236.63220488359 311.10147088977135 405.2446084173116
          32547.992768662785 95014.39954045409 261340.41796956453 -94424.18950890904 129339.55916281702 -17418.114864942796
          6709.4539506845795 -30458.169914089583 -43578.13309704881 -110652.19343994715 -5623.171649217684 3881.6534459621967
          -3217.264303960481 -478.6945071990813 9702.39177879964 -107319.90290761738 -2148.4869503450686 -373.29070247251593
          553.7235079297461 2723.2418247661317 -2714.780684554503 -108021.74774662382 638.531948084591 -26.666290357815342
          145351.4532110106 1060482.8571554937 186065.38050552597 -166476.93978239037 200031.81274772773 -49663.78225212412
          45967.649023126185 -191479.02731304665 -18187.119014877644 -166127.18365522995 -2344.9133406309484 9216.93535808755
          -24655.77709048047 13070.301658939094 -2954.4193025402988 -162071.1472651741 -6601.475789204402 -2049.9032177074196
          7030.017095602823 5920.9389965136415 2339.5835831635923 -164169.98994014144 2209.988526137136 -372.85387362678193
          -107474.7535626758 -49923.48184453421 -24500.077939982457 -20538.273556443382 -20436.596385915756 73674.90690428237
          -354139.14005694585 -2969.6212787368677 -1246.6954745640041 -48401.65001500382 -42032.13773531269 -4550.169894077702
          -606530.4624405049 1122.3804949447494 595.3369513920834 -45561.961052833845 -21324.833705228746 -409.27724868266705
          -844037.9217532328 171.5944510184927 -2868.8480338777363 -46283.30494136548 -25881.783237161762 -276.6277689761473
          -225757.07876154015 -83765.53248188777 -163424.51147943467 17839.46254451694 -103071.00774039049 172787.57752073777
          -363823.44382254255 16615.08974037182 22760.3639993173 -56966.19517284761 -59145.31617612482 -19563.679263293703
          -599212.0117478422 -6897.778617691343 637.4144871351396 -74190.88808166489 -43093.44744925819 4032.0081876197182
          -845813.1576856134 2337.115605448922 -4577.665079853824 -69001.88881151483 -50417.24365910013 -1538.1310158527003
          -98135.72692689813 1233791.4212762462 -113143.98414354953 -311938.24665616907 -159532.22797540476 -321446.03414427425
          -399546.49755232036 -273747.0104398031 21358.24390698616 18548.337002764347 140.4545813912173 94844.03537905739
          -589638.4440841799 55052.75860991597 -1787.8342576502437 -135347.3827286792 -35280.9180361622 -24268.620083101832
          <InformationKey name="L2_NORM_RANGE" location="vtkDataArray" length="2">
            <Value index="0">
              64994.647263
            </Value>
            <Value index="1">
              1330697.94
            </Value>
          </InformationKey>
        </DataArray>
        <DataArray type="Float64" Name="Damage" format="ascii" RangeMin="0" RangeMax="0">
          0 0 0 0 0 0
          0 0 0 0 0 0
          0 0 0 0 0 0
          0 0 0 0 0 0
          0 0 0 0 0 0
          0 0 0 0 0
        </DataArray>
        <DataArray type="Float64" Name="Tau" format="ascii" RangeMin="8040844.011283461" RangeMax="8040844.011283461">
          8040844.011283461 8040844.011283461 8040844.011283461 8040844.011283461 8040844.011283461 8040844.011283461
          8040844.011283461 8040844.011283461 8040844.011283461 8040844.011283461 8040844.011283461 8040844.011283461
          8040844.011283461 8040844.011283461 8040844.011283461 8040844.011283461 8040844.011283461 8040844.011283461
          8040844.011283461 8040844.011283461 8040844.011283461 8040844.011283461 8040844.011283461 8040844.011283461
          8040844.011283461 8040844.011283461 8040844.011283461 8040844.011283461 8040844.011283461 8040844.011283461
          8040844.011283461 8040844.011283461 8040844.011283461 8040844.011283461 8040844.011283461
        </DataArray>
        <DataArray type="Float64" Name="ComparisonRatio" format="ascii" RangeMin="0.02367299685133496" RangeMax="0.30953570173487577">
          0.05914258201995525 0.07546727061448137 0.12156321459396408 0.1697467720566493 0.060269060704203965 0.07319352171254807
          0.12149111206070756 0.16984542593974117 0.24351478211704405 0.09662875134020993 0.12437129681355952 0.17053470056972425
          0.04154328674295615 0.02367299685133496 0.03577328682409765 0.049638993734406306 0.04668102614390982 0.027887175549368877
          0.03569166947833617 0.04914309987672473 0.2406928613954093 0.06421762979465831 0.042255425179346794 0.05294564814350515
          0.05532153775229924 0.07207326836848445 0.12145421358822288 0.1698827359614557 0.08847065377929159 0.07963967567359549
          0.12181626109339729 0.16943847761277933 0.30953570173487577 0.12032409478485336 0.12285416227334213
        </DataArray>
      </CellData>
      <Points>
        <DataArray type="Float32" Name="Points" NumberOfComponents="3" format="ascii" RangeMin="3.4021293991794836" RangeMax="11.657299898339286">
          11.40188980102539 -1.3746089935302734 2 11.40188980102539 -1.3746089935302734 1.3333330154418945
          11.40188980102539 -0.707939624786377 2 11.40188980102539 -0.707939624786377 1.3333330154418945
          11.40188980102539 -1.3746089935302734 0.6666666865348816 11.40188980102539 -0.041270170360803604 2
          11.40188980102539 -0.707939624786377 0.6666666865348816 11.40188980102539 -0.041270170360803604 1.3333330154418945
          11.40188980102539 -0.041270170360803604 0.6666666865348816 11.40188980102539 -1.3746089935302734 0
          9.401886940002441 -1.3746089935302734 2 11.40188980102539 0.6253991723060608 2
          11.40188980102539 -0.707939624786377 0 9.401886940002441 -1.3746089935302734 1.3333330154418945
          9.401886940002441 -0.707939624786377 2 11.40188980102539 0.6253991723060608 1.3333330154418945
          9.401886940002441 -0.707939624786377 1.3333330154418945 9.401886940002441 -1.3746089935302734 0.6666666865348816
          11.40188980102539 -0.041270170360803604 0 9.401886940002441 -0.041270170360803604 2
          11.40188980102539 0.6253991723060608 0.6666666865348816 9.401886940002441 -0.707939624786377 0.6666666865348816
          9.401886940002441 -0.041270170360803604 1.3333330154418945 9.401886940002441 -0.041270170360803604 0.6666666865348816
          9.401886940002441 -1.3746089935302734 0 11.40188980102539 0.6253991723060608 0
          9.401886940002441 0.6253991723060608 2 9.401886940002441 -0.707939624786377 0
          9.401886940002441 0.6253991723060608 1.3333330154418945 9.401886940002441 -0.041270170360803604 0
          9.401886940002441 0.6253991723060608 0.6666666865348816 9.401886940002441 0.6253991723060608 0
          7.401884078979492 -1.3746089935302734 2 7.401884078979492 -1.3746089935302734 1.3333330154418945
          7.401884078979492 -0.707939624786377 2 7.401884078979492 -0.707939624786377 1.3333330154418945
          7.401884078979492 -1.3746089935302734 0.6666666865348816 7.401884078979492 -0.041270170360803604 2
          7.401884078979492 -0.707939624786377 0.6666666865348816 7.401884078979492 -0.041270170360803604 1.3333330154418945
          7.401884078979492 -0.041270170360803604 0.6666666865348816 7.401884078979492 -1.3746089935302734 0
          7.401884078979492 0.6253991723060608 2 7.401884078979492 -0.707939624786377 0
          7.401884078979492 0.6253991723060608 1.3333330154418945 7.401884078979492 -0.041270170360803604 0
          7.401884078979492 0.6253991723060608 0.6666666865348816 7.401884078979492 0.6253991723060608 0
          5.401882171630859 -1.3746089935302734 0.6666666865348816 5.401882171630859 -0.041270170360803604 2
          5.401882171630859 -0.707939624786377 0.6666666865348816 5.401882171630859 -0.041270170360803604 1.3333330154418945
          5.401882171630859 -0.041270170360803604 0.6666666865348816 5.401882171630859 -1.3746089935302734 0
          5.401882171630859 0.6253991723060608 2 5.401882171630859 -0.707939624786377 0
          5.401882171630859 0.6253991723060608 1.3333330154418945 5.401882171630859 -0.041270170360803604 0
          5.401882171630859 0.6253991723060608 0.6666666865348816 5.401882171630859 0.6253991723060608 0
          3.401879072189331 -0.041270170360803604 0.6666666865348816 3.401879072189331 -0.041270170360803604 0
          3.401879072189331 0.6253991723060608 0.6666666865348816 3.401879072189331 0.6253991723060608 0
          3.401879072189331 -0.041270170360803604 1.3333330154418945 3.401879072189331 0.6253991723060608 1.3333330154418945
          3.401879072189331 -0.041270170360803604 2 3.401879072189331 0.6253991723060608 2
          3.401879072189331 -0.707939624786377 0.6666666865348816 3.401879072189331 -0.707939624786377 0
          5.401882171630859 -0.707939624786377 1.3333330154418945 3.401879072189331 -0.707939624786377 1.3333330154418945
          5.401882171630859 -0.707939624786377 2 3.401879072189331 -0.707939624786377 2
          3.401879072189331 -1.3746089935302734 0.6666666865348816 3.401879072189331 -1.3746089935302734 0
          5.401882171630859 -1.3746089935302734 1.3333330154418945 3.401879072189331 -1.3746089935302734 1.3333330154418945
          5.401882171630859 -1.3746089935302734 2
          <InformationKey name="L2_NORM_RANGE" location="vtkDataArray" length="2">
            <Value index="0">
              3.4021293992
            </Value>
            <Value index="1">
              11.657299898
            </Value>
          </InformationKey>
        </DataArray>
      </Points>
      <Cells>
        <DataArray type="Int64" Name="connectivity" format="ascii" RangeMin="0" RangeMax="78">
          23 8 18 29 30 20
          25 31 40 23 29 45
          46 30 31 47 52 40
          45 57 58 46 47 59
          60 52 57 61 62 58
          59 63 22 7 8 23
          28 15 20 30 39 22
          23 40 44 28 30 46
          51 39 40 52 56 44
          46 58 64 51 52 60
          65 56 58 62 19 5
          7 22 26 11 15 28
          37 19 22 39 42 26
          28 44 49 37 39 51
          54 42 44 56 66 49
          51 64 67 54 56 65
          21 6 12 27 23 8
          18 29 38 21 27 43
          40 23 29 45 50 38
          43 55 52 40 45 57
          68 50 55 69 60 52
          57 61 16 3 6 21
          22 7 8 23 35 16
          21 38 39 22 23 40
          70 35 38 50 51 39
          40 52 71 70 50 68
          64 51 52 60 14 2
          3 16 19 5 7 22
          34 14 16 35 37 19
          22 39 72 34 35 70
          49 37 39 51 73 72
          70 71 66 49 51 64
          17 4 9 24 21 6
          12 27 36 17 24 41
          38 21 27 43 48 36
          41 53 50 38 43 55
          74 48 53 75 68 50
          55 69 13 1 4 17
          16 3 6 21 33 13
          17 36 35 16 21 38
          76 33 36 48 70 35
          38 50 77 76 48 74
          71 70 50 68 10 0
          1 13 14 2 3 16
          32 10 13 33 34 14
          16 35 78 32 33 76
          72 34 35 70
        </DataArray>
        <DataArray type="Int64" Name="offsets" format="ascii" RangeMin="8" RangeMax="280">
          8 16 24 32 40 48
          56 64 72 80 88 96
          104 112 120 128 136 144
          152 160 168 176 184 192
          200 208 216 224 232 240
          248 256 264 272 280
        </DataArray>
        <DataArray type="UInt8" Name="types" format="ascii" RangeMin="12" RangeMax="12">
          12 12 12 12 12 12
          12 12 12 12 12 12
          12 12 12 12 12 12
          12 12 12 12 12 12
          12 12 12 12 12 12
          12 12 12 12 12
        </DataArray>
      </Cells>
    </Piece>
  </UnstructuredGrid>
</VTKFile>
