<?xml version="1.0"?>
<VTKFile type="UnstructuredGrid" version="0.1" byte_order="LittleEndian" header_type="UInt32" compressor="vtkZLibDataCompressor">
  <UnstructuredGrid>
    <Piece NumberOfPoints="98" NumberOfCells="44">
      <PointData>
        <DataArray type="Float64" Name="plcd_BC" NumberOfComponents="3" format="ascii" RangeMin="0" RangeMax="0">
          0 0 0 0 0 0
          0 0 0 0 0 0
          0 0 0 0 0 0
          0 0 0 0 0 0
          0 0 0 0 0 0
          0 0 0 0 0 0
          0 0 0 0 0 0
          0 0 0 0 0 0
          0 0 0 0 0 0
          0 0 0 0 0 0
          0 0 0 0 0 0
          0 0 0 0 0 0
          0 0 0 0 0 0
          0 0 0 0 0 0
          0 0 0 0 0 0
          0 0 0 0 0 0
          0 0 0 0 0 0
          0 0 0 0 0 0
          0 0 0 0 0 0
          0 0 0 0 0 0
          0 0 0 0 0 0
          0 0 0 0 0 0
          0 0 0 0 0 0
          0 0 0 0 0 0
          0 0 0 0 0 0
          0 0 0 0 0 0
          0 0 0 0 0 0
          0 0 0 0 0 0
          0 0 0 0 0 0
          0 0 0 0 0 0
          0 0 0 0 0 0
          0 0 0 0 0 0
          0 0 0 0 0 0
          0 0 0 0 0 0
          0 0 0 0 0 0
          0 0 0 0 0 0
          0 0 0 0 0 0
          0 0 0 0 0 0
          0 0 0 0 0 0
          0 0 0 0 0 0
          0 0 0 0 0 0
          0 0 0 0 0 0
          0 0 0 0 0 0
          0 0 0 0 0 0
          0 0 0 0 0 0
          0 0 0 0 0 0
          0 0 0 0 0 0
          0 0 0 0 0 0
          0 0 0 0 0 0
          <InformationKey name="L2_NORM_RANGE" location="vtkDataArray" length="2">
            <Value index="0">
              0
            </Value>
            <Value index="1">
              0
            </Value>
          </InformationKey>
        </DataArray>
        <DataArray type="Float64" Name="plcd_FIXNO" NumberOfComponents="3" format="ascii" RangeMin="1.7320508075688772" RangeMax="1.7320508075688772">
          -1 -1 -1 -1 -1 -1
          -1 -1 -1 -1 -1 -1
          -1 -1 -1 -1 -1 -1
          -1 -1 -1 -1 -1 -1
          -1 -1 -1 -1 -1 -1
          -1 -1 -1 -1 -1 -1
          -1 -1 -1 -1 -1 -1
          -1 -1 -1 -1 -1 -1
          -1 -1 -1 -1 -1 -1
          -1 -1 -1 -1 -1 -1
          -1 -1 -1 -1 -1 -1
          -1 -1 -1 -1 -1 -1
          -1 -1 -1 -1 -1 -1
          -1 -1 -1 -1 -1 -1
          -1 -1 -1 -1 -1 -1
          -1 -1 -1 -1 -1 -1
          -1 -1 -1 -1 -1 -1
          -1 -1 -1 -1 -1 -1
          -1 -1 -1 -1 -1 -1
          -1 -1 -1 -1 -1 -1
          -1 -1 -1 -1 -1 -1
          -1 -1 -1 -1 -1 -1
          -1 -1 -1 -1 -1 -1
          -1 -1 -1 -1 -1 -1
          -1 -1 -1 -1 -1 -1
          -1 -1 -1 -1 -1 -1
          -1 -1 -1 -1 -1 -1
          -1 -1 -1 -1 -1 -1
          -1 -1 -1 -1 -1 -1
          -1 -1 -1 -1 -1 -1
          -1 -1 -1 -1 -1 -1
          -1 -1 -1 -1 -1 -1
          -1 -1 -1 -1 -1 -1
          -1 -1 -1 -1 -1 -1
          -1 -1 -1 -1 -1 -1
          -1 -1 -1 -1 -1 -1
          -1 -1 -1 -1 -1 -1
          -1 -1 -1 -1 -1 -1
          -1 -1 -1 -1 -1 -1
          -1 -1 -1 -1 -1 -1
          -1 -1 -1 -1 -1 -1
          -1 -1 -1 -1 -1 -1
          -1 -1 -1 -1 -1 -1
          -1 -1 -1 -1 -1 -1
          -1 -1 -1 -1 -1 -1
          -1 -1 -1 -1 -1 -1
          -1 -1 -1 -1 -1 -1
          -1 -1 -1 -1 -1 -1
          -1 -1 -1 -1 -1 -1
          <InformationKey name="L2_NORM_RANGE" location="vtkDataArray" length="2">
            <Value index="0">
              1.7320508076
            </Value>
            <Value index="1">
              1.7320508076
            </Value>
          </InformationKey>
        </DataArray>
        <DataArray type="Float64" Name="Displacement" NumberOfComponents="3" format="ascii" RangeMin="0.0012898261454580425" RangeMax="0.012219029843043362">
          -0.0010258232430236229 -0.010027522225507155 -0.0001954813303432373 -0.001026565833830049 -0.009902360850365428 -0.0001994676563676052
          -0.00033774077080265754 -0.010030982260975794 -0.00006571427796295977 -0.00034083824334085863 -0.009899194129429354 -0.00006642889598633312
          -0.0009723520361091446 -0.00800594634234209 -0.00017265732057711265 -0.0009741263116785114 -0.007888048948098539 -0.00017659740004550095
          -0.0003229105485975044 -0.008001926164222775 -0.00005744327215842889 -0.00032389210383206637 -0.007885630414811565 -0.000058887645739199586
          -0.000971724396323396 -0.007769321740156559 -0.00018090407636373336 0.0003224117677246886 -0.008002677154325247 0.00005763065767656616
          -0.0003238840714457391 -0.007766593955351658 -0.00006036791145941839 0.0003239608807218905 -0.007885989383449983 0.00005896249727936746
          0.0003239353413693694 -0.007766643672813985 0.00006024242497140237 -0.0009727451730794758 -0.007647389640283633 -0.0001850140812523815
          0.0009729636212905081 -0.008004823805556659 0.0001729275765322841 -0.00032508646465155306 -0.0076446815059252405 -0.00006174991962262495
          0.0009742317448411941 -0.007888944733242052 0.00017695834382474296 0.0003250927694526255 -0.007644666822561281 0.00006160393668024132
          0.000971533596214949 -0.007769380802297006 0.00018088125309575259 0.0009727003526620446 -0.007647396193205028 0.0001849043900268505
          -0.0009065322050317526 -0.006095883466777415 -0.00015001177498077635 -0.0009079460373408833 -0.005994501832002034 -0.00015510819423540732
          -0.0003003767839565139 -0.006092674376686754 -0.00004998585070005454 -0.00030190070853498895 -0.005990923593249664 -0.000051693511046512963
          -0.0009053417277604282 -0.005889283347012661 -0.00016014577774572925 0.00030043655277447334 -0.00609244888250151 0.000049952336964771975
          -0.00030188280555938564 -0.0058857806702189005 -0.00005336539726367481 0.0003018499808937815 -0.005990839480639479 0.0000516786028966195
          0.0003018735879531433 -0.0058857825728206945 0.00005339518627422956 -0.0009064537274230523 -0.0057808193342178005 -0.00016524036208953054
          0.0009064414306878286 -0.006096132147392143 0.00014993702164949616 -0.0003030483322390907 -0.0057772822589448256 -0.00005509403630200209
          0.0009080140944800369 -0.005994289235869057 0.00015503551646090866 0.0003030291814596902 -0.00577729186098987 0.000055120986106068316
          0.0009054195585997107 -0.005889294841747074 0.00016016252785716996 0.0009064453096818057 -0.005780828664673327 0.00016526278902309285
          -0.00082320691962843 -0.004335196458455192 -0.0001259493173818275 -0.0008247860300664061 -0.0042489556392010085 -0.00013248339011071418
          -0.00027250132072055317 -0.004330641330823783 -0.00004189738153366105 -0.00027394486118378534 -0.004244563958453979 -0.000044118334463257044
          -0.0008217456881712109 -0.004158462328986827 -0.00013917224495371157 0.000272498209222498 -0.004330698338356588 0.00004190290982794463
          -0.0002737692993646108 -0.004154032712672678 -0.000046367906796341824 0.000273963470101932 -0.004244578117983353 0.000044122566894379714
          0.00027376964648811135 -0.004154027127560126 0.000046364600789985515 -0.0008225691069634358 -0.0040634625691486626 -0.00014578463919785175
          0.0008232131896365491 -0.004335119147714268 0.0001259620980226291 -0.0002747946342232497 -0.004059056458173443 -0.000048622739379371425
          0.0008247492767521328 -0.004248999262272137 0.00013249565883371065 0.00027480085610781426 -0.004059051967560448 0.000048623136957124656
          0.0008217245685944556 -0.004158449534094761 0.0001391692634848073 0.0008225786731568731 -0.004063455743700432 0.00014578631796479592
          0.0002361986504707231 -0.0026172913093889727 0.00003863882519652681 0.000237304976585708 -0.0025369637817571292 0.00004167058718704801
          0.0007097180280930981 -0.0026231046318950565 0.00011605445166269817 0.0007104911456293531 -0.0025427936899425196 0.0001249957989245742
          0.0003410047469831935 -0.009764921416370937 0.00006738720902096377 0.00034236041331212026 -0.009629590858215426 0.00006847097390083515
          0.0010231060029077558 -0.009766933863637904 0.000201588222188597 0.0010242667377207341 -0.009631718697795591 0.0002047639882926589
          0.0003411906318781626 -0.009898095067896958 0.00006607460766932319 0.0010248832694299845 -0.00989934623292084 0.00019811359775044032
          0.00034067061387248144 -0.010029255827099298 0.00006487700926963345 0.0010228771604501579 -0.010033901344604499 0.00019530502029145152
          -0.00034113851444678687 -0.00976517404705229 -0.00006705210071872418 -0.00034206144599659784 -0.009629522292856166 -0.00006802634073924003
          -0.00035515027417426986 -0.011997863098889817 -0.00007212939706358621 -0.00035338875644855516 -0.011851431008416529 -0.00007391955306938465
          0.0003518476075972964 -0.011999678163490167 0.00007414582652143524 0.00035342176986737317 -0.011852099304012865 0.00007397069659180802
          -0.00035943249681388617 -0.012145046268129059 -0.0000703700788482733 0.0003467836473641832 -0.012144868457582569 0.00007395529067477572
          -0.0010229107118886389 -0.009767268718334042 -0.00020182471633996193 -0.0010238945370978254 -0.00963168038519014 -0.00020459661734069652
          -0.0010578846809289326 -0.01199607355550478 -0.0002177840521879283 -0.0010599075245314442 -0.01185294690672479 -0.00022059212889973554
          -0.001055432675747133 -0.012171338590879004 -0.00022196639008870256 0.00023664032710771565 -0.0026917125579492035 0.000035738440561752867
          0.0007135926422443026 -0.002697526311998048 0.00010732759491458827 0.00023529129627901247 -0.002760274123971056 0.000032729589874425006
          0.0007123451190960139 -0.00276617353215156 0.00009840990054922803 -0.00023619786443845222 -0.002617288782579656 -0.00003863856831674258
          -0.0002373054427018075 -0.002536962359907075 -0.00004167198857670736 -0.00023664538332648425 -0.0026917137689291513 -0.000035739164786060446
          -0.00018860455828883632 -0.0013963072357138333 -0.000026171418009443053 -0.0001877001319447693 -0.0013397463240284338 -0.000030039916678503586
          0.0001886057096392606 -0.001396307001140692 0.00002617157281075896 0.00018769973413526004 -0.0013397455661109815 0.000030039888370503233
          -0.00023529154267896914 -0.0027602873889867297 -0.00003273000708302703 -0.0007097147075381155 -0.002623099117926034 -0.00011605416076987431
          -0.000710495033357845 -0.002542791157892223 -0.00012499807096423614 -0.0007135814029050125 -0.0026975340700651188 -0.00010732867068024928
          -0.0007123435725905561 -0.0027661477617327993 -0.0000984100484778939 0.0001878796646116145 -0.0012756214016135259 0.00003380468722119217
          0.0005622087249205997 -0.001346375300351693 0.00009026671504774232 0.0005612465723027546 -0.0012822843764085355 0.00010125886199320289
          0.0005672164322438656 -0.0014027937007064632 0.00007872345133157205 -0.00018787985992053905 -0.001275621662015172 -0.0000338041722825845
          <InformationKey name="L2_NORM_RANGE" location="vtkDataArray" length="2">
            <Value index="0">
              0.0012898261455
            </Value>
            <Value index="1">
              0.012219029843
            </Value>
          </InformationKey>
        </DataArray>
      </PointData>
      <CellData>
        <DataArray type="UInt8" Name="vtkGhostType" format="ascii" RangeMin="0" RangeMax="1">
          1 1 1 1 1 1
          1 1 1 1 1 1
          0 0 0 0 0 0
          0 0 0 0 0 0
          0 0 0 0 0 0
          0 0 0 0 0 0
          0 0 0 0 0 0
          0 0
        </DataArray>
        <DataArray type="Float64" Name="Stress" NumberOfComponents="6" format="ascii" RangeMin="91400.66914275307" RangeMax="4481604.470912161">
          2062076.10889253 556.9469052560853 -835.1196572183635 77742.82078514305 248284.4037437928 -1412.007124087264
          2050093.0459907067 24584.17390682652 -13870.854953587736 -169644.5921902188 434997.2677728739 7004.580939517013
          2023028.4614678007 -72624.93313845099 -12010.272180573127 -483582.730272296 259468.94780660333 -46947.0631296903
          2625.216138752876 6833.482901497828 -2019.9512256909657 167649.55372468996 -694.8321947624281 503.86186174812246
          -56957.91643415732 -55801.54204952501 33735.56452463016 -246517.25340927287 -40052.639120505046 -1841.4977927189066
          7776.956162221875 41625.29294371343 -11633.176389913979 -266619.877221285 9560.607137683357 -3253.8367398791943
          -294143.66426641087 -11518.403653267895 -15327.969038500567 -675569.6621072002 -83758.16135978675 -30291.089521234055
          80793.62120105873 98574.92677487971 20997.315484371793 -746766.7060881646 28362.98805894089 1573.971377549351
          -2051062.7324374507 2211.9979231489924 -14541.741744118195 72109.12469842291 -254590.4547627312 1050.5416070678257
          -1432817.782088291 -71152.2725038772 25198.86010946369 -211262.76236758422 -365282.80250003684 27242.655385668626
          -2069019.694146622 26631.748854527723 -34376.948078898655 -171697.1568663811 -466801.5745233208 -15265.417044408869
          -1280049.311380337 821934.6116394652 6302.458103736956 -822234.0113832274 -304513.43631191616 -359682.7444211083
          -2106310.7168590478 -170901.63484167313 -24371.95141796387 -359944.7640174987 -258587.33881250306 85261.57868896482
          2647182.7878247336 -6214.607487938174 5121.411648388588 71870.22949989125 249011.45638563306 -1334.528278533604
          3355282.84657335 -10656.784481503011 -4202.815652021332 61074.06131885163 259079.21506875264 -938.6893883165649
          4025050.323965852 2330.692183582927 7933.780207345488 124166.471462368 260687.764010048 1506.794722846109
          2647691.4948311853 -10995.688842543266 11616.39294704986 -173764.6462761134 450349.9565625088 -3794.882422175371
          3339512.258858769 -12138.049768220186 -10417.305558044793 -178619.63538597044 467901.1217142276 2755.550511559435
          4035160.1847452074 2794.417642593573 17681.442720479077 -111834.79863675355 483557.32192985935 3927.429515230946
          2656872.876748901 9799.25985293169 11569.879168609717 -432454.71053834225 263216.1003389111 11410.93151820281
          3328994.8767621773 -21116.362228233735 -6354.1993784786155 -454482.4500399424 273705.6227755698 1489.8955493262656
          4022213.9903471926 -8008.542629656826 4902.3713658743 -389757.9920108861 297317.0444188389 4485.66034007027
          1138.724700437946 -1657.4567665605646 941.17095213433 167535.92108301193 -1013.5095483225396 1106.1883639013995
          -620.802383503702 -240.83632723629853 -219.8411202569123 129654.52117791335 445.18009975172026 219.15733974117757
          160.47868424613262 310.87587208074547 6.945301461724739 91399.81298103638 -96.89103390477248 -157.07784371036178
          738.847886491305 -13634.077835882403 4295.844610846572 -260407.86071590145 -852.4274141836213 168.65430478719827
          -841.0879773402412 2875.5280945750274 -1244.9110286757395 -293054.8944248204 -345.8079195480168 -3306.14186322732
          347.2994958293275 -308.446068916528 303.2393843677364 -346010.96862719674 239.581106472564 -3748.9739606698386
          -99.9254404134117 -49.67286720502307 -67.32542925012422 -316342.6434150764 -83.51105795220064 -14727.524779625692
          -16925.547175269283 -41247.878367806254 -7989.643811320976 -719866.4125795892 -6573.500500005235 -2062.5831133493593
          2868.5707857572415 11816.163369543021 2304.85706181196 -768638.2416169376 1290.1578869148798 -3861.293088684957
          -390.56863836426055 -2756.7566838933344 -588.8088047484453 -844094.8227371508 -246.87783992683217 -6610.7201985584
          -2650011.960707757 4617.473444704396 -1347.2305052737138 75925.31417860268 -252199.87050097005 -1521.1951989519966
          -3354653.463519916 10723.866507414794 3845.008742289414 59975.3339504381 -257349.93512033092 -876.6087064349813
          -4025181.941199989 -2140.6941007284913 -8088.419555860557 124282.48652508075 -261187.8700857999 1437.3258148788555
          -2648251.2537039276 -4818.735885630893 5194.140939628243 -163566.84417202347 -443433.20978923887 5835.540312220863
          -3337601.9294101195 16094.455683917491 6639.178463625769 -183020.6877618431 -469123.6063333043 -433.75518480070605
          -4035981.443537712 -3634.6301357464545 -17143.529153923588 -110529.58758934215 -483423.19669478113 4824.110661060513
          -2638435.6124720783 41766.35406410443 3183.1507536549943 -446025.30780535296 -258504.94737976842 -17901.85717015779
          -3332469.847115504 8668.432957350167 2161.0896278365435 -454966.5236885962 -275638.0135613808 7542.815283877408
          -4021500.5566538917 11495.98889790097 -3903.4685290721136 -389000.3000200245 -296835.36209529295 3258.1973469363948
          4470776.403598835 43747.75650247696 44590.28789345542 102327.41025350842 287261.1301810624 -6705.739946190144
          4445418.915127496 35471.75909207865 22824.355486810677 -107754.85527774683 479375.74064234586 -1000.7445908559039
          -9.027061385742854 -129.3248004051129 21.12213411447192 103600.37973146013 9.407883244773984 -11070.066468527977
          <InformationKey name="L2_NORM_RANGE" location="vtkDataArray" length="2">
            <Value index="0">
              91400.669143
            </Value>
            <Value index="1">
              4481604.4709
            </Value>
          </InformationKey>
        </DataArray>
        <DataArray type="Float64" Name="Damage" format="ascii" RangeMin="0" RangeMax="0.19277318253850023">
          0 0 0 0 0 0
          0 0 0 0 0 0
          0 0 0 0.08039285850312125 0 0
          0.07645300441490424 0 0 0.07430577550656584 0 0
          0 0 0 0 0 0
          0 0 0 0 0.08037816103522424 0
          0 0.07642884557778702 0 0 0.07431314702952252 0.19277318253850023
          0.1881036279891368 0
        </DataArray>
        <DataArray type="Float64" Name="Tau" format="ascii" RangeMin="8040844.011283461" RangeMax="10600430.805149201">
          8040844.011283461 8040844.011283461 8040844.011283461 8040844.011283461 8040844.011283461 8040844.011283461
          8040844.011283461 8040844.011283461 8040844.011283461 8040844.011283461 8040844.011283461 8040844.011283461
          8040844.011283461 8040844.011283461 8040844.011283461 8842016.95460612 8040844.011283461 8040844.011283461
          8796648.355464961 8040844.011283461 8040844.011283461 8772697.194954759 8040844.011283461 8040844.011283461
          8040844.011283461 8040844.011283461 8040844.011283461 8040844.011283461 8040844.011283461 8040844.011283461
          8040844.011283461 8040844.011283461 8040844.011283461 8040844.011283461 8841869.916258035 8040844.011283461
          8040844.011283461 8796434.641947675 8040844.011283461 8040844.011283461 8772802.738408908 10600430.805149201
          10522435.87016584 8040844.011283461
        </DataArray>
        <DataArray type="Float64" Name="ComparisonRatio" format="ascii" RangeMin="0.10323062503212395" RangeMax="1.2751037977188298">
          0.4346065592817696 0.4296509302449929 0.44367629938730974 0.15566122738951635 0.10323062503212395 0.12451745333300815
          0.1995285156581999 0.17948276457733262 0.43595963556637773 0.3302778822832954 0.42574496599722783 0.39957539497022365
          0.4407804496237955 0.5547688133498404 0.7125206613899857 0.9357596856315457 0.5469832848756964 0.7023386511525647
          0.9207398533217881 0.556039885577571 0.705606243016498 0.918571030123565 0.18749760894436632 0.2371341546601596
          0.3069536089072419 0.15831173472360568 0.20355092696033095 0.26750408088419814 0.3732104471083139 0.20247338304822649
          0.23271829425342275 0.2820291427680565 0.5544534394904997 0.7125712528551514 0.9357502437957426 0.5481783584566668
          0.702177635497753 0.9207297701045234 0.5578887204342858 0.7052893167163309 0.9185892680435691 1.2751037977188298
          1.2553276267068023 0.4180852461689155
        </DataArray>
      </CellData>
      <Points>
        <DataArray type="Float32" Name="Points" NumberOfComponents="3" format="ascii" RangeMin="0.5995491172905656" RangeMax="7.789572376179863">
          5.401882171630859 -1.3746089935302734 2 5.401882171630859 -1.3746089935302734 1.3333330154418945
          5.401882171630859 -0.707939624786377 2 5.401882171630859 -0.707939624786377 1.3333330154418945
          3.401879072189331 -1.3746089935302734 2 3.401879072189331 -1.3746089935302734 1.3333330154418945
          3.401879072189331 -0.707939624786377 2 3.401879072189331 -0.707939624786377 1.3333330154418945
          3.401879072189331 -1.3746089935302734 0.6666666865348816 3.401879072189331 -0.041270170360803604 2
          3.401879072189331 -0.707939624786377 0.6666666865348816 3.401879072189331 -0.041270170360803604 1.3333330154418945
          3.401879072189331 -0.041270170360803604 0.6666666865348816 3.401879072189331 -1.3746089935302734 0
          3.401879072189331 0.6253991723060608 2 3.401879072189331 -0.707939624786377 0
          3.401879072189331 0.6253991723060608 1.3333330154418945 3.401879072189331 -0.041270170360803604 0
          3.401879072189331 0.6253991723060608 0.6666666865348816 3.401879072189331 0.6253991723060608 0
          1.4018759727478027 -1.3746089935302734 2 1.4018759727478027 -1.3746089935302734 1.3333330154418945
          1.4018759727478027 -0.707939624786377 2 1.4018759727478027 -0.707939624786377 1.3333330154418945
          1.4018759727478027 -1.3746089935302734 0.6666666865348816 1.4018759727478027 -0.041270170360803604 2
          1.4018759727478027 -0.707939624786377 0.6666666865348816 1.4018759727478027 -0.041270170360803604 1.3333330154418945
          1.4018759727478027 -0.041270170360803604 0.6666666865348816 1.4018759727478027 -1.3746089935302734 0
          1.4018759727478027 0.6253991723060608 2 1.4018759727478027 -0.707939624786377 0
          1.4018759727478027 0.6253991723060608 1.3333330154418945 1.4018759727478027 -0.041270170360803604 0
          1.4018759727478027 0.6253991723060608 0.6666666865348816 1.4018759727478027 0.6253991723060608 0
          -0.598127007484436 -1.3746089935302734 2 -0.598127007484436 -1.3746089935302734 1.3333330154418945
          -0.598127007484436 -0.707939624786377 2 -0.598127007484436 -0.707939624786377 1.3333330154418945
          -0.598127007484436 -1.3746089935302734 0.6666666865348816 -0.598127007484436 -0.041270170360803604 2
          -0.598127007484436 -0.707939624786377 0.6666666865348816 -0.598127007484436 -0.041270170360803604 1.3333330154418945
          -0.598127007484436 -0.041270170360803604 0.6666666865348816 -0.598127007484436 -1.3746089935302734 0
          -0.598127007484436 0.6253991723060608 2 -0.598127007484436 -0.707939624786377 0
          -0.598127007484436 0.6253991723060608 1.3333330154418945 -0.598127007484436 -0.041270170360803604 0
          -0.598127007484436 0.6253991723060608 0.6666666865348816 -0.598127007484436 0.6253991723060608 0
          -2.598129987716675 -0.041270170360803604 0.6666666865348816 -2.598129987716675 -0.041270170360803604 0
          -2.598129987716675 0.6253991723060608 0.6666666865348816 -2.598129987716675 0.6253991723060608 0
          5.401882171630859 -0.041270170360803604 0.6666666865348816 5.401882171630859 -0.041270170360803604 0
          5.401882171630859 0.6253991723060608 0.6666666865348816 5.401882171630859 0.6253991723060608 0
          5.401882171630859 -0.041270170360803604 1.3333330154418945 5.401882171630859 0.6253991723060608 1.3333330154418945
          5.401882171630859 -0.041270170360803604 2 5.401882171630859 0.6253991723060608 2
          5.401882171630859 -0.707939624786377 0.6666666865348816 5.401882171630859 -0.707939624786377 0
          7.401884078979492 -0.707939624786377 1.3333330154418945 7.401884078979492 -0.707939624786377 0.6666666865348816
          7.401884078979492 -0.041270170360803604 1.3333330154418945 7.401884078979492 -0.041270170360803604 0.6666666865348816
          7.401884078979492 -0.707939624786377 2 7.401884078979492 -0.041270170360803604 2
          5.401882171630859 -1.3746089935302734 0.6666666865348816 5.401882171630859 -1.3746089935302734 0
          7.401884078979492 -1.3746089935302734 1.3333330154418945 7.401884078979492 -1.3746089935302734 0.6666666865348816
          7.401884078979492 -1.3746089935302734 2 -2.598129987716675 -0.041270170360803604 1.3333330154418945
          -2.598129987716675 0.6253991723060608 1.3333330154418945 -2.598129987716675 -0.041270170360803604 2
          -2.598129987716675 0.6253991723060608 2 -2.598129987716675 -0.707939624786377 0.6666666865348816
          -2.598129987716675 -0.707939624786377 0 -2.598129987716675 -0.707939624786377 1.3333330154418945
          -4.598133087158203 -0.707939624786377 1.3333330154418945 -4.598133087158203 -0.707939624786377 0.6666666865348816
          -4.598133087158203 -0.041270170360803604 1.3333330154418945 -4.598133087158203 -0.041270170360803604 0.6666666865348816
          -2.598129987716675 -0.707939624786377 2 -2.598129987716675 -1.3746089935302734 0.6666666865348816
          -2.598129987716675 -1.3746089935302734 0 -2.598129987716675 -1.3746089935302734 1.3333330154418945
          -2.598129987716675 -1.3746089935302734 2 -4.598133087158203 -0.041270170360803604 0
          -4.598133087158203 0.6253991723060608 0.6666666865348816 -4.598133087158203 0.6253991723060608 0
          -4.598133087158203 0.6253991723060608 1.3333330154418945 -4.598133087158203 -0.707939624786377 0
          <InformationKey name="L2_NORM_RANGE" location="vtkDataArray" length="2">
            <Value index="0">
              0.59954911729
            </Value>
            <Value index="1">
              7.7895723762
            </Value>
          </InformationKey>
        </DataArray>
      </Points>
      <Cells>
        <DataArray type="Int64" Name="connectivity" format="ascii" RangeMin="0" RangeMax="97">
          12 56 57 17 18 58
          59 19 11 60 56 12
          16 61 58 18 9 62
          60 11 14 63 61 16
          10 64 65 15 12 56
          57 17 3 66 67 64
          60 68 69 56 7 3
          64 10 11 60 56 12
          2 70 66 3 62 71
          68 60 6 2 3 7
          9 62 60 11 8 72
          73 13 10 64 65 15
          1 74 75 72 3 66
          67 64 5 1 72 8
          7 3 64 10 0 76
          74 1 2 70 66 3
          4 0 1 5 6 2
          3 7 28 12 17 33
          34 18 19 35 44 28
          33 49 50 34 35 51
          52 44 49 53 54 50
          51 55 27 11 12 28
          32 16 18 34 43 27
          28 44 48 32 34 50
          77 43 44 52 78 48
          50 54 25 9 11 27
          30 14 16 32 41 25
          27 43 46 30 32 48
          79 41 43 77 80 46
          48 78 26 10 15 31
          28 12 17 33 42 26
          31 47 44 28 33 49
          81 42 47 82 52 44
          49 53 23 7 10 26
          27 11 12 28 39 23
          26 42 43 27 28 44
          83 39 42 81 77 43
          44 52 84 83 81 85
          86 77 52 87 22 6
          7 23 25 9 11 27
          38 22 23 39 41 25
          27 43 88 38 39 83
          79 41 43 77 24 8
          13 29 26 10 15 31
          40 24 29 45 42 26
          31 47 89 40 45 90
          81 42 47 82 21 5
          8 24 23 7 10 26
          37 21 24 40 39 23
          26 42 91 37 40 89
          83 39 42 81 20 4
          5 21 22 6 7 23
          36 20 21 37 38 22
          23 39 92 36 37 91
          88 38 39 83 87 52
          53 93 94 54 55 95
          86 77 52 87 96 78
          54 94 85 81 82 97
          87 52 53 93
        </DataArray>
        <DataArray type="Int64" Name="offsets" format="ascii" RangeMin="8" RangeMax="352">
          8 16 24 32 40 48
          56 64 72 80 88 96
          104 112 120 128 136 144
          152 160 168 176 184 192
          200 208 216 224 232 240
          248 256 264 272 280 288
          296 304 312 320 328 336
          344 352
        </DataArray>
        <DataArray type="UInt8" Name="types" format="ascii" RangeMin="12" RangeMax="12">
          12 12 12 12 12 12
          12 12 12 12 12 12
          12 12 12 12 12 12
          12 12 12 12 12 12
          12 12 12 12 12 12
          12 12 12 12 12 12
          12 12 12 12 12 12
          12 12
        </DataArray>
      </Cells>
    </Piece>
  </UnstructuredGrid>
</VTKFile>
