<?xml version="1.0"?>
<VTKFile type="UnstructuredGrid" version="0.1" byte_order="LittleEndian" header_type="UInt32" compressor="vtkZLibDataCompressor">
  <UnstructuredGrid>
    <Piece NumberOfPoints="98" NumberOfCells="44">
      <PointData>
        <DataArray type="Float64" Name="plcd_BC" NumberOfComponents="3" format="ascii" RangeMin="0" RangeMax="0">
          0 0 0 0 0 0
          0 0 0 0 0 0
          0 0 0 0 0 0
          0 0 0 0 0 0
          0 0 0 0 0 0
          0 0 0 0 0 0
          0 0 0 0 0 0
          0 0 0 0 0 0
          0 0 0 0 0 0
          0 0 0 0 0 0
          0 0 0 0 0 0
          0 0 0 0 0 0
          0 0 0 0 0 0
          0 0 0 0 0 0
          0 0 0 0 0 0
          0 0 0 0 0 0
          0 0 0 0 0 0
          0 0 0 0 0 0
          0 0 0 0 0 0
          0 0 0 0 0 0
          0 0 0 0 0 0
          0 0 0 0 0 0
          0 0 0 0 0 0
          0 0 0 0 0 0
          0 0 0 0 0 0
          0 0 0 0 0 0
          0 0 0 0 0 0
          0 0 0 0 0 0
          0 0 0 0 0 0
          0 0 0 0 0 0
          0 0 0 0 0 0
          0 0 0 0 0 0
          0 0 0 0 0 0
          0 0 0 0 0 0
          0 0 0 0 0 0
          0 0 0 0 0 0
          0 0 0 0 0 0
          0 0 0 0 0 0
          0 0 0 0 0 0
          0 0 0 0 0 0
          0 0 0 0 0 0
          0 0 0 0 0 0
          0 0 0 0 0 0
          0 0 0 0 0 0
          0 0 0 0 0 0
          0 0 0 0 0 0
          0 0 0 0 0 0
          0 0 0 0 0 0
          0 0 0 0 0 0
          <InformationKey name="L2_NORM_RANGE" location="vtkDataArray" length="2">
            <Value index="0">
              0
            </Value>
            <Value index="1">
              0
            </Value>
          </InformationKey>
        </DataArray>
        <DataArray type="Float64" Name="plcd_FIXNO" NumberOfComponents="3" format="ascii" RangeMin="1.7320508075688772" RangeMax="1.7320508075688772">
          -1 -1 -1 -1 -1 -1
          -1 -1 -1 -1 -1 -1
          -1 -1 -1 -1 -1 -1
          -1 -1 -1 -1 -1 -1
          -1 -1 -1 -1 -1 -1
          -1 -1 -1 -1 -1 -1
          -1 -1 -1 -1 -1 -1
          -1 -1 -1 -1 -1 -1
          -1 -1 -1 -1 -1 -1
          -1 -1 -1 -1 -1 -1
          -1 -1 -1 -1 -1 -1
          -1 -1 -1 -1 -1 -1
          -1 -1 -1 -1 -1 -1
          -1 -1 -1 -1 -1 -1
          -1 -1 -1 -1 -1 -1
          -1 -1 -1 -1 -1 -1
          -1 -1 -1 -1 -1 -1
          -1 -1 -1 -1 -1 -1
          -1 -1 -1 -1 -1 -1
          -1 -1 -1 -1 -1 -1
          -1 -1 -1 -1 -1 -1
          -1 -1 -1 -1 -1 -1
          -1 -1 -1 -1 -1 -1
          -1 -1 -1 -1 -1 -1
          -1 -1 -1 -1 -1 -1
          -1 -1 -1 -1 -1 -1
          -1 -1 -1 -1 -1 -1
          -1 -1 -1 -1 -1 -1
          -1 -1 -1 -1 -1 -1
          -1 -1 -1 -1 -1 -1
          -1 -1 -1 -1 -1 -1
          -1 -1 -1 -1 -1 -1
          -1 -1 -1 -1 -1 -1
          -1 -1 -1 -1 -1 -1
          -1 -1 -1 -1 -1 -1
          -1 -1 -1 -1 -1 -1
          -1 -1 -1 -1 -1 -1
          -1 -1 -1 -1 -1 -1
          -1 -1 -1 -1 -1 -1
          -1 -1 -1 -1 -1 -1
          -1 -1 -1 -1 -1 -1
          -1 -1 -1 -1 -1 -1
          -1 -1 -1 -1 -1 -1
          -1 -1 -1 -1 -1 -1
          -1 -1 -1 -1 -1 -1
          -1 -1 -1 -1 -1 -1
          -1 -1 -1 -1 -1 -1
          -1 -1 -1 -1 -1 -1
          -1 -1 -1 -1 -1 -1
          <InformationKey name="L2_NORM_RANGE" location="vtkDataArray" length="2">
            <Value index="0">
              1.7320508076
            </Value>
            <Value index="1">
              1.7320508076
            </Value>
          </InformationKey>
        </DataArray>
        <DataArray type="Float64" Name="Displacement" NumberOfComponents="3" format="ascii" RangeMin="0.00022151573797149726" RangeMax="0.0028633682521107652">
          -0.00027309137379269053 -0.0022798212844064546 -0.000014307539991096734 -0.0002732585793329166 -0.0022703211820951316 -0.000015592745708386973
          -0.00009051479779541246 -0.0022793348387813595 -0.0000048065439732366 -0.00009082782452131168 -0.0022693724158743536 -0.000005222802566753182
          -0.00025180682151648606 -0.0017495204860828277 -0.000011345851285201708 -0.00025204723695590513 -0.001741294798275022 -0.000013010235237744298
          -0.00008365381175599835 -0.0017483078107864917 -0.00000376667923125621 -0.00008381366632979488 -0.001740196548409678 -0.0000043311441067434404
          -0.00025178302588081615 -0.0017320984204295183 -0.000014693521837389201 0.00008360985147429642 -0.0017483630723408835 0.0000037829797512513087
          -0.0000838141551870149 -0.0017309704253628904 -0.000004905555355215656 0.00008381604810883793 -0.0017402248622416252 0.000004345618496623292
          0.00008381505950454373 -0.001730976769232594 0.0000048927899679822614 -0.0002518412425783872 -0.001721756115680428 -0.00001636050027115561
          0.00025186587289152625 -0.0017494340840448974 0.000011372278874834968 -0.00008390795790261001 -0.0017206261868602003 -0.000005470133961146104
          0.0002520656603868648 -0.0017413777748549407 0.000013032623337886932 0.00008391317281662257 -0.0017206212186207871 0.000005455076701144886
          0.0002517673146536067 -0.00173210236242786 0.000014690474174538665 0.0002518334835760463 -0.00172176204352955 0.000016350026086356688
          -0.00022470208292146014 -0.0012670506930442743 -0.000008418510082724031 -0.000224912432178212 -0.0012607648508824111 -0.000010497759176525563
          -0.00007457518438007491 -0.0012656532647006566 -0.000002794632551262866 -0.00007476738340640706 -0.0012593468197113192 -0.0000034992119718992134
          -0.00022463010760673737 -0.001253062418384118 -0.000012577445067088976 0.00007457958458464594 -0.0012656356459177806 0.0000027921507222741146
          -0.00007476544913264753 -0.0012516522304617135 -0.000004192199726889553 0.0000747635112550045 -0.0012593398504590438 0.00000349622342150158
          0.00007476552445117889 -0.001251651796832564 0.000004195055683805897 -0.0002246975313332264 -0.001243987080482159 -0.000014658056105963541
          0.0002246929607171434 -0.0012670682005155927 0.000008410689198188317 -0.00007486087782306777 -0.0012425693006681755 -0.000004896744404407775
          0.00022491637718261424 -0.0012607445678461397 0.0000104935902528353 0.00007485778143013363 -0.001242571346687091 0.00000489917580765952
          0.00022463644001533743 -0.0012530636220309103 0.000012578991711411932 0.0002246971705253194 -0.0012439869231796149 0.000014659784106407222
          -0.00019151802886821528 -0.000844962219522647 -0.000005470583026404607 -0.00019174336412805507 -0.0008404766913616594 -0.000007959990780663758
          -0.00006352581771684981 -0.0008432681751963148 -0.0000018065710643417105 -0.00006371511495630027 -0.000838793418775143 -0.0000026508897877990102
          -0.00019146178964427917 -0.0008343347962192717 -0.000010473367369142578 0.00006352585996805182 -0.0008432726382196176 0.0000018066763701392148
          -0.0000637159947775179 -0.0008326495466390306 -0.0000034936840377681756 0.00006371668169733667 -0.0008387946013329266 0.000002651436193364866
          0.0000637158159431814 -0.0008326492320901809 0.0000034932398497695124 -0.00019151811238355136 -0.000826525517198073 -0.00001296292901498126
          0.0001915187526314228 -0.0008449571774746316 0.000005471870853696316 -0.00006380629398290604 -0.0008248375623432856 -0.0000043379733499881745
          0.00019174074255422783 -0.0008404807864778352 0.000007960322701077433 0.00006380713380425512 -0.0008248368117894528 0.000004337968518796084
          0.00019146016684533192 -0.0008343337275120458 0.000010473026433532298 0.00019151880500469865 -0.0008265250831013818 0.000012963083375053194
          0.00005061057669374919 -0.00048600922954235217 0.000002781659318658383 0.000050729325456676 -0.0004794631829865234 0.0000037735068180481686
          0.00015224059626420174 -0.0004880170079462056 0.000008345222555253756 0.00015234352935965625 -0.0004814875240461432 0.000011281085367068524
          0.00009084850229148563 -0.0022585322778451056 0.000005615067156499142 0.00009094313602564501 -0.002246933679358155 0.000006044959921952551
          0.0002728904100768961 -0.0022593829830078616 0.000016793966235077182 0.0002729745514219215 -0.002247745006312168 0.000018060404131333934
          0.00009087077356478749 -0.0022692964879186274 0.000005152795465492444 0.0002730743914167662 -0.0022700524858418375 0.000015515751777646367
          0.00009078329126906654 -0.0022792393393676245 0.0000047262636888330725 0.00027281682427158767 -0.002280362773798587 0.000014296151676539845
          -0.00009085136873862922 -0.002258561609302159 -0.000005582213557695484 -0.00009093065512839616 -0.0022469197023150377 -0.000005996471147260134
          -0.00009603153132923207 -0.002834595516326804 -0.0000058262437444786 -0.00009588186043178841 -0.002822249000726635 -0.000006300059002637105
          0.00009572926779232485 -0.0028346481230717415 0.000006184981356320688 0.00009588059017267872 -0.002822342555147946 0.000006323079528504919
          -0.00009631809504131703 -0.002846553252889265 -0.000005540263130114142 0.00009514645848432504 -0.0028462527730446505 0.000005897685709040103
          -0.0002728765724480036 -0.002259407041041739 -0.000016810130399398968 -0.0002729193028143379 -0.0022477724077107483 -0.00001803860664606505
          -0.0002878241735796181 -0.002834860224399661 -0.00001802747190195556 -0.0002879366419120733 -0.002822830169668951 -0.000018819536519790283
          -0.00028757375409364637 -0.0028488367332371134 -0.000017559912050915168 0.00005061030520987077 -0.0004906063706198239 0.0000018155745259715384
          0.00015252354026695084 -0.0004926138612724961 0.000005448830547232696 0.000050446629583325995 -0.0004932565556972551 8.238293570210242e-7
          0.00015234375860569743 -0.000495279181715117 0.0000025097870064682616 -0.00005061046816685609 -0.00048600905689004663 -0.000002781662294098258
          -0.00005072943464285804 -0.0004794629650462344 -0.000003773696350056195 -0.00005061074778244322 -0.0004906064598087318 -0.0000018157125621818227
          -0.000035680971642915036 -0.00022690399445709627 -9.69269361739855e-7 -0.000035681050226919445 -0.00022385042773624382 -0.0000020843171244982675
          0.00003568108364408973 -0.00022690396757482748 9.692846276551904e-7 0.00003568101329218902 -0.00022385037451556447 0.000002084311395829644
          -0.000050446700302462 -0.0004932575619820214 -8.237978281145886e-7 -0.000152240346038037 -0.0004880165786069907 -0.000008345231054616507
          -0.0001523438251162876 -0.0004814873421561394 -0.000011281323002810224 -0.00015252271980350702 -0.0004926145577963583 -0.000005448779085895678
          -0.00015234362296568055 -0.0004952775436684394 -0.0000025098890491692184 0.000035660572928753716 -0.00021860355227474042 0.0000031674343426341234
          0.00010711114844789284 -0.00022594448361295988 0.000006239696536929527 0.00010699061864352149 -0.0002206946690081952 0.00000943087787046985
          0.00010738279927016494 -0.00022899789226664755 0.0000029146043746085576 -0.00003566058293806595 -0.000218603598673713 -0.0000031673811441471992
          <InformationKey name="L2_NORM_RANGE" location="vtkDataArray" length="2">
            <Value index="0">
              0.00022151573797
            </Value>
            <Value index="1">
              0.0028633682521
            </Value>
          </InformationKey>
        </DataArray>
      </PointData>
      <CellData>
        <DataArray type="UInt8" Name="vtkGhostType" format="ascii" RangeMin="0" RangeMax="1">
          1 1 1 1 1 1
          1 1 1 1 1 1
          0 0 0 0 0 0
          0 0 0 0 0 0
          0 0 0 0 0 0
          0 0 0 0 0 0
          0 0 0 0 0 0
          0 0
        </DataArray>
        <DataArray type="Float64" Name="Stress" NumberOfComponents="6" format="ascii" RangeMin="61676.59481302823" RangeMax="1814276.641758998">
          845440.7130577372 1067.3124764145668 1449.0753769658745 -45243.22039216909 25393.704149719946 -848.7442075032995
          843838.3973291458 2406.705761144879 163.49345740335548 -69704.37211992807 47310.912210604474 1285.6948415850093
          841386.8815216966 -7759.194632179906 951.7224233014235 -107406.72504729166 30398.874954230636 -4437.502697119209
          67.57342202023574 544.1142954801417 -471.9941897447882 -66236.63220488359 311.10147088977135 405.2446084173116
          -3217.264303960481 -478.6945071990813 9702.39177879964 -107319.90290761738 -2148.4869503450686 -373.29070247251593
          553.7235079297461 2723.2418247661317 -2714.780684554503 -108021.74774662382 638.531948084591 -26.666290357815342
          -24655.77709048047 13070.301658939094 -2954.4193025402988 -162071.1472651741 -6601.475789204402 -2049.9032177074196
          7030.017095602823 5920.9389965136415 2339.5835831635923 -164169.98994014144 2209.988526137136 -372.85387362678193
          -844037.9217532328 171.5944510184927 -2868.8480338777363 -46283.30494136548 -25881.783237161762 -276.6277689761473
          -599212.0117478422 -6897.778617691343 637.4144871351396 -74190.88808166489 -43093.44744925819 4032.0081876197182
          -845813.1576856134 2337.115605448922 -4577.665079853824 -69001.88881151483 -50417.24365910013 -1538.1310158527003
          -589638.4440841799 55052.75860991597 -1787.8342576502437 -135347.3827286792 -35280.9180361622 -24268.620083101832
          -848466.1137279121 -10334.056623636097 -3484.0329581776723 -95168.1312162799 -29964.084593127736 6128.8644811720305
          1086004.656616253 -607.7771375388675 2629.5535833891904 -46146.4086733568 25435.183357033093 -297.4487026330844
          1327682.5561823964 550.837280030104 3542.6105735923975 -46079.12065782618 25765.605687528358 -537.4544564363787
          1568309.6453327048 -3495.7943570133793 1798.6085666690835 -45066.18756734053 24613.15852467725 -384.2997713094228
          1086394.4549072664 -389.0704348305462 3544.4859549326056 -69482.50826556324 49149.24476940484 -495.9100039358327
          1327489.8179404172 920.7181763270419 2722.7107122695575 -69230.2895417107 48743.32957738568 156.58670602262555
          1570367.719913457 -1607.3708279641032 4675.206156962896 -68680.05905863873 48837.222068729694 -19.13808760955544
          1086956.0727633585 1149.2398837323472 3054.165076436429 -101037.75535038984 30377.202132676888 1453.3717727515304
          1327492.9889306035 127.14784596597019 3392.022325527969 -101886.65534672314 30011.611918329036 298.5159927991226
          1568342.3697444375 -3311.50834516183 1776.6272192973554 -100851.95180022606 31137.19870606805 433.4584895501048
          150.67828295957588 -73.75537712630467 138.39299357196842 -66043.45676284394 -226.4046236879634 807.0848584929827
          -69.74080009739555 -44.44904661200417 -24.646009164538555 -65648.49283615882 75.59217626662144 1080.7111065406361
          16.85042560272268 33.73319296117552 -0.753450261816397 -67296.71739764573 -16.48350662795633 1054.8913330122068
          40.696801431506174 -1060.7127925901204 748.584312357003 -107978.44735374901 -34.51509898332188 14.519705203619196
          -64.91064811988326 242.394327166734 -181.15466626026546 -107428.76746677063 -42.39978106921262 -1.3667617452947525
          27.78358246423886 -28.948090587167826 38.254450203548004 -109972.1181014726 23.718957926158055 -0.5145567118688632
          -8.489104535270599 -3.5424491198537 -7.65960748098405 -100576.96576286583 -8.411405057315733 0.28994796700862935
          -1473.8453411430528 -3145.599399704408 -865.105129481407 -163540.76626045041 -483.2468325386491 -802.8903124697008
          237.69801134949375 955.5665745144906 253.5385353787642 -163287.292773819 87.53000038682683 -1065.8678396598734
          -29.089927248773165 -224.61736219566228 -65.49758399723123 -164949.77440526005 -16.73361529998442 -1109.093402249222
          -1086320.0723202107 249.17616996692595 -2322.8254551204327 -45710.72045525338 -25789.109626075253 -373.357794317737
          -1327623.989535834 -494.8655262670618 -3549.672980489354 -46184.81954551904 -25587.15439745492 -529.4317812043055
          -1568317.4803603853 3498.7840261348756 -1822.979270174852 -45058.275744440965 -24662.175619031128 -388.14057477622555
          -1086395.4473956826 -1115.2817464164873 -2010.4114028887361 -68816.36232013017 -48457.28570715448 579.6098394873788
          -1327337.2619586675 -529.9431089467289 -3053.959595136487 -69576.0176610417 -48864.89342708001 -192.28834666312196
          -1570431.3487327914 1521.0420975880843 -4635.221474787864 -68576.55467635747 -48821.79396164743 77.54722475940434
          -1085357.0475419927 2371.499157288392 -1856.5975349251921 -102479.58614931471 -29971.063191225294 -904.7112491433672
          -1327806.9787184799 -953.1235949102665 -3749.7844837855046 -101914.55562169198 -30189.21705835731 797.507713524843
          -1568286.238076676 3546.1167469043066 -1691.682748166888 -100784.37299039793 -31094.10672180372 331.85847419681704
          1813239.1260648938 14076.77490098065 14645.701037644389 -48801.399056513386 31097.175401835142 -1530.2030534661226
          1806135.2716603165 11855.077465756334 8160.959922968297 -71448.8128899076 48635.719406423304 -65.87140099213502
          -1.4179417386912974 -12.812981744711578 2.7548293484633177 -61674.38272147185 2.0602440243501405 522.1931052061518
          <InformationKey name="L2_NORM_RANGE" location="vtkDataArray" length="2">
            <Value index="0">
              61676.594813
            </Value>
            <Value index="1">
              1814276.6418
            </Value>
          </InformationKey>
        </DataArray>
        <DataArray type="Float64" Name="Damage" format="ascii" RangeMin="0" RangeMax="0">
          0 0 0 0 0 0
          0 0 0 0 0 0
          0 0 0 0 0 0
          0 0 0 0 0 0
          0 0 0 0 0 0
          0 0 0 0 0 0
          0 0 0 0 0 0
          0 0
        </DataArray>
        <DataArray type="Float64" Name="Tau" format="ascii" RangeMin="8040844.011283461" RangeMax="8040844.011283461">
          8040844.011283461 8040844.011283461 8040844.011283461 8040844.011283461 8040844.011283461 8040844.011283461
          8040844.011283461 8040844.011283461 8040844.011283461 8040844.011283461 8040844.011283461 8040844.011283461
          8040844.011283461 8040844.011283461 8040844.011283461 8040844.011283461 8040844.011283461 8040844.011283461
          8040844.011283461 8040844.011283461 8040844.011283461 8040844.011283461 8040844.011283461 8040844.011283461
          8040844.011283461 8040844.011283461 8040844.011283461 8040844.011283461 8040844.011283461 8040844.011283461
          8040844.011283461 8040844.011283461 8040844.011283461 8040844.011283461 8040844.011283461 8040844.011283461
          8040844.011283461 8040844.011283461 8040844.011283461 8040844.011283461 8040844.011283461 8040844.011283461
          8040844.011283461 8040844.011283461
        </DataArray>
        <DataArray type="Float64" Name="ComparisonRatio" format="ascii" RangeMin="0.03569166947833617" RangeMax="0.363664600586789">
          0.1697467720566493 0.16984542593974117 0.17053470056972425 0.049638993734406306 0.03569166947833617 0.04914309987672473
          0.042255425179346794 0.05294564814350515 0.1698827359614557 0.12181626109339729 0.16943847761277933 0.12285416227334213
          0.17040027530290763 0.21804809331617372 0.26636236582002554 0.314577015296797 0.2177977947701288 0.2662016299640243
          0.3141692011734765 0.21847943836558986 0.26679376219490636 0.3149308407941941 0.06356574680800722 0.0775915016788691
          0.09151474961506453 0.0629590443129279 0.07688274954415349 0.09060473023620762 0.105006770637217 0.06613320759296079
          0.07971539748246648 0.09331142154378576 0.21800727471980158 0.26637159259652526 0.31457524350477434 0.21791376113373112
          0.266186391901703 0.31416766749625313 0.2185937128644681 0.266765460408532 0.31493463572585667 0.36357318720676574
          0.363664600586789 0.10577034694251077
        </DataArray>
      </CellData>
      <Points>
        <DataArray type="Float32" Name="Points" NumberOfComponents="3" format="ascii" RangeMin="0.5995491172905656" RangeMax="7.789572376179863">
          5.401882171630859 -1.3746089935302734 2 5.401882171630859 -1.3746089935302734 1.3333330154418945
          5.401882171630859 -0.707939624786377 2 5.401882171630859 -0.707939624786377 1.3333330154418945
          3.401879072189331 -1.3746089935302734 2 3.401879072189331 -1.3746089935302734 1.3333330154418945
          3.401879072189331 -0.707939624786377 2 3.401879072189331 -0.707939624786377 1.3333330154418945
          3.401879072189331 -1.3746089935302734 0.6666666865348816 3.401879072189331 -0.041270170360803604 2
          3.401879072189331 -0.707939624786377 0.6666666865348816 3.401879072189331 -0.041270170360803604 1.3333330154418945
          3.401879072189331 -0.041270170360803604 0.6666666865348816 3.401879072189331 -1.3746089935302734 0
          3.401879072189331 0.6253991723060608 2 3.401879072189331 -0.707939624786377 0
          3.401879072189331 0.6253991723060608 1.3333330154418945 3.401879072189331 -0.041270170360803604 0
          3.401879072189331 0.6253991723060608 0.6666666865348816 3.401879072189331 0.6253991723060608 0
          1.4018759727478027 -1.3746089935302734 2 1.4018759727478027 -1.3746089935302734 1.3333330154418945
          1.4018759727478027 -0.707939624786377 2 1.4018759727478027 -0.707939624786377 1.3333330154418945
          1.4018759727478027 -1.3746089935302734 0.6666666865348816 1.4018759727478027 -0.041270170360803604 2
          1.4018759727478027 -0.707939624786377 0.6666666865348816 1.4018759727478027 -0.041270170360803604 1.3333330154418945
          1.4018759727478027 -0.041270170360803604 0.6666666865348816 1.4018759727478027 -1.3746089935302734 0
          1.4018759727478027 0.6253991723060608 2 1.4018759727478027 -0.707939624786377 0
          1.4018759727478027 0.6253991723060608 1.3333330154418945 1.4018759727478027 -0.041270170360803604 0
          1.4018759727478027 0.6253991723060608 0.6666666865348816 1.4018759727478027 0.6253991723060608 0
          -0.598127007484436 -1.3746089935302734 2 -0.598127007484436 -1.3746089935302734 1.3333330154418945
          -0.598127007484436 -0.707939624786377 2 -0.598127007484436 -0.707939624786377 1.3333330154418945
          -0.598127007484436 -1.3746089935302734 0.6666666865348816 -0.598127007484436 -0.041270170360803604 2
          -0.598127007484436 -0.707939624786377 0.6666666865348816 -0.598127007484436 -0.041270170360803604 1.3333330154418945
          -0.598127007484436 -0.041270170360803604 0.6666666865348816 -0.598127007484436 -1.3746089935302734 0
          -0.598127007484436 0.6253991723060608 2 -0.598127007484436 -0.707939624786377 0
          -0.598127007484436 0.6253991723060608 1.3333330154418945 -0.598127007484436 -0.041270170360803604 0
          -0.598127007484436 0.6253991723060608 0.6666666865348816 -0.598127007484436 0.6253991723060608 0
          -2.598129987716675 -0.041270170360803604 0.6666666865348816 -2.598129987716675 -0.041270170360803604 0
          -2.598129987716675 0.6253991723060608 0.6666666865348816 -2.598129987716675 0.6253991723060608 0
          5.401882171630859 -0.041270170360803604 0.6666666865348816 5.401882171630859 -0.041270170360803604 0
          5.401882171630859 0.6253991723060608 0.6666666865348816 5.401882171630859 0.6253991723060608 0
          5.401882171630859 -0.041270170360803604 1.3333330154418945 5.401882171630859 0.6253991723060608 1.3333330154418945
          5.401882171630859 -0.041270170360803604 2 5.401882171630859 0.6253991723060608 2
          5.401882171630859 -0.707939624786377 0.6666666865348816 5.401882171630859 -0.707939624786377 0
          7.401884078979492 -0.707939624786377 1.3333330154418945 7.401884078979492 -0.707939624786377 0.6666666865348816
          7.401884078979492 -0.041270170360803604 1.3333330154418945 7.401884078979492 -0.041270170360803604 0.6666666865348816
          7.401884078979492 -0.707939624786377 2 7.401884078979492 -0.041270170360803604 2
          5.401882171630859 -1.3746089935302734 0.6666666865348816 5.401882171630859 -1.3746089935302734 0
          7.401884078979492 -1.3746089935302734 1.3333330154418945 7.401884078979492 -1.3746089935302734 0.6666666865348816
          7.401884078979492 -1.3746089935302734 2 -2.598129987716675 -0.041270170360803604 1.3333330154418945
          -2.598129987716675 0.6253991723060608 1.3333330154418945 -2.598129987716675 -0.041270170360803604 2
          -2.598129987716675 0.6253991723060608 2 -2.598129987716675 -0.707939624786377 0.6666666865348816
          -2.598129987716675 -0.707939624786377 0 -2.598129987716675 -0.707939624786377 1.3333330154418945
          -4.598133087158203 -0.707939624786377 1.3333330154418945 -4.598133087158203 -0.707939624786377 0.6666666865348816
          -4.598133087158203 -0.041270170360803604 1.3333330154418945 -4.598133087158203 -0.041270170360803604 0.6666666865348816
          -2.598129987716675 -0.707939624786377 2 -2.598129987716675 -1.3746089935302734 0.6666666865348816
          -2.598129987716675 -1.3746089935302734 0 -2.598129987716675 -1.3746089935302734 1.3333330154418945
          -2.598129987716675 -1.3746089935302734 2 -4.598133087158203 -0.041270170360803604 0
          -4.598133087158203 0.6253991723060608 0.6666666865348816 -4.598133087158203 0.6253991723060608 0
          -4.598133087158203 0.6253991723060608 1.3333330154418945 -4.598133087158203 -0.707939624786377 0
          <InformationKey name="L2_NORM_RANGE" location="vtkDataArray" length="2">
            <Value index="0">
              0.59954911729
            </Value>
            <Value index="1">
              7.7895723762
            </Value>
          </InformationKey>
        </DataArray>
      </Points>
      <Cells>
        <DataArray type="Int64" Name="connectivity" format="ascii" RangeMin="0" RangeMax="97">
          12 56 57 17 18 58
          59 19 11 60 56 12
          16 61 58 18 9 62
          60 11 14 63 61 16
          10 64 65 15 12 56
          57 17 3 66 67 64
          60 68 69 56 7 3
          64 10 11 60 56 12
          2 70 66 3 62 71
          68 60 6 2 3 7
          9 62 60 11 8 72
          73 13 10 64 65 15
          1 74 75 72 3 66
          67 64 5 1 72 8
          7 3 64 10 0 76
          74 1 2 70 66 3
          4 0 1 5 6 2
          3 7 28 12 17 33
          34 18 19 35 44 28
          33 49 50 34 35 51
          52 44 49 53 54 50
          51 55 27 11 12 28
          32 16 18 34 43 27
          28 44 48 32 34 50
          77 43 44 52 78 48
          50 54 25 9 11 27
          30 14 16 32 41 25
          27 43 46 30 32 48
          79 41 43 77 80 46
          48 78 26 10 15 31
          28 12 17 33 42 26
          31 47 44 28 33 49
          81 42 47 82 52 44
          49 53 23 7 10 26
          27 11 12 28 39 23
          26 42 43 27 28 44
          83 39 42 81 77 43
          44 52 84 83 81 85
          86 77 52 87 22 6
          7 23 25 9 11 27
          38 22 23 39 41 25
          27 43 88 38 39 83
          79 41 43 77 24 8
          13 29 26 10 15 31
          40 24 29 45 42 26
          31 47 89 40 45 90
          81 42 47 82 21 5
          8 24 23 7 10 26
          37 21 24 40 39 23
          26 42 91 37 40 89
          83 39 42 81 20 4
          5 21 22 6 7 23
          36 20 21 37 38 22
          23 39 92 36 37 91
          88 38 39 83 87 52
          53 93 94 54 55 95
          86 77 52 87 96 78
          54 94 85 81 82 97
          87 52 53 93
        </DataArray>
        <DataArray type="Int64" Name="offsets" format="ascii" RangeMin="8" RangeMax="352">
          8 16 24 32 40 48
          56 64 72 80 88 96
          104 112 120 128 136 144
          152 160 168 176 184 192
          200 208 216 224 232 240
          248 256 264 272 280 288
          296 304 312 320 328 336
          344 352
        </DataArray>
        <DataArray type="UInt8" Name="types" format="ascii" RangeMin="12" RangeMax="12">
          12 12 12 12 12 12
          12 12 12 12 12 12
          12 12 12 12 12 12
          12 12 12 12 12 12
          12 12 12 12 12 12
          12 12 12 12 12 12
          12 12 12 12 12 12
          12 12
        </DataArray>
      </Cells>
    </Piece>
  </UnstructuredGrid>
</VTKFile>
