<?xml version="1.0"?>
<VTKFile type="UnstructuredGrid" version="0.1" byte_order="LittleEndian" header_type="UInt32" compressor="vtkZLibDataCompressor">
  <UnstructuredGrid>
    <Piece NumberOfPoints="79" NumberOfCells="35">
      <PointData>
        <DataArray type="Float64" Name="plcd_BC" NumberOfComponents="3" format="ascii" RangeMin="0" RangeMax="0">
          0 0 0 0 0 0
          0 0 0 0 0 0
          0 0 0 0 0 0
          0 0 0 0 0 0
          0 0 0 0 0 0
          0 0 0 0 0 0
          0 0 0 0 0 0
          0 0 0 0 0 0
          0 0 0 0 0 0
          0 0 0 0 0 0
          0 0 0 0 0 0
          0 0 0 0 0 0
          0 0 0 0 0 0
          0 0 0 0 0 0
          0 0 0 0 0 0
          0 0 0 0 0 0
          0 0 0 0 0 0
          0 0 0 0 0 0
          0 0 0 0 0 0
          0 0 0 0 0 0
          0 0 0 0 0 0
          0 0 0 0 0 0
          0 0 0 0 0 0
          0 0 0 0 0 0
          0 0 0 0 0 0
          0 0 0 0 0 0
          0 0 0 0 0 0
          0 0 0 0 0 0
          0 0 0 0 0 0
          0 0 0 0 0 0
          0 0 0 0 0 0
          0 0 0 0 0 0
          0 0 0 0 0 0
          0 0 0 0 0 0
          0 0 0 0 0 0
          0 0 0 0 0 0
          0 0 0 0 0 0
          0 0 0 0 0 0
          0 0 0 0 0 0
          0 0 0
          <InformationKey name="L2_NORM_RANGE" location="vtkDataArray" length="2">
            <Value index="0">
              0
            </Value>
            <Value index="1">
              0
            </Value>
          </InformationKey>
        </DataArray>
        <DataArray type="Float64" Name="plcd_FIXNO" NumberOfComponents="3" format="ascii" RangeMin="1.7320508075688772" RangeMax="1.7320508075688772">
          -1 -1 -1 -1 -1 -1
          -1 -1 -1 -1 -1 -1
          -1 -1 -1 -1 -1 -1
          -1 -1 -1 -1 -1 -1
          -1 -1 -1 -1 -1 -1
          -1 -1 -1 -1 -1 -1
          -1 -1 -1 -1 -1 -1
          -1 -1 -1 -1 -1 -1
          -1 -1 -1 -1 -1 -1
          -1 -1 -1 -1 -1 -1
          -1 -1 -1 -1 -1 -1
          -1 -1 -1 -1 -1 -1
          -1 -1 -1 -1 -1 -1
          -1 -1 -1 -1 -1 -1
          -1 -1 -1 -1 -1 -1
          -1 -1 -1 -1 -1 -1
          -1 -1 -1 -1 -1 -1
          -1 -1 -1 -1 -1 -1
          -1 -1 -1 -1 -1 -1
          -1 -1 -1 -1 -1 -1
          -1 -1 -1 -1 -1 -1
          -1 -1 -1 -1 -1 -1
          -1 -1 -1 -1 -1 -1
          -1 -1 -1 -1 -1 -1
          -1 -1 -1 -1 -1 -1
          -1 -1 -1 -1 -1 -1
          -1 -1 -1 -1 -1 -1
          -1 -1 -1 -1 -1 -1
          -1 -1 -1 -1 -1 -1
          -1 -1 -1 -1 -1 -1
          -1 -1 -1 -1 -1 -1
          -1 -1 -1 -1 -1 -1
          -1 -1 -1 -1 -1 -1
          -1 -1 -1 -1 -1 -1
          -1 -1 -1 -1 -1 -1
          -1 -1 -1 -1 -1 -1
          -1 -1 -1 -1 -1 -1
          -1 -1 -1 -1 -1 -1
          -1 -1 -1 -1 -1 -1
          -1 -1 -1
          <InformationKey name="L2_NORM_RANGE" location="vtkDataArray" length="2">
            <Value index="0">
              1.7320508076
            </Value>
            <Value index="1">
              1.7320508076
            </Value>
          </InformationKey>
        </DataArray>
        <DataArray type="Float64" Name="Displacement" NumberOfComponents="3" format="ascii" RangeMin="0.009879309088113119" RangeMax="0.025983262638450938">
          -0.0019338323984257055 -0.025833891898947577 -0.002000064735704901 -0.0014030886303523981 -0.020848204675534093 -0.0009112231477893493
          -0.0004213141571243567 -0.02190028758138396 -0.00009923600228189261 -0.000464610515944335 -0.020968904645503102 -0.0001477820533938165
          -0.0013188437990159273 -0.020474639282285507 -0.0006648073348521283 0.0004468915388414374 -0.02113142577010467 0.0003070522448144166
          -0.0004446401873769262 -0.020456402218067285 -0.00019904971557066316 0.00042643488670975977 -0.020909170310342232 0.0002898025817387117
          0.00044076053464808205 -0.020484039872946638 0.00025692834064165065 -0.0013200247450801572 -0.02001306662499151 -0.0006536742207574678
          -0.0013304803766253726 -0.01808912918032704 -0.0004685507002621054 0.0011377358499807624 -0.02 0.00027553811856942167
          -0.00043541266979551304 -0.020022128365186218 -0.00020190305850145468 -0.001348565460304935 -0.018255480021698564 -0.0006024213702623131
          -0.00039348651679361487 -0.01858769588599508 -0.00022500285803012414 0.0012977061193205476 -0.020919517580888235 0.00059483015470442
          -0.0004320948083246337 -0.018228751662858065 -0.00021733001977235761 -0.0013266389011404066 -0.01782080580077407 -0.0006280638126456954
          0.0004567000342410746 -0.020017397559921855 0.0002449186665891502 0.00046252071345949695 -0.018663940819291465 0.0001922841349841961
          0.0013248068400622949 -0.020480158928896368 0.0006874451292388557 -0.0004422880047476986 -0.01782317650383187 -0.0002109636369990624
          0.0004504073865989172 -0.018232186542520446 0.00019699413343850073 0.00044157501541951184 -0.017821090561507314 0.00020116683644092793
          -0.0013237190939345588 -0.01740772559585744 -0.000626867472096642 0.0013392738545660306 -0.02 0.0007056793664351859
          0.0013131731474949676 -0.018809216149209898 0.0006534975786843227 -0.00044269728722663146 -0.017407461523412795 -0.00021133524902627225
          0.0013115465646032834 -0.018224666029242133 0.0006133356146840346 0.00044844266593955726 -0.017412603870933106 0.00020225415424823383
          0.0013196095407898608 -0.017822424029233546 0.0006079755455975049 0.0013286345669176575 -0.01742051756881373 0.0006088236008341512
          -0.0012863603804917911 -0.016012641879051916 -0.0005647206499171788 -0.0012925269958610883 -0.015563236806783294 -0.0005484631271154163
          -0.00044882894734579845 -0.015940751451608046 -0.00017825908891940908 -0.0004363696215043938 -0.015567599829804782 -0.00018196950691132095
          -0.0012969678547790485 -0.015202463895143098 -0.00055179740186735 0.00041905757841031993 -0.01593722423377723 0.0001868016025397584
          -0.00043292513806139654 -0.015201025602507374 -0.000184412689954944 0.00042933878929945037 -0.015572068499588927 0.0001856019778425712
          0.00043301092651043614 -0.015201227813861119 0.0001854940907585351 -0.0013035230512096225 -0.014831781421675945 -0.0005566735643690848
          0.0013068063372302494 -0.01591386154600474 0.0005476973565584193 -0.0004384983867736422 -0.014830157654107407 -0.00018552086384464648
          0.0013099208305479356 -0.015577554313083867 0.000557403826014328 0.0004344790900344981 -0.014828971916566926 0.0001863372676489755
          0.001298518375908393 -0.015202844573501394 0.0005584492312639241 0.001300129590360087 -0.014828733533420386 0.0005600437974416818
          -0.0012593469614033644 -0.012648822150934411 -0.0005114474790579309 0.0004195573727936358 -0.01332289027550248 0.0001675250502292194
          -0.00042062048611192775 -0.012646568025342359 -0.00017000353476781218 0.00042073139931619424 -0.012985356571389082 0.00016916576922649862
          0.00042031923221057537 -0.012646294137071188 0.00017058826363631352 -0.001261428779672001 -0.012307075176989762 -0.0005135580746502786
          0.001259589838468005 -0.013329944032174893 0.0005044146187298544 -0.0004225356038449141 -0.012304800220788547 -0.0001708686536244236
          0.001263448251741608 -0.012985817246205483 0.0005064128664930558 0.00042356457901037694 -0.012304895072289422 0.00017167089544127098
          0.0012595763797442928 -0.012648221370419467 0.0005104862074162995 0.001262408504684172 -0.012307311535129775 0.0005138564913996805
          0.00040336418457696143 -0.01018052294892829 0.00015456092729436728 0.0004060227596165892 -0.009869730727398543 0.00015591326368471806
          0.0012081128227739689 -0.01018326951061161 0.00046410902447935136 0.0012108785590704146 -0.00987238393920563 0.00046806363403261537
          0.00040343174006185397 -0.010488803782189408 0.0001533362477654918 0.001214172098880216 -0.01049198141876648 0.00046041826472084126
          0.00040019014098012837 -0.010794380708265371 0.00015213596785086187 0.001211527925168292 -0.010795985174062191 0.0004562969113797835
          -0.00040324798796317 -0.010180463380889465 -0.00015487249376969727 -0.0004061063822443528 -0.0098697244330937 -0.00015628260545720568
          -0.00041989485515125745 -0.012987996884418183 -0.0001697954579724449 -0.0004032959056174443 -0.010487904221160678 -0.0001532262949333834
          -0.000411976635548768 -0.01332621448411707 -0.00016971319965234052 -0.0004016124148917785 -0.010792713607764449 -0.00015162327149057897
          -0.0012084922538069857 -0.010183126655122226 -0.00046411383153873917 -0.0012110328722761653 -0.009872354839196162 -0.00046838739835963143
          -0.0012674961072405024 -0.012992263657288212 -0.0005100649195776477 -0.001213802214071628 -0.010489952779051175 -0.00045942141444268563
          -0.0012664223403074815 -0.013312529812796223 -0.0005039616308558385
          <InformationKey name="L2_NORM_RANGE" location="vtkDataArray" length="2">
            <Value index="0">
              0.0098793090881
            </Value>
            <Value index="1">
              0.025983262638
            </Value>
          </InformationKey>
        </DataArray>
      </PointData>
      <CellData>
        <DataArray type="UInt8" Name="vtkGhostType" format="ascii" RangeMin="0" RangeMax="0">
          0 0 0 0 0 0
          0 0 0 0 0 0
          0 0 0 0 0 0
          0 0 0 0 0 0
          0 0 0 0 0 0
          0 0 0 0 0
        </DataArray>
        <DataArray type="Float64" Name="Stress" NumberOfComponents="6" format="ascii" RangeMin="288229.9938842205" RangeMax="5292929.181017855">
          444602.8429448945 600654.8368375908 -136882.36601819575 430378.08002144453 836383.0810682442 -962495.8262333036
          1015857.667745457 -273400.94932305027 -40874.30433854853 330174.23028821417 452351.616566418 60870.67388770469
          1523225.668544056 67415.72639726398 23955.05989751202 450558.0243652778 596602.4239113472 1183.5834040513764
          2058923.2433056072 -7859.242866259949 -8470.315885948903 386009.81550199306 554438.8944315042 -3903.235869019609
          -653853.8890804194 -274939.740709917 -1202761.6407598935 -934156.5497433182 604183.6058348359 -1044479.8930765316
          870810.2965802429 187340.29341344367 231376.22799052973 -558695.4587877549 974811.0252558863 164904.52906285712
          1587454.6722527812 -88390.95983523675 25302.312944268982 -23843.909262639398 1031026.72456286 -5824.96540452
          2027280.9235247988 44672.25756769699 -33397.44756974974 -178189.49687265127 963601.7691917293 2196.9282928502353
          13402.668581704842 4062021.675650079 -529655.2726247096 881804.9267942251 -330171.97918363835 1837957.2712661205
          362997.7765364095 -2501587.4015286593 177832.77960565756 -2075606.5027903363 780115.822530405 -1160547.4520079156
          1694836.4157294808 818273.9893121985 -18808.060024725135 -145609.82360044064 463028.4540705927 440810.2866418219
          1976456.197791691 -142067.04464471582 -18005.076953312495 -857849.8913408584 573818.8238023191 -109080.59087610249
          49854.22181529271 -1069130.2246662686 422581.01171365986 879453.965822901 154312.79711271584 63125.38059693805
          117409.38283267537 -70828.16440213168 -10499.838253023794 860156.9040986705 -172534.19619659946 2842.3153432618656
          -62411.82148328984 38607.59142170064 -2862.1061285549745 737617.892869153 54764.884460420246 -26038.45429590449
          11110.652692142845 6702.086211043297 -3447.518774402746 714057.505090582 -8202.604183060648 1064.678414692551
          265516.0463164295 1750082.0602615762 3318876.4572110334 -462386.35994362354 1092994.3746607678 -475816.7004202114
          225818.78462225216 -302329.68384202744 -375528.1907024978 -429434.54271607584 5456.740525794632 182965.94313674746
          -131962.1714849723 -104561.64829659213 10479.394022557015 -223803.4118469195 -81679.65356209863 -16392.807663742096
          20431.860138718126 89629.38418537682 -12567.582131600982 -271673.4994767377 22493.573127821357 -12459.802795052994
          497718.3995308648 2974991.1025742893 920861.4864201437 -647813.3487543074 902423.1182503185 -337094.4691835939
          885120.3469050704 -1688706.3339671318 -306248.92290689284 -1227674.698573352 -99251.80147252421 300743.58506150317
          -650769.5730600227 96609.56669537764 34447.51378945359 -1103009.2342417713 -204521.89605031224 -97291.8421049783
          194039.67411724688 200111.9687669695 30764.59930428988 -1342625.2699546318 75110.10862657738 7046.648344890384
          212285.02430231706 188740.24041054974 -238583.4126687239 418032.2487603009 -406049.5233974387 440945.3215683623
          -988663.0867473832 -166823.77140852984 -10469.897690146507 555074.4512698344 -1053542.9298879728 15207.781583347025
          -1600433.2487454603 20506.723538966664 71417.69736436092 383469.13333799544 -397627.2173206289 -44631.525975268436
          -2031507.246006145 8000.5770848837055 -35263.73687590982 382743.0864363644 -582851.5586576274 8342.973491599836
          -966465.3024036813 -960578.2578743655 -1607982.1249317138 386968.8350220045 -877402.1988841027 1029411.3014150613
          -809899.7342326642 702804.4759938531 825603.5792418071 -255610.16729253458 -1168368.4752651362 -387371.12175310997
          -1396190.4585725241 -129005.72058865966 11273.21794089931 -242501.66743087608 -772392.507962398 62621.64710722985
          -2080905.9112530479 54026.66224352308 -68828.09668209867 -173519.5713037062 -1041454.7209775792 -37069.201388607544
          215435.55578031135 4648237.998031002 -421082.5788360134 -1337435.9511181922 -788486.8707078046 -1942887.8875054852
          -937999.1689652662 -3540424.677570868 244625.03654292735 666396.0467753133 27518.93201327292 1526594.242288829
          -974761.0058478263 1998355.1115770498 -482.8495548073806 -1558978.9554432651 -640495.3698075725 -862517.5989654912
          <InformationKey name="L2_NORM_RANGE" location="vtkDataArray" length="2">
            <Value index="0">
              288229.99388
            </Value>
            <Value index="1">
              5292929.181
            </Value>
          </InformationKey>
        </DataArray>
        <DataArray type="Float64" Name="Damage" format="ascii" RangeMin="0" RangeMax="0.904147194869651">
          0.006302014427837691 0 0 0 0.2616439745414701 0.00467674272665175
          0 0 0.7254792890573417 0.21048482967504162 0 0
          0 0 0 0 0.06691763635324331 0
          0 0 0.789982719317498 0.253429859010336 0 0
          0.07279693208771897 0 0 0 0.5594991383627332 0.10435332083443924
          0 0 0.904147194869651 0.5363163939177102 0.05459715345430659
        </DataArray>
        <DataArray type="Float64" Name="Tau" format="ascii" RangeMin="8040844.011283461" RangeMax="244740622.53118294">
          8094184.517755805 8040844.011283461 8040844.011283461 8040844.011283461 16970176.64670434 8079893.698778925
          8040844.011283461 8040844.011283461 79506324.13807471 13115447.195139566 8040844.011283461 8040844.011283461
          8040844.011283461 8040844.011283461 8040844.011283461 8040844.011283461 8923606.79556917 8040844.011283461
          8040844.011283461 8040844.011283461 113693017.04390958 16151934.676965022 8040844.011283461 8040844.011283461
          9441062.000281774 8040844.011283461 8040844.011283461 8040844.011283461 51391066.109213166 10517772.027476229
          8040844.011283461 8040844.011283461 244740622.53118294 36824537.98044059 8703530.900666134
        </DataArray>
        <DataArray type="Float64" Name="ComparisonRatio" format="ascii" RangeMin="0.1416801194669713" RangeMax="30.437180747163634">
          0.5314456600125791 0.41318551051922553 0.44761173072623395 0.515069527408645 1.8492146210422384 0.4634549532696812
          0.40265915610420827 0.4851790776875192 9.887808298047572 1.3142311835231255 0.5173914145320443 0.535083352627501
          0.44358520064810714 0.29585422553784646 0.2568488335814936 0.2616402371814659 0.8010406182192413 0.25367639274999465
          0.1454640333699701 0.1416801194669713 14.139438208771091 1.8029518516214253 0.4148409541328345 0.29899400298067785
          0.7679669549052305 0.4242660387025084 0.4396243970725169 0.5189395100415825 6.314063689007543 0.9537706645597734
          0.44674695381328455 0.477964888570806 30.437180747163634 4.534359654424322 0.7078078365577791
        </DataArray>
      </CellData>
      <Points>
        <DataArray type="Float32" Name="Points" NumberOfComponents="3" format="ascii" RangeMin="3.4021293991794836" RangeMax="11.657299898339286">
          11.40188980102539 -1.3746089935302734 2 11.40188980102539 -1.3746089935302734 1.3333330154418945
          11.40188980102539 -0.707939624786377 2 11.40188980102539 -0.707939624786377 1.3333330154418945
          11.40188980102539 -1.3746089935302734 0.6666666865348816 11.40188980102539 -0.041270170360803604 2
          11.40188980102539 -0.707939624786377 0.6666666865348816 11.40188980102539 -0.041270170360803604 1.3333330154418945
          11.40188980102539 -0.041270170360803604 0.6666666865348816 11.40188980102539 -1.3746089935302734 0
          9.401886940002441 -1.3746089935302734 2 11.40188980102539 0.6253991723060608 2
          11.40188980102539 -0.707939624786377 0 9.401886940002441 -1.3746089935302734 1.3333330154418945
          9.401886940002441 -0.707939624786377 2 11.40188980102539 0.6253991723060608 1.3333330154418945
          9.401886940002441 -0.707939624786377 1.3333330154418945 9.401886940002441 -1.3746089935302734 0.6666666865348816
          11.40188980102539 -0.041270170360803604 0 9.401886940002441 -0.041270170360803604 2
          11.40188980102539 0.6253991723060608 0.6666666865348816 9.401886940002441 -0.707939624786377 0.6666666865348816
          9.401886940002441 -0.041270170360803604 1.3333330154418945 9.401886940002441 -0.041270170360803604 0.6666666865348816
          9.401886940002441 -1.3746089935302734 0 11.40188980102539 0.6253991723060608 0
          9.401886940002441 0.6253991723060608 2 9.401886940002441 -0.707939624786377 0
          9.401886940002441 0.6253991723060608 1.3333330154418945 9.401886940002441 -0.041270170360803604 0
          9.401886940002441 0.6253991723060608 0.6666666865348816 9.401886940002441 0.6253991723060608 0
          7.401884078979492 -1.3746089935302734 2 7.401884078979492 -1.3746089935302734 1.3333330154418945
          7.401884078979492 -0.707939624786377 2 7.401884078979492 -0.707939624786377 1.3333330154418945
          7.401884078979492 -1.3746089935302734 0.6666666865348816 7.401884078979492 -0.041270170360803604 2
          7.401884078979492 -0.707939624786377 0.6666666865348816 7.401884078979492 -0.041270170360803604 1.3333330154418945
          7.401884078979492 -0.041270170360803604 0.6666666865348816 7.401884078979492 -1.3746089935302734 0
          7.401884078979492 0.6253991723060608 2 7.401884078979492 -0.707939624786377 0
          7.401884078979492 0.6253991723060608 1.3333330154418945 7.401884078979492 -0.041270170360803604 0
          7.401884078979492 0.6253991723060608 0.6666666865348816 7.401884078979492 0.6253991723060608 0
          5.401882171630859 -1.3746089935302734 0.6666666865348816 5.401882171630859 -0.041270170360803604 2
          5.401882171630859 -0.707939624786377 0.6666666865348816 5.401882171630859 -0.041270170360803604 1.3333330154418945
          5.401882171630859 -0.041270170360803604 0.6666666865348816 5.401882171630859 -1.3746089935302734 0
          5.401882171630859 0.6253991723060608 2 5.401882171630859 -0.707939624786377 0
          5.401882171630859 0.6253991723060608 1.3333330154418945 5.401882171630859 -0.041270170360803604 0
          5.401882171630859 0.6253991723060608 0.6666666865348816 5.401882171630859 0.6253991723060608 0
          3.401879072189331 -0.041270170360803604 0.6666666865348816 3.401879072189331 -0.041270170360803604 0
          3.401879072189331 0.6253991723060608 0.6666666865348816 3.401879072189331 0.6253991723060608 0
          3.401879072189331 -0.041270170360803604 1.3333330154418945 3.401879072189331 0.6253991723060608 1.3333330154418945
          3.401879072189331 -0.041270170360803604 2 3.401879072189331 0.6253991723060608 2
          3.401879072189331 -0.707939624786377 0.6666666865348816 3.401879072189331 -0.707939624786377 0
          5.401882171630859 -0.707939624786377 1.3333330154418945 3.401879072189331 -0.707939624786377 1.3333330154418945
          5.401882171630859 -0.707939624786377 2 3.401879072189331 -0.707939624786377 2
          3.401879072189331 -1.3746089935302734 0.6666666865348816 3.401879072189331 -1.3746089935302734 0
          5.401882171630859 -1.3746089935302734 1.3333330154418945 3.401879072189331 -1.3746089935302734 1.3333330154418945
          5.401882171630859 -1.3746089935302734 2
          <InformationKey name="L2_NORM_RANGE" location="vtkDataArray" length="2">
            <Value index="0">
              3.4021293992
            </Value>
            <Value index="1">
              11.657299898
            </Value>
          </InformationKey>
        </DataArray>
      </Points>
      <Cells>
        <DataArray type="Int64" Name="connectivity" format="ascii" RangeMin="0" RangeMax="78">
          23 8 18 29 30 20
          25 31 40 23 29 45
          46 30 31 47 52 40
          45 57 58 46 47 59
          60 52 57 61 62 58
          59 63 22 7 8 23
          28 15 20 30 39 22
          23 40 44 28 30 46
          51 39 40 52 56 44
          46 58 64 51 52 60
          65 56 58 62 19 5
          7 22 26 11 15 28
          37 19 22 39 42 26
          28 44 49 37 39 51
          54 42 44 56 66 49
          51 64 67 54 56 65
          21 6 12 27 23 8
          18 29 38 21 27 43
          40 23 29 45 50 38
          43 55 52 40 45 57
          68 50 55 69 60 52
          57 61 16 3 6 21
          22 7 8 23 35 16
          21 38 39 22 23 40
          70 35 38 50 51 39
          40 52 71 70 50 68
          64 51 52 60 14 2
          3 16 19 5 7 22
          34 14 16 35 37 19
          22 39 72 34 35 70
          49 37 39 51 73 72
          70 71 66 49 51 64
          17 4 9 24 21 6
          12 27 36 17 24 41
          38 21 27 43 48 36
          41 53 50 38 43 55
          74 48 53 75 68 50
          55 69 13 1 4 17
          16 3 6 21 33 13
          17 36 35 16 21 38
          76 33 36 48 70 35
          38 50 77 76 48 74
          71 70 50 68 10 0
          1 13 14 2 3 16
          32 10 13 33 34 14
          16 35 78 32 33 76
          72 34 35 70
        </DataArray>
        <DataArray type="Int64" Name="offsets" format="ascii" RangeMin="8" RangeMax="280">
          8 16 24 32 40 48
          56 64 72 80 88 96
          104 112 120 128 136 144
          152 160 168 176 184 192
          200 208 216 224 232 240
          248 256 264 272 280
        </DataArray>
        <DataArray type="UInt8" Name="types" format="ascii" RangeMin="12" RangeMax="12">
          12 12 12 12 12 12
          12 12 12 12 12 12
          12 12 12 12 12 12
          12 12 12 12 12 12
          12 12 12 12 12 12
          12 12 12 12 12
        </DataArray>
      </Cells>
    </Piece>
  </UnstructuredGrid>
</VTKFile>
