<?xml version="1.0"?>
<VTKFile type="UnstructuredGrid" version="0.1" byte_order="LittleEndian" header_type="UInt32" compressor="vtkZLibDataCompressor">
  <UnstructuredGrid>
    <Piece NumberOfPoints="79" NumberOfCells="35">
      <PointData>
        <DataArray type="Float64" Name="plcd_BC" NumberOfComponents="3" format="ascii" RangeMin="0" RangeMax="0">
          0 0 0 0 0 0
          0 0 0 0 0 0
          0 0 0 0 0 0
          0 0 0 0 0 0
          0 0 0 0 0 0
          0 0 0 0 0 0
          0 0 0 0 0 0
          0 0 0 0 0 0
          0 0 0 0 0 0
          0 0 0 0 0 0
          0 0 0 0 0 0
          0 0 0 0 0 0
          0 0 0 0 0 0
          0 0 0 0 0 0
          0 0 0 0 0 0
          0 0 0 0 0 0
          0 0 0 0 0 0
          0 0 0 0 0 0
          0 0 0 0 0 0
          0 0 0 0 0 0
          0 0 0 0 0 0
          0 0 0 0 0 0
          0 0 0 0 0 0
          0 0 0 0 0 0
          0 0 0 0 0 0
          0 0 0 0 0 0
          0 0 0 0 0 0
          0 0 0 0 0 0
          0 0 0 0 0 0
          0 0 0 0 0 0
          0 0 0 0 0 0
          0 0 0 0 0 0
          0 0 0 0 0 0
          0 0 0 0 0 0
          0 0 0 0 0 0
          0 0 0 0 0 0
          0 0 0 0 0 0
          0 0 0 0 0 0
          0 0 0 0 0 0
          0 0 0
          <InformationKey name="L2_NORM_RANGE" location="vtkDataArray" length="2">
            <Value index="0">
              0
            </Value>
            <Value index="1">
              0
            </Value>
          </InformationKey>
        </DataArray>
        <DataArray type="Float64" Name="plcd_FIXNO" NumberOfComponents="3" format="ascii" RangeMin="1.7320508075688772" RangeMax="1.7320508075688772">
          -1 -1 -1 -1 -1 -1
          -1 -1 -1 -1 -1 -1
          -1 -1 -1 -1 -1 -1
          -1 -1 -1 -1 -1 -1
          -1 -1 -1 -1 -1 -1
          -1 -1 -1 -1 -1 -1
          -1 -1 -1 -1 -1 -1
          -1 -1 -1 -1 -1 -1
          -1 -1 -1 -1 -1 -1
          -1 -1 -1 -1 -1 -1
          -1 -1 -1 -1 -1 -1
          -1 -1 -1 -1 -1 -1
          -1 -1 -1 -1 -1 -1
          -1 -1 -1 -1 -1 -1
          -1 -1 -1 -1 -1 -1
          -1 -1 -1 -1 -1 -1
          -1 -1 -1 -1 -1 -1
          -1 -1 -1 -1 -1 -1
          -1 -1 -1 -1 -1 -1
          -1 -1 -1 -1 -1 -1
          -1 -1 -1 -1 -1 -1
          -1 -1 -1 -1 -1 -1
          -1 -1 -1 -1 -1 -1
          -1 -1 -1 -1 -1 -1
          -1 -1 -1 -1 -1 -1
          -1 -1 -1 -1 -1 -1
          -1 -1 -1 -1 -1 -1
          -1 -1 -1 -1 -1 -1
          -1 -1 -1 -1 -1 -1
          -1 -1 -1 -1 -1 -1
          -1 -1 -1 -1 -1 -1
          -1 -1 -1 -1 -1 -1
          -1 -1 -1 -1 -1 -1
          -1 -1 -1 -1 -1 -1
          -1 -1 -1 -1 -1 -1
          -1 -1 -1 -1 -1 -1
          -1 -1 -1 -1 -1 -1
          -1 -1 -1 -1 -1 -1
          -1 -1 -1 -1 -1 -1
          -1 -1 -1
          <InformationKey name="L2_NORM_RANGE" location="vtkDataArray" length="2">
            <Value index="0">
              1.7320508076
            </Value>
            <Value index="1">
              1.7320508076
            </Value>
          </InformationKey>
        </DataArray>
        <DataArray type="Float64" Name="Displacement" NumberOfComponents="3" format="ascii" RangeMin="0.005478965135057741" RangeMax="0.012580628831347312">
          -0.0008973375891078442 -0.0125468284627866 -0.00021000611588565724 -0.0008648492787506464 -0.012142953006645509 -0.00014577295492095526
          -0.00028651571077340085 -0.012272722909142277 -0.00001133940577744243 -0.0002876723386134425 -0.012152598363658108 -0.000010633954691546202
          -0.0008522072020875535 -0.012059953329546763 -0.00011642723331146442 0.00028003230910286634 -0.012167690641120582 0.000059550602322466464
          -0.00028439787559641144 -0.012058793119727004 -0.00002690473514924657 0.00028127725091232566 -0.012132837146389623 0.00006220764147859864
          0.0002838089233959483 -0.012070070847014383 0.000048964405328495635 -0.0008489415428941947 -0.011982053308313532 -0.00011032017361659872
          -0.0008507470239268309 -0.01045040985821741 -0.0000913370774482418 0.0008240885467380912 -0.012 0.00004652353337726987
          -0.00028165674280001423 -0.01198640435785708 -0.000031360671834820874 -0.0008530331373962389 -0.01043365300609579 -0.00010324940704055743
          -0.00027152241515913765 -0.010493161050260045 -0.000038851414015693214 0.0008426681871325982 -0.012134907860409426 0.00008482887918576223
          -0.00027858859937531134 -0.01042954012826343 -0.00003887959094644179 -0.0008469917228179806 -0.010361564273139575 -0.00010746320321519025
          0.00028710893359379987 -0.011993064287091718 0.00004408884484552976 0.0002885788725760122 -0.01050647612052943 0.00003107724146180438
          0.0008532983124085556 -0.012069950744792213 0.00010949494806575666 -0.00028169209768104305 -0.010361512962180372 -0.00003668007833096279
          0.00028519352493759246 -0.010431876251588949 0.000031346263873684955 0.00028228767841726723 -0.010360371775028169 0.000033617103602626695
          -0.0008458663555196973 -0.01029030551598636 -0.00010845568639856768 0.0008571992574137704 -0.012 0.00011452091422089946
          0.0008435933829560393 -0.01053514562806036 0.00011204635454090681 -0.0002818710768017677 -0.0102898307658495 -0.00003661313524984815
          0.0008436956746001434 -0.010430366370263938 0.00010581037224013469 0.00028283243018664857 -0.010290496898371438 0.00003432698201565644
          0.0008457639794292745 -0.010361398597627615 0.00010382218593596839 0.0008473644878459318 -0.010290640736445622 0.00010465530138151815
          -0.000823567970257208 -0.008817166115810552 -0.00009221113517154207 -0.000824714657362147 -0.008744743268895756 -0.00009233670410792823
          -0.00027750516609497197 -0.00880642190134846 -0.000029392021246511866 -0.00027578602928816253 -0.008744934108296763 -0.000030256332958306593
          -0.0008253744304024006 -0.008683861332160462 -0.00009441446463583372 0.0002720412909082441 -0.008806341820675844 0.000030943964969734874
          -0.0002750017815615455 -0.008682494599688895 -0.000031638706684375214 0.0002743102916025539 -0.008745514902065047 0.00003149981851125805
          0.0002750054066937477 -0.008682908697056752 0.00003163190723089118 -0.0008264334094568239 -0.00862030578425371 -0.0000965964163801541
          0.0008280200983228351 -0.008801896666129622 0.00009014701031027437 -0.0002758986123061546 -0.008618963006754424 -0.00003240473744815867
          0.0008285247801093817 -0.008747944685217881 0.00009320869460928242 0.0002752905240870409 -0.00861871698958101 0.00003219689064724809
          0.0008257219018099976 -0.008684206709962807 0.00009524155584109275 0.0008256550401531698 -0.008620152349416328 0.00009704253309683462
          -0.0007900576446596587 -0.007063389053364997 -0.00008515831583712471 0.0002629131057532594 -0.0071706275785756255 0.00002626551993450489
          -0.0002632307320903793 -0.007061395489744269 -0.00002829065026143497 0.00026327872605959454 -0.007116913991965251 0.000027302966671806963
          0.00026318888511852944 -0.0070612566456492104 0.000028448351317850675 -0.0007904463708079386 -0.00700559133397421 -0.00008799560779262677
          0.0007899840833180616 -0.007173832378680674 0.00007917223756624625 -0.00026366086953734234 -0.007003571768610194 -0.000029249566193867775
          0.0007909946749872431 -0.007118513868005127 0.00008202141526504286 0.0002637569819125102 -0.0070036175284708116 0.000029469203353855814
          0.0007901262972232921 -0.007063233438755951 0.00008508942107622461 0.0007906336610803312 -0.00700556733404546 0.00008807858023283802
          0.00024671171321643474 -0.005524836634424598 0.00002507364869584998 0.0002472324353995619 -0.005473320625599093 0.000026389457293394172
          0.0007405775148295931 -0.005527477204947198 0.0000752837816996884 0.0007410478877157266 -0.005475982498727221 0.0000791740558179837
          0.0002467193888049564 -0.005573772187334104 0.00002380582940462633 0.0007418860844980279 -0.005576519748287231 0.00007141951219710897
          0.00024592313025678664 -0.005620122527907106 0.000022495180242417705 0.000741162606017246 -0.005622492880875081 0.00006753524741081293
          -0.000246695666458078 -0.005524808157842198 -0.00002512904350517135 -0.00024721871168839155 -0.005473333900556593 -0.00002645502363183108
          -0.0002631120727231237 -0.007117342097196462 -0.000027541116748804762 -0.00024669330487427126 -0.005573629889243052 -0.000023754480649759522
          -0.0002617099776790386 -0.007171376557560507 -0.000026615561331400017 -0.0002461123125073677 -0.005619802010145313 -0.00002242173563851837
          -0.0007406546945888829 -0.0055274509320727095 -0.00007529938565031973 -0.0007410704434869566 -0.005475973907826398 -0.00007922000776982651
          -0.0007917515643590129 -0.007119834915384748 -0.00008245436981173754 -0.0007418374772711229 -0.005576130624347652 -0.00007130220334664734
          -0.000791220831998136 -0.0071713142862096894 -0.00007932708014838567
          <InformationKey name="L2_NORM_RANGE" location="vtkDataArray" length="2">
            <Value index="0">
              0.0054789651351
            </Value>
            <Value index="1">
              0.012580628831
            </Value>
          </InformationKey>
        </DataArray>
      </PointData>
      <CellData>
        <DataArray type="UInt8" Name="vtkGhostType" format="ascii" RangeMin="0" RangeMax="0">
          0 0 0 0 0 0
          0 0 0 0 0 0
          0 0 0 0 0 0
          0 0 0 0 0 0
          0 0 0 0 0 0
          0 0 0 0 0
        </DataArray>
        <DataArray type="Float64" Name="Stress" NumberOfComponents="6" format="ascii" RangeMin="52256.59215106701" RangeMax="3766334.493626609">
          260835.26457811543 -323365.55909161223 -89334.33692172433 -170026.839418147 78153.9284399434 -299289.3336100041
          850083.3455134394 3541.9691780493117 3358.3709998364575 -59951.79723556753 81930.42299835844 2023.318957283178
          1411112.8418995256 -1450.629493921584 9110.34503883367 -47381.61334632644 131071.220080127 2853.8133626492454
          1982767.6272010992 1489.6433819924714 1969.8216780478324 -47030.48079295314 117551.0818768559 -1332.0154971607208
          -107951.37257241108 -213502.42622033818 -594252.464417427 -404097.80997203186 -37641.85837094129 -750789.0067561346
          824653.0315720577 42265.804767444824 71910.74312322882 -264834.93232324015 197416.32952640607 58947.10666145467
          1436286.817911931 -25122.367353127374 9319.058363235867 -135891.23892740192 235027.3384729255 -11250.055775275177
          1977113.5814556298 11146.920590335838 -3012.0921673699822 -162831.94059755662 211380.601570813 4955.5635322803155
          178087.03433113536 2812326.728279935 -265208.2820996385 511566.097903117 -258293.4798409745 878959.5729506993
          675183.7123343894 -980981.9749182704 41506.30417162975 -812313.6976244047 223195.1142846743 -331249.4046333854
          1477739.1191936969 187321.9032193767 11975.681101966295 -166669.86380567477 115212.64947117989 87866.70334198841
          1964148.9479217348 -34778.73157363836 -3501.2775395392327 -318699.0384394921 129040.18545658566 -20033.659913338568
          -64120.22450572181 -754540.3241932217 213041.67087301286 -56844.41522469973 129645.65069900735 29796.015220651898
          32875.96106591024 17498.178309517232 -15331.266037971644 -58933.66674885896 -27251.974805800623 -3197.1231530860114
          -10259.379451465968 -4882.426343259172 3080.226443546385 -50583.50320414246 5140.153283161209 2656.821859861675
          765.2848893558839 3358.0778204026356 -1463.4995650367841 -52501.95789309975 566.4653154884127 947.325367307707
          195857.34554399652 642759.3585261406 1303075.019537978 -224760.80950528523 525862.5665367831 -127762.33154952976
          73592.11151418282 -115359.05221711108 -153674.16745366223 -271922.68707799277 10890.392653557996 18059.49783877511
          -21221.286769647544 -17339.916361411175 30351.692775716765 -249313.5097652609 -15467.701379005146 -761.0560070509728
          2837.663444228383 16546.466921160536 -8939.180393824296 -254045.52022917138 3590.1443244480997 -300.00696634592714
          258216.54391449213 2677240.229191914 507255.2525152467 -420023.92988457676 729139.4095441358 -71708.24185586238
          300121.56019791757 -679917.3138556402 -76714.53877812713 -540990.2548594296 7978.956302901002 31801.028498220378
          -128550.85121961038 -387.7405881606901 -18231.600435544344 -464893.0358687518 -33913.428695244715 -4579.843798154439
          34291.59139340956 41852.56796252633 11949.479296227102 -493162.776488567 10851.078560673668 -1280.2226301223382
          -227709.64857651677 -193150.25256808958 -121031.80842409433 56769.52767611794 -103266.05253380432 332417.5756910872
          -811224.7270630545 -25031.190771182617 -1305.2339941175196 -43383.03574866294 -192951.21134162764 -8108.799819455872
          -1428030.9260649814 3543.7288658534817 4346.241235496388 -50439.21374776607 -99397.56778935208 -2387.970583253311
          -1977781.2880795063 1270.6171491339046 -8140.805207138192 -50374.81569918283 -119737.62232252194 -456.94930002263027
          -614153.9861181779 -405123.59498122416 -589161.1567259999 145500.51651434402 -376821.22410985274 693939.9581898088
          -857839.4204199696 77475.6549986245 82472.54634418992 -81311.06544252168 -290164.41717337584 -63771.41950005442
          -1396333.4587959535 -36272.958172241226 10265.444188330419 -184640.82309871743 -187815.733794808 17145.243110697505
          -1984905.882745138 12948.17368889914 -16975.789107807344 -162700.69952698995 -224543.46946320386 -7361.480288959145
          -115812.29687882695 3383800.3153556525 -214337.68000712068 -1125212.654012844 -480791.4455152309 -1085612.2160652727
          -1045267.3472470321 -1394213.8934373036 44889.702372679945 297487.89762141387 -13275.479453368469 482370.6686861279
          -1340742.6674326335 304681.56964971 9349.713806500891 -458629.0510585937 -149856.8560984403 -128325.26964565803
          <InformationKey name="L2_NORM_RANGE" location="vtkDataArray" length="2">
            <Value index="0">
              52256.592151
            </Value>
            <Value index="1">
              3766334.4936
            </Value>
          </InformationKey>
        </DataArray>
        <DataArray type="Float64" Name="Damage" format="ascii" RangeMin="0" RangeMax="0.3238562538671115">
          0 0 0 0 0 0
          0 0 0.22194648696197303 0 0 0
          0 0 0 0 0 0
          0 0 0.22411873056201917 0 0 0
          0 0 0 0 0.045603946244810165 0
          0 0 0.3238562538671115 0.01835032974394988 0
        </DataArray>
        <DataArray type="Float64" Name="Tau" format="ascii" RangeMin="8040844.011283461" RangeMax="18914773.72261295">
          8040844.011283461 8040844.011283461 8040844.011283461 8040844.011283461 8040844.011283461 8040844.011283461
          8040844.011283461 8040844.011283461 13688084.833081689 8040844.011283461 8040844.011283461 8040844.011283461
          8040844.011283461 8040844.011283461 8040844.011283461 8040844.011283461 8040844.011283461 8040844.011283461
          8040844.011283461 8040844.011283461 13957303.62831782 8040844.011283461 8040844.011283461 8040844.011283461
          8040844.011283461 8040844.011283461 8040844.011283461 8040844.011283461 8617783.587521102 8040844.011283461
          8040844.011283461 8040844.011283461 18914773.72261295 8213699.8003504425 8040844.011283461
        </DataArray>
        <DataArray type="Float64" Name="ComparisonRatio" format="ascii" RangeMin="0.0730308314733978" RangeMax="2.1445255169898707">
          0.1742942021315046 0.18329993086878713 0.29057330316953134 0.4017397954730634 0.2650569600657207 0.18580787980994493
          0.2890437671301422 0.40140416433318216 1.371320826903122 0.3095689096837208 0.30274672027471056 0.4057670452416379
          0.1629306341016033 0.0730308314733978 0.09284301473949753 0.122665300613824 0.21434849264613237 0.0895622885316058
          0.0869033704751446 0.11610396883236211 1.4300717292659604 0.25717803880320167 0.12268763069327127 0.13653014392341173
          0.19389077955463077 0.17885339032142766 0.28955402964723065 0.4023071916752162 0.4404236670727464 0.21684940070412698
          0.29130182746522665 0.3995028602497245 2.1445255169898707 0.4639634978655139 0.30596552648815245
        </DataArray>
      </CellData>
      <Points>
        <DataArray type="Float32" Name="Points" NumberOfComponents="3" format="ascii" RangeMin="3.4021293991794836" RangeMax="11.657299898339286">
          11.40188980102539 -1.3746089935302734 2 11.40188980102539 -1.3746089935302734 1.3333330154418945
          11.40188980102539 -0.707939624786377 2 11.40188980102539 -0.707939624786377 1.3333330154418945
          11.40188980102539 -1.3746089935302734 0.6666666865348816 11.40188980102539 -0.041270170360803604 2
          11.40188980102539 -0.707939624786377 0.6666666865348816 11.40188980102539 -0.041270170360803604 1.3333330154418945
          11.40188980102539 -0.041270170360803604 0.6666666865348816 11.40188980102539 -1.3746089935302734 0
          9.401886940002441 -1.3746089935302734 2 11.40188980102539 0.6253991723060608 2
          11.40188980102539 -0.707939624786377 0 9.401886940002441 -1.3746089935302734 1.3333330154418945
          9.401886940002441 -0.707939624786377 2 11.40188980102539 0.6253991723060608 1.3333330154418945
          9.401886940002441 -0.707939624786377 1.3333330154418945 9.401886940002441 -1.3746089935302734 0.6666666865348816
          11.40188980102539 -0.041270170360803604 0 9.401886940002441 -0.041270170360803604 2
          11.40188980102539 0.6253991723060608 0.6666666865348816 9.401886940002441 -0.707939624786377 0.6666666865348816
          9.401886940002441 -0.041270170360803604 1.3333330154418945 9.401886940002441 -0.041270170360803604 0.6666666865348816
          9.401886940002441 -1.3746089935302734 0 11.40188980102539 0.6253991723060608 0
          9.401886940002441 0.6253991723060608 2 9.401886940002441 -0.707939624786377 0
          9.401886940002441 0.6253991723060608 1.3333330154418945 9.401886940002441 -0.041270170360803604 0
          9.401886940002441 0.6253991723060608 0.6666666865348816 9.401886940002441 0.6253991723060608 0
          7.401884078979492 -1.3746089935302734 2 7.401884078979492 -1.3746089935302734 1.3333330154418945
          7.401884078979492 -0.707939624786377 2 7.401884078979492 -0.707939624786377 1.3333330154418945
          7.401884078979492 -1.3746089935302734 0.6666666865348816 7.401884078979492 -0.041270170360803604 2
          7.401884078979492 -0.707939624786377 0.6666666865348816 7.401884078979492 -0.041270170360803604 1.3333330154418945
          7.401884078979492 -0.041270170360803604 0.6666666865348816 7.401884078979492 -1.3746089935302734 0
          7.401884078979492 0.6253991723060608 2 7.401884078979492 -0.707939624786377 0
          7.401884078979492 0.6253991723060608 1.3333330154418945 7.401884078979492 -0.041270170360803604 0
          7.401884078979492 0.6253991723060608 0.6666666865348816 7.401884078979492 0.6253991723060608 0
          5.401882171630859 -1.3746089935302734 0.6666666865348816 5.401882171630859 -0.041270170360803604 2
          5.401882171630859 -0.707939624786377 0.6666666865348816 5.401882171630859 -0.041270170360803604 1.3333330154418945
          5.401882171630859 -0.041270170360803604 0.6666666865348816 5.401882171630859 -1.3746089935302734 0
          5.401882171630859 0.6253991723060608 2 5.401882171630859 -0.707939624786377 0
          5.401882171630859 0.6253991723060608 1.3333330154418945 5.401882171630859 -0.041270170360803604 0
          5.401882171630859 0.6253991723060608 0.6666666865348816 5.401882171630859 0.6253991723060608 0
          3.401879072189331 -0.041270170360803604 0.6666666865348816 3.401879072189331 -0.041270170360803604 0
          3.401879072189331 0.6253991723060608 0.6666666865348816 3.401879072189331 0.6253991723060608 0
          3.401879072189331 -0.041270170360803604 1.3333330154418945 3.401879072189331 0.6253991723060608 1.3333330154418945
          3.401879072189331 -0.041270170360803604 2 3.401879072189331 0.6253991723060608 2
          3.401879072189331 -0.707939624786377 0.6666666865348816 3.401879072189331 -0.707939624786377 0
          5.401882171630859 -0.707939624786377 1.3333330154418945 3.401879072189331 -0.707939624786377 1.3333330154418945
          5.401882171630859 -0.707939624786377 2 3.401879072189331 -0.707939624786377 2
          3.401879072189331 -1.3746089935302734 0.6666666865348816 3.401879072189331 -1.3746089935302734 0
          5.401882171630859 -1.3746089935302734 1.3333330154418945 3.401879072189331 -1.3746089935302734 1.3333330154418945
          5.401882171630859 -1.3746089935302734 2
          <InformationKey name="L2_NORM_RANGE" location="vtkDataArray" length="2">
            <Value index="0">
              3.4021293992
            </Value>
            <Value index="1">
              11.657299898
            </Value>
          </InformationKey>
        </DataArray>
      </Points>
      <Cells>
        <DataArray type="Int64" Name="connectivity" format="ascii" RangeMin="0" RangeMax="78">
          23 8 18 29 30 20
          25 31 40 23 29 45
          46 30 31 47 52 40
          45 57 58 46 47 59
          60 52 57 61 62 58
          59 63 22 7 8 23
          28 15 20 30 39 22
          23 40 44 28 30 46
          51 39 40 52 56 44
          46 58 64 51 52 60
          65 56 58 62 19 5
          7 22 26 11 15 28
          37 19 22 39 42 26
          28 44 49 37 39 51
          54 42 44 56 66 49
          51 64 67 54 56 65
          21 6 12 27 23 8
          18 29 38 21 27 43
          40 23 29 45 50 38
          43 55 52 40 45 57
          68 50 55 69 60 52
          57 61 16 3 6 21
          22 7 8 23 35 16
          21 38 39 22 23 40
          70 35 38 50 51 39
          40 52 71 70 50 68
          64 51 52 60 14 2
          3 16 19 5 7 22
          34 14 16 35 37 19
          22 39 72 34 35 70
          49 37 39 51 73 72
          70 71 66 49 51 64
          17 4 9 24 21 6
          12 27 36 17 24 41
          38 21 27 43 48 36
          41 53 50 38 43 55
          74 48 53 75 68 50
          55 69 13 1 4 17
          16 3 6 21 33 13
          17 36 35 16 21 38
          76 33 36 48 70 35
          38 50 77 76 48 74
          71 70 50 68 10 0
          1 13 14 2 3 16
          32 10 13 33 34 14
          16 35 78 32 33 76
          72 34 35 70
        </DataArray>
        <DataArray type="Int64" Name="offsets" format="ascii" RangeMin="8" RangeMax="280">
          8 16 24 32 40 48
          56 64 72 80 88 96
          104 112 120 128 136 144
          152 160 168 176 184 192
          200 208 216 224 232 240
          248 256 264 272 280
        </DataArray>
        <DataArray type="UInt8" Name="types" format="ascii" RangeMin="12" RangeMax="12">
          12 12 12 12 12 12
          12 12 12 12 12 12
          12 12 12 12 12 12
          12 12 12 12 12 12
          12 12 12 12 12 12
          12 12 12 12 12
        </DataArray>
      </Cells>
    </Piece>
  </UnstructuredGrid>
</VTKFile>
