<?xml version="1.0"?>
<VTKFile type="UnstructuredGrid" version="0.1" byte_order="LittleEndian" header_type="UInt32" compressor="vtkZLibDataCompressor">
  <UnstructuredGrid>
    <Piece NumberOfPoints="79" NumberOfCells="35">
      <PointData>
        <DataArray type="Float64" Name="plcd_BC" NumberOfComponents="3" format="ascii" RangeMin="0" RangeMax="0">
          0 0 0 0 0 0
          0 0 0 0 0 0
          0 0 0 0 0 0
          0 0 0 0 0 0
          0 0 0 0 0 0
          0 0 0 0 0 0
          0 0 0 0 0 0
          0 0 0 0 0 0
          0 0 0 0 0 0
          0 0 0 0 0 0
          0 0 0 0 0 0
          0 0 0 0 0 0
          0 0 0 0 0 0
          0 0 0 0 0 0
          0 0 0 0 0 0
          0 0 0 0 0 0
          0 0 0 0 0 0
          0 0 0 0 0 0
          0 0 0 0 0 0
          0 0 0 0 0 0
          0 0 0 0 0 0
          0 0 0 0 0 0
          0 0 0 0 0 0
          0 0 0 0 0 0
          0 0 0 0 0 0
          0 0 0 0 0 0
          0 0 0 0 0 0
          0 0 0 0 0 0
          0 0 0 0 0 0
          0 0 0 0 0 0
          0 0 0 0 0 0
          0 0 0 0 0 0
          0 0 0 0 0 0
          0 0 0 0 0 0
          0 0 0 0 0 0
          0 0 0 0 0 0
          0 0 0 0 0 0
          0 0 0 0 0 0
          0 0 0 0 0 0
          0 0 0
          <InformationKey name="L2_NORM_RANGE" location="vtkDataArray" length="2">
            <Value index="0">
              0
            </Value>
            <Value index="1">
              0
            </Value>
          </InformationKey>
        </DataArray>
        <DataArray type="Float64" Name="plcd_FIXNO" NumberOfComponents="3" format="ascii" RangeMin="1.7320508075688772" RangeMax="1.7320508075688772">
          -1 -1 -1 -1 -1 -1
          -1 -1 -1 -1 -1 -1
          -1 -1 -1 -1 -1 -1
          -1 -1 -1 -1 -1 -1
          -1 -1 -1 -1 -1 -1
          -1 -1 -1 -1 -1 -1
          -1 -1 -1 -1 -1 -1
          -1 -1 -1 -1 -1 -1
          -1 -1 -1 -1 -1 -1
          -1 -1 -1 -1 -1 -1
          -1 -1 -1 -1 -1 -1
          -1 -1 -1 -1 -1 -1
          -1 -1 -1 -1 -1 -1
          -1 -1 -1 -1 -1 -1
          -1 -1 -1 -1 -1 -1
          -1 -1 -1 -1 -1 -1
          -1 -1 -1 -1 -1 -1
          -1 -1 -1 -1 -1 -1
          -1 -1 -1 -1 -1 -1
          -1 -1 -1 -1 -1 -1
          -1 -1 -1 -1 -1 -1
          -1 -1 -1 -1 -1 -1
          -1 -1 -1 -1 -1 -1
          -1 -1 -1 -1 -1 -1
          -1 -1 -1 -1 -1 -1
          -1 -1 -1 -1 -1 -1
          -1 -1 -1 -1 -1 -1
          -1 -1 -1 -1 -1 -1
          -1 -1 -1 -1 -1 -1
          -1 -1 -1 -1 -1 -1
          -1 -1 -1 -1 -1 -1
          -1 -1 -1 -1 -1 -1
          -1 -1 -1 -1 -1 -1
          -1 -1 -1 -1 -1 -1
          -1 -1 -1 -1 -1 -1
          -1 -1 -1 -1 -1 -1
          -1 -1 -1 -1 -1 -1
          -1 -1 -1 -1 -1 -1
          -1 -1 -1 -1 -1 -1
          -1 -1 -1
          <InformationKey name="L2_NORM_RANGE" location="vtkDataArray" length="2">
            <Value index="0">
              1.7320508076
            </Value>
            <Value index="1">
              1.7320508076
            </Value>
          </InformationKey>
        </DataArray>
        <DataArray type="Float64" Name="Displacement" NumberOfComponents="3" format="ascii" RangeMin="0" RangeMax="0.0017916136017999658">
          -0.00031037392801161625 -0.0010419592236689597 -0.000008037457213309245 -0.00031075622061320796 -0.0010347083830215434 -0.000013656075451317265
          -0.00010277156864745354 -0.0010380957321238869 -0.00000265089572958462 -0.0001031290301467395 -0.0010308681078519827 -0.000004551808086386783
          -0.0003101198229963527 -0.0010237618056378056 -0.00001918646046769699 0.00010277145581904734 -0.001038093373014443 0.0000026509391506232204
          -0.00010312981667068313 -0.0010199234385790928 -0.0000063947088722726505 0.00010312806584438315 -0.001030867937415459 0.000004551480544615938
          -0.00031037949257136093 -0.0010091278461922626 -0.000024797017407316484 0.0003103743545039066 -0.0010419631527680078 0.000008037230256110773
          -0.00010341547490300588 -0.0010052550457260857 -0.000008294776784401195 0.0003107581280329699 -0.00103470688223741 0.000013656148640580665
          -0.0002235260319960851 -0.000495550063082382 -0.0000018500629542445977 -0.00022440092085866906 -0.0004923290130494183 -0.0000079584262112078
          -0.00007391704825021138 -0.000491513585711487 -5.850159655261719e-7 -0.00007456936272659978 -0.0004883115187823845 -0.0000026460697690156463
          -0.00022377411171759794 -0.000484875804251112 -0.000014355153707408986 0.00007391707466347379 -0.000491514106688644 5.849511374159939e-7
          -0.0000745635339333628 -0.00048085290349693415 -0.000004791389563490354 0.0000745696320812698 -0.0004883114500412618 0.000002646108786357852
          0.00007456346744835318 -0.00048085277940908635 0.000004791383742427265 -0.000223513480898138 -0.0004731889612094376 -0.000020493258556910408
          0.00022352591201628394 -0.0004955488653556061 0.000001849962405695049 -0.00007452067523115403 -0.00046916802858448125 -0.0000068584179821605065
          0.00022440056489652664 -0.0004923292322143503 0.000007958312699236393 0.00007452065951442324 -0.00046916793389559946 0.000006858543060073235
          0.00022377415626642424 -0.00048487552450747544 0.000014355159597617776 0.00022351368094043156 -0.0004731888765885605 0.000020493407487475737
          -0.00012270348303871335 -0.00013762956179662393 0.000008063701471196414 -0.00012227886201872533 -0.00013968362934640394 -0.000001276506532974801
          -0.000039781223592277686 -0.00013092102951653666 0.0000028383174508051925 -0.00003965809410768076 -0.00013295073923497768 -3.923288379783573e-7
          -0.00012132760577146713 -0.00013588033095146245 -0.000010218388534113441 0.00003978126415204031 -0.00013092091504957648 -0.000002838327916917561
          -0.00003959752670465007 -0.00012915061336183145 -0.0000034193415916357937 0.000039658057701606716 -0.00013295077418885601 3.922994907326396e-7
          0.00003959755960756034 -0.00012915063926788637 0.000003419329417014288 -0.00012240493488788697 -0.000126201227730591 -0.000019530690731349018
          0.00012270352558653945 -0.0001376298880564967 -0.000008063686379164372 -0.00004046802487300761 -0.0001194685821162943 -0.000006649742910605351
          0.00012227891335889234 -0.00013968360000940125 0.000001276519214555738 0.000040468051344497684 -0.00011946859103138661 0.000006649699050072422
          0.00012132755623726403 -0.0001358803926275075 0.000010218371093452723 0.0001224048933088855 -0.00012620122212069827 0.00001953064839722647
          0 0 0 0 0 0
          0 0 0 0 0 0
          0 0 0 0 0 0
          0 0 0 0 0 0
          0 0 0 0 0 0
          0 0 0 0 0 0
          0 0 0 0 0 0
          0 0 0 0 0 0
          0.00012821125953315873 -0.0017351287613937643 0.000006419019176174853 0.00012820914457157057 -0.00172067662248195 0.00000803166799292173
          0.00010313007529206101 -0.0010199238444595737 0.000006394675326322509 0.0003858132276084581 -0.0017383566823384968 0.00001926941268495571
          0.0003851772373292112 -0.0017239010036570776 0.00002408129389320554 0.00031012040950853265 -0.001023762778422773 0.00001918641271205122
          0.00012779635527018424 -0.001746389643286033 0.000004803060247705291 0.00038533878276358294 -0.0017496117431782623 0.000014505888848675847
          -0.00012820945992799267 -0.0017206773828507527 -0.000008032673698218213 -0.00012843085710828627 -0.0017030351748529553 -0.000009647787641413528
          0.00012843265264824593 -0.001703033604067508 0.00000964775194606494 0.00010341527143995679 -0.0010052555032408366 0.00000829433112444774
          -0.00012820762771997927 -0.0017351261744268948 -0.00000641786416509049 -0.00012779615242401455 -0.0017463791722703678 -0.000004802858657686081
          -0.00038518091624695466 -0.0017239034149683237 -0.000024082097239296165 -0.0003853370277831661 -0.0017062651872785202 -0.00002884823866094646
          -0.00038581937321722966 -0.0017383476818231328 -0.000019268653617622417 -0.0003853375558349683 -0.0017496239385713693 -0.000014503096075938593
          0.0003103788407391998 -0.001009128295500453 0.00002479645897514572
          <InformationKey name="L2_NORM_RANGE" location="vtkDataArray" length="2">
            <Value index="0">
              0
            </Value>
            <Value index="1">
              0.0017916136018
            </Value>
          </InformationKey>
        </DataArray>
      </PointData>
      <CellData>
        <DataArray type="UInt8" Name="vtkGhostType" format="ascii" RangeMin="0" RangeMax="1">
          1 1 0 1 1 1
          1 0 1 0 1 0
          1 0 1 0 0 1
          0 0 0 0 1 0
          0 0 0 0 0 0
          0 0 0 0 0
        </DataArray>
        <DataArray type="Float64" Name="Stress" NumberOfComponents="6" format="ascii" RangeMin="102552.29159625251" RangeMax="4307325.0579988025">
          3005592.5637603207 -2642.073954879066 9709.761840907475 -131636.4420373972 110541.94561538688 3.284079758595908
          3001373.9075806905 -6106.069044362557 3554.144374137736 -202874.9854498581 69498.11572992963 862.823582044939
          3470539.896186708 25472.799574428966 28159.471668874106 -210216.47778595745 56117.73733042127 3051.511089955551
          36.31329754187027 73.23357522422884 -2.1004729700744065 -111285.23782106634 -34.144397822374 2159.7730239297525
          65.28435924448422 -61.26397297621588 84.84675252397392 -210554.53779367337 53.821083720241404 73.7604128573621
          -19.269817254360532 -9.591658017452573 -17.272999667111435 -191599.07738869195 -18.93927915015138 -717.6960747941848
          -66.67557054234203 -519.1172423368116 -149.22709910626327 -332673.37601306057 -37.75881779785823 -2215.5638303563574
          8.386905286315596 102.66129293839913 35.34039668482001 -322068.10410936724 9.714589697664167 174.97295270656832
          -3001119.087171551 6502.595097653844 -3734.8848455333464 -76396.42203084979 -56834.543605666586 -728.6021931178111
          -3471174.9620990325 -25671.636328598062 -27128.705633873695 -83775.31480740462 -70966.18164618588 -3378.456831770367
          -3005738.7035902017 2450.0286844108196 -9621.02707392139 -131398.38278066125 -110509.8625347613 217.388516017425
          -3454689.5575919123 -21009.373427625775 -13706.392427025472 -135867.96089984014 -110595.50667665327 -578.3467085822958
          -3001245.850130548 6683.181202326901 -3354.259251448133 -202714.66182170197 -69403.3512624778 632.2842385690892
          -3470563.405786298 -25645.320246692703 -28201.540981244892 -210263.51922562328 -56130.79882147626 3097.459144835844
          3471175.2133701383 25658.63675421916 27155.22679254417 -83788.66321890728 70985.53927967834 -3384.71176183999
          3878696.0371337812 -144428.52831246547 -110552.65714102282 -38276.07982652489 10740.334265015179 2509.8832388715564
          4250983.46117232 453197.26442956855 496399.174980829 -10270.426791097532 173925.159172893 5450.034718803948
          3454726.740672986 21046.490273993644 13710.852744770156 -135817.1874626632 110594.50694216778 -527.3407107348976
          3910589.895240769 -133307.35701506285 -91465.81218364384 -79019.25073576457 115103.8932822633 760.7544433545663
          4190824.9257402923 446662.63064932707 508282.3464381393 -125283.22497842638 94172.152200033 1411.0084789053788
          3872219.313378229 -146137.521521953 -112436.48450149632 -157268.1897193637 114582.5252178373 -1803.1728227795757
          4191902.329265262 443750.52524206735 485101.8074183666 -119993.84053771698 -38422.028310859096 -4314.119428839497
          -2.573985953058582 -28.250110181281343 6.181615416215209 -102550.92346941488 3.9389660767892565 -528.9128388160643
          -1.2494515769649297 7.3469168643059675 -3.1841199642840365 -172985.44442136132 0.2620733789553924 13088.482383376595
          0.9603295953129418 -1.0707119324215455 1.402685651948559 -104420.03413063218 -0.2277324719070748 14391.650517073034
          5.634166863223072 7.9837489599740366 4.104723156381851 -271473.6047019623 5.419280330123911 -360.7652345146598
          -1.1098857561009936 -3.3298347186791943 -1.7051098142546834 -301676.6440034617 -1.5461708245566115 427.73735928156384
          -1.2389656736049801 -18.715552814741386 -8.013841327447608 -398897.43002400245 -2.9995282735153523 -14411.741560651852
          1.3950460099731572 4.3006398801953765 2.045744612812996 -316791.2431852926 1.184405431431287 -15479.069015975838
          -3878694.946301475 144432.60352831945 110544.2288784086 -38283.84356887557 -10741.777740904898 2506.625671871687
          -4250984.081525112 -453197.7266767539 -496396.9994106383 -10267.545888473687 -173925.82522426307 5451.441747029369
          -3910599.5966408723 133300.55476736109 91460.83437302086 -79011.31895440829 -115104.78516734795 771.2808263182378
          -4190824.011923126 -446661.22801229474 -508281.54464874126 -125283.06874044833 -94172.05437442644 1409.1433488753903
          -3872216.3794787936 146188.13915977333 112445.77283089631 -157259.06187057355 -114582.97329976363 -1812.2691435034176
          -4191903.9080796777 -443766.8157753654 -485104.9058505334 -119994.74875762139 38423.14285898843 -4312.3370860525965
          <InformationKey name="L2_NORM_RANGE" location="vtkDataArray" length="2">
            <Value index="0">
              102552.2916
            </Value>
            <Value index="1">
              4307325.058
            </Value>
          </InformationKey>
        </DataArray>
        <DataArray type="Float64" Name="Damage" format="ascii" RangeMin="0" RangeMax="0.14578105098946834">
          0 0 0 0 0 0
          0 0 0 0 0 0
          0 0 0 0.029761595430629964 0.13195142372992566 0
          0.030074521872174197 0.14314692587150757 0.029265862442872864 0.14578083967943167 0 0
          0 0 0 0 0 0.029761464318429267
          0.1319512829165824 0.030073422271176972 0.1431469935869683 0.029264753362988796 0.14578105098946834
        </DataArray>
        <DataArray type="Float64" Name="Tau" format="ascii" RangeMin="8040844.011283461" RangeMax="9662165.218994474">
          8040844.011283461 8040844.011283461 8040844.011283461 8040844.011283461 8040844.011283461 8040844.011283461
          8040844.011283461 8040844.011283461 8040844.011283461 8040844.011283461 8040844.011283461 8040844.011283461
          8040844.011283461 8040844.011283461 8040844.011283461 8305367.776925524 9504107.24879943 8040844.011283461
          8308112.421050901 9629261.020464022 8301038.257531678 9662162.785516553 8040844.011283461 8040844.011283461
          8040844.011283461 8040844.011283461 8040844.011283461 8040844.011283461 8040844.011283461 8305366.548341917
          9504105.783652345 8308103.087851671 9629261.887430526 8301029.037048151 9662165.218994474
        </DataArray>
        <DataArray type="Float64" Name="ComparisonRatio" format="ascii" RangeMin="0.17343304186882771" RangeMax="1.122929265138898">
          0.6013811793980988 0.6030932863007303 0.7032122641799556 0.1755356322204804 0.17343304186882771 0.20315544069142666
          0.17956865375853004 0.20780661269757533 0.6023040251250067 0.7033871793752602 0.6013772505357906 0.7029470029764279
          0.6031003214845845 0.7032130270300568 0.7033866502085873 0.8279187341527572 1.0999254291801839 0.7029437967484194
          0.8277406164912611 1.118078886942154 0.8265956007455364 1.1229289891328966 0.20541235492163804 0.2442900830980529
          0.5574760972898215 0.23957739638757258 0.5919955740706655 0.24247581490004075 0.5997519194134115 0.8279185638646294
          1.099925223374537 0.8277394031969301 1.1180789674432865 0.8265945419614016 1.122929265138898
        </DataArray>
      </CellData>
      <Points>
        <DataArray type="Float32" Name="Points" NumberOfComponents="3" format="ascii" RangeMin="0.5995491172905656" RangeMax="8.934065394197013">
          -2.598129987716675 -1.3746089935302734 2 -2.598129987716675 -1.3746089935302734 1.3333330154418945
          -2.598129987716675 -0.707939624786377 2 -2.598129987716675 -0.707939624786377 1.3333330154418945
          -2.598129987716675 -1.3746089935302734 0.6666666865348816 -2.598129987716675 -0.041270170360803604 2
          -2.598129987716675 -0.707939624786377 0.6666666865348816 -2.598129987716675 -0.041270170360803604 1.3333330154418945
          -2.598129987716675 -1.3746089935302734 0 -2.598129987716675 0.6253991723060608 2
          -2.598129987716675 -0.707939624786377 0 -2.598129987716675 0.6253991723060608 1.3333330154418945
          -4.598133087158203 -1.3746089935302734 2 -4.598133087158203 -1.3746089935302734 1.3333330154418945
          -4.598133087158203 -0.707939624786377 2 -4.598133087158203 -0.707939624786377 1.3333330154418945
          -4.598133087158203 -1.3746089935302734 0.6666666865348816 -4.598133087158203 -0.041270170360803604 2
          -4.598133087158203 -0.707939624786377 0.6666666865348816 -4.598133087158203 -0.041270170360803604 1.3333330154418945
          -4.598133087158203 -0.041270170360803604 0.6666666865348816 -4.598133087158203 -1.3746089935302734 0
          -4.598133087158203 0.6253991723060608 2 -4.598133087158203 -0.707939624786377 0
          -4.598133087158203 0.6253991723060608 1.3333330154418945 -4.598133087158203 -0.041270170360803604 0
          -4.598133087158203 0.6253991723060608 0.6666666865348816 -4.598133087158203 0.6253991723060608 0
          -6.598135948181152 -1.3746089935302734 2 -6.598135948181152 -1.3746089935302734 1.3333330154418945
          -6.598135948181152 -0.707939624786377 2 -6.598135948181152 -0.707939624786377 1.3333330154418945
          -6.598135948181152 -1.3746089935302734 0.6666666865348816 -6.598135948181152 -0.041270170360803604 2
          -6.598135948181152 -0.707939624786377 0.6666666865348816 -6.598135948181152 -0.041270170360803604 1.3333330154418945
          -6.598135948181152 -0.041270170360803604 0.6666666865348816 -6.598135948181152 -1.3746089935302734 0
          -6.598135948181152 0.6253991723060608 2 -6.598135948181152 -0.707939624786377 0
          -6.598135948181152 0.6253991723060608 1.3333330154418945 -6.598135948181152 -0.041270170360803604 0
          -6.598135948181152 0.6253991723060608 0.6666666865348816 -6.598135948181152 0.6253991723060608 0
          -8.598137855529785 -1.3746089935302734 2 -8.598137855529785 -1.3746089935302734 1.3333330154418945
          -8.598137855529785 -0.707939624786377 2 -8.598137855529785 -0.707939624786377 1.3333330154418945
          -8.598137855529785 -1.3746089935302734 0.6666666865348816 -8.598137855529785 -0.041270170360803604 2
          -8.598137855529785 -0.707939624786377 0.6666666865348816 -8.598137855529785 -0.041270170360803604 1.3333330154418945
          -8.598137855529785 -0.041270170360803604 0.6666666865348816 -8.598137855529785 -1.3746089935302734 0
          -8.598137855529785 0.6253991723060608 2 -8.598137855529785 -0.707939624786377 0
          -8.598137855529785 0.6253991723060608 1.3333330154418945 -8.598137855529785 -0.041270170360803604 0
          -8.598137855529785 0.6253991723060608 0.6666666865348816 -8.598137855529785 0.6253991723060608 0
          -0.598127007484436 -0.041270170360803604 1.3333330154418945 -0.598127007484436 -0.041270170360803604 0.6666666865348816
          -2.598129987716675 -0.041270170360803604 0.6666666865348816 -0.598127007484436 0.6253991723060608 1.3333330154418945
          -0.598127007484436 0.6253991723060608 0.6666666865348816 -2.598129987716675 0.6253991723060608 0.6666666865348816
          -0.598127007484436 -0.041270170360803604 2 -0.598127007484436 0.6253991723060608 2
          -0.598127007484436 -0.707939624786377 0.6666666865348816 -0.598127007484436 -0.707939624786377 0
          -0.598127007484436 -0.041270170360803604 0 -2.598129987716675 -0.041270170360803604 0
          -0.598127007484436 -0.707939624786377 1.3333330154418945 -0.598127007484436 -0.707939624786377 2
          -0.598127007484436 -1.3746089935302734 0.6666666865348816 -0.598127007484436 -1.3746089935302734 0
          -0.598127007484436 -1.3746089935302734 1.3333330154418945 -0.598127007484436 -1.3746089935302734 2
          -2.598129987716675 0.6253991723060608 0
          <InformationKey name="L2_NORM_RANGE" location="vtkDataArray" length="2">
            <Value index="0">
              0.59954911729
            </Value>
            <Value index="1">
              8.9340653942
            </Value>
          </InformationKey>
        </DataArray>
      </Points>
      <Cells>
        <DataArray type="Int64" Name="connectivity" format="ascii" RangeMin="0" RangeMax="78">
          7 60 61 62 11 63
          64 65 5 66 60 7
          9 67 63 11 17 5
          7 19 22 9 11 24
          6 68 69 10 62 61
          70 71 3 72 68 6
          7 60 61 62 15 3
          6 18 19 7 62 20
          2 73 72 3 5 66
          60 7 14 2 3 15
          17 5 7 19 4 74
          75 8 6 68 69 10
          16 4 8 21 18 6
          10 23 1 76 74 4
          3 72 68 6 13 1
          4 16 15 3 6 18
          0 77 76 1 2 73
          72 3 12 0 1 13
          14 2 3 15 20 62
          71 25 26 65 78 27
          36 20 25 41 42 26
          27 43 52 36 41 57
          58 42 43 59 19 7
          62 20 24 11 65 26
          35 19 20 36 40 24
          26 42 51 35 36 52
          56 40 42 58 33 17
          19 35 38 22 24 40
          49 33 35 51 54 38
          40 56 18 6 10 23
          20 62 71 25 34 18
          23 39 36 20 25 41
          50 34 39 55 52 36
          41 57 31 15 18 34
          35 19 20 36 47 31
          34 50 51 35 36 52
          30 14 15 31 33 17
          19 35 46 30 31 47
          49 33 35 51 32 16
          21 37 34 18 23 39
          48 32 37 53 50 34
          39 55 29 13 16 32
          31 15 18 34 45 29
          32 48 47 31 34 50
          28 12 13 29 30 14
          15 31 44 28 29 45
          46 30 31 47
        </DataArray>
        <DataArray type="Int64" Name="offsets" format="ascii" RangeMin="8" RangeMax="280">
          8 16 24 32 40 48
          56 64 72 80 88 96
          104 112 120 128 136 144
          152 160 168 176 184 192
          200 208 216 224 232 240
          248 256 264 272 280
        </DataArray>
        <DataArray type="UInt8" Name="types" format="ascii" RangeMin="12" RangeMax="12">
          12 12 12 12 12 12
          12 12 12 12 12 12
          12 12 12 12 12 12
          12 12 12 12 12 12
          12 12 12 12 12 12
          12 12 12 12 12
        </DataArray>
      </Cells>
    </Piece>
  </UnstructuredGrid>
</VTKFile>
