<?xml version="1.0"?>
<VTKFile type="UnstructuredGrid" version="0.1" byte_order="LittleEndian" header_type="UInt32" compressor="vtkZLibDataCompressor">
  <UnstructuredGrid>
    <Piece NumberOfPoints="25" NumberOfCells="32">
      <PointData>
        <DataArray type="Float64" Name="Velocity" NumberOfComponents="3" format="ascii" RangeMin="0" RangeMax="5.758479930427195">
          1 0 0 1 0 0
          0 0 0 0.6553016516890974 -5.280739800390052 0
          1 0 0 0 0 0
          0.33329862410497924 -5.104631636064109 0 0.26322908363526953 -4.797658039667317 0
          0.21427611459236492 -4.982319948178148 0 1 0 0
          0 0 0 -0.7507713317273883 -3.9193026763714673 0
          -0.5396648744297944 -4.8909491303546275 0 -0.16570487162733466 -3.711734471645267 0
          -0.3769860239860302 -5.746126751721719 0 0 0 0
          1 0 0 0 0 0
          0 0 0 -0.009465553228963001 -4.180923905419818 0
          0 0 0 0 0 0
          0 0 0 0 0 0
          0 0 0
          <InformationKey name="L2_NORM_RANGE" location="vtkDataArray" length="2">
            <Value index="0">
              0
            </Value>
            <Value index="1">
              5.7584799304
            </Value>
          </InformationKey>
        </DataArray>
        <DataArray type="Float64" Name="Pressure" format="ascii" RangeMin="16.428171478771908" RangeMax="93.70216034848974">
          29.199999999993427 29.199999999993427 23.15072613080368 16.428171478771908 29.19999999999343 27.824039360209113
          24.70994230629287 17.315008405854815 25.084173654428756 29.199999999993427 36.92905945290112 39.13102742009914
          19.702313606117883 40.811202549345865 23.737127544322316 76.36826575728665 29.19999999999343 90.36499925471597
          26.480910099898722 40.14616556906847 93.70216034848974 26.544264552047252 85.37118912374866 37.433749670544664
          70.67814571305138
        </DataArray>
        <DataArray type="Float64" Name="Temperature" format="ascii" RangeMin="87.13140717156183" RangeMax="141.4113504083303">
          100 100 96.9142900733096 87.13140717156183 100 100.90390263749237
          96.0364903644239 91.2200260056414 99.26285264097628 100 111.36715709959348 112.61339305878599
          92.75068251620677 116.00145955475338 95.20740067466437 133.73561879024302 100 139.52287460172025
          100.30796915299149 113.0808282224967 141.4113504083303 101.49659098168105 138.98213521488822 108.8514877837046
          129.60372084309185
        </DataArray>
        <DataArray type="Float64" Name="Density" format="ascii" RangeMin="0.6457012810305384" RangeMax="2.269250724825357">
          0.9999999999997746 0.9999999999997746 0.8180765561731197 0.6457012810305384 0.9999999999997746 0.9443421268892308
          0.8811555875160566 0.6500543421132795 0.8654265116346951 0.9999999999997746 1.1356075254297675 1.190003819590946
          0.7274736411938577 1.2048502909250958 0.8538362785874041 1.9556133143051435 0.9999999999997746 2.2180533221756997
          0.9040961456313144 1.2158282756534378 2.269250724825357 0.8956459986484688 2.1036306974863326 1.1777310118082063
          1.8676041293275905
        </DataArray>
        <DataArray type="Float64" Name="Momentum" NumberOfComponents="3" format="ascii" RangeMin="0" RangeMax="5.0832985300751945">
          0.9999999999997746 0 0 0.9999999999997746 0 0
          0 0 0 0.42312911595707786 -3.409780453900806 0
          0.9999999999997746 0 0 0 0 0
          0.2936879449415163 -4.497974688329119 0 0.17111320878760658 -3.1187384406604237 0
          0.18544023037830656 -4.31183177259977 0 0.9999999999997746 0 0
          0 0 0 -0.8934207523949732 -4.663985155015063 0
          -0.39259197122586853 -3.558036572753013 0 -0.1996495627878998 -4.472084357998507 0
          -0.3218843437996939 -4.9062514819816005 0 0 0 0
          0.9999999999997746 0 0 0 0 0
          0 0 0 -0.011508487260475916 -5.083285502564814 0
          0 0 0 0 0 0
          0 0 0 0 0 0
          0 0 0
          <InformationKey name="L2_NORM_RANGE" location="vtkDataArray" length="2">
            <Value index="0">
              0
            </Value>
            <Value index="1">
              5.0832985301
            </Value>
          </InformationKey>
        </DataArray>
        <DataArray type="Float64" Name="Energy" format="ascii" RangeMin="49.53701864322095" RangeMax="230.40462715827266">
          72.29999999998371 72.29999999998371 56.925415623003566 49.53701864322095 72.29999999998373 68.41664472818542
          72.28857352476446 50.07978659002571 72.44090811745339 72.29999999998371 90.80501605199657 105.6946062300611
          57.25312188356036 108.66696995428774 72.52396486369396 187.78224251278016 72.29999999998373 222.1988680304317
          65.1140186702989 109.34204090699751 230.40462715827266 65.26980119304768 209.9195677768888 92.04600090222966
          173.79078295195507
        </DataArray>
      </PointData>
      <CellData>
        <DataArray type="UInt8" Name="vtkGhostType" format="ascii" RangeMin="0" RangeMax="0">
          0 0 0 0 0 0
          0 0 0 0 0 0
          0 0 0 0 0 0
          0 0 0 0 0 0
          0 0 0 0 0 0
          0 0
        </DataArray>
      </CellData>
      <Points>
        <DataArray type="Float32" Name="Points" NumberOfComponents="3" format="ascii" RangeMin="0" RangeMax="1.4142135623730951">
          0 1 0 0.25 1 0
          0 0.75 0 0.25 0.75 0
          0.5 1 0 0 0.5 0
          0.25 0.5 0 0.5 0.75 0
          0.5 0.5 0 0.75 1 0
          0 0.25 0 0.25 0.25 0
          0.75 0.75 0 0.5 0.25 0
          0.75 0.5 0 0 0 0
          1 1 0 0.25 0 0
          1 0.75 0 0.75 0.25 0
          0.5 0 0 1 0.5 0
          0.75 0 0 1 0.25 0
          1 0 0
          <InformationKey name="L2_NORM_RANGE" location="vtkDataArray" length="2">
            <Value index="0">
              0
            </Value>
            <Value index="1">
              1.4142135624
            </Value>
          </InformationKey>
        </DataArray>
      </Points>
      <Cells>
        <DataArray type="Int64" Name="connectivity" format="ascii" RangeMin="0" RangeMax="24">
          17 11 15 11 10 15
          20 13 17 13 11 17
          22 19 20 19 13 20
          24 23 22 23 19 22
          11 6 10 6 5 10
          13 8 11 8 6 11
          19 14 13 14 8 13
          23 21 19 21 14 19
          6 3 5 3 2 5
          8 7 6 7 3 6
          14 12 8 12 7 8
          21 18 14 18 12 14
          3 1 2 1 0 2
          7 4 3 4 1 3
          12 9 7 9 4 7
          18 16 12 16 9 12
        </DataArray>
        <DataArray type="Int64" Name="offsets" format="ascii" RangeMin="3" RangeMax="96">
          3 6 9 12 15 18
          21 24 27 30 33 36
          39 42 45 48 51 54
          57 60 63 66 69 72
          75 78 81 84 87 90
          93 96
        </DataArray>
        <DataArray type="UInt8" Name="types" format="ascii" RangeMin="5" RangeMax="5">
          5 5 5 5 5 5
          5 5 5 5 5 5
          5 5 5 5 5 5
          5 5 5 5 5 5
          5 5 5 5 5 5
          5 5
        </DataArray>
      </Cells>
    </Piece>
  </UnstructuredGrid>
</VTKFile>
