<?xml version="1.0"?>
<VTKFile type="UnstructuredGrid" version="0.1" byte_order="LittleEndian" header_type="UInt32" compressor="vtkZLibDataCompressor">
  <UnstructuredGrid>
    <Piece NumberOfPoints="25" NumberOfCells="32">
      <PointData>
        <DataArray type="Float64" Name="Velocity" NumberOfComponents="3" format="ascii" RangeMin="0" RangeMax="4.4626363366970025">
          1 0 0 1 0 0
          0 0 0 0.3564873328102282 -4.12701113176972 0
          1 0 0 0 0 0
          0.11092906777193962 -4.142244331635717 0 0.20171017388633136 -3.5863572743769128 0
          0.12416521727318544 -3.7514950386897272 0 1 0 0
          0 0 0 -0.526459240826261 -3.6187432744704933 0
          -0.3180313124998744 -3.870990293145033 0 -0.06710789299617112 -3.341979619396848 0
          -0.16958376387978838 -4.4594130130137986 0 0 0 0
          1 0 0 0 0 0
          0 0 0 0.0018561802115742655 -3.877788286682868 0
          0 0 0 0 0 0
          0 0 0 0 0 0
          0 0 0
          <InformationKey name="L2_NORM_RANGE" location="vtkDataArray" length="2">
            <Value index="0">
              0
            </Value>
            <Value index="1">
              4.4626363367
            </Value>
          </InformationKey>
        </DataArray>
        <DataArray type="Float64" Name="Pressure" format="ascii" RangeMin="20.832026794081905" RangeMax="71.31272926937848">
          29.199999999845268 29.19999999984526 25.572485745742814 20.832026794081905 29.199999999845268 29.24421318072012
          27.56822310612839 21.740297312997615 28.036290090746785 29.199999999845275 33.239110769276756 34.101082701127616
          23.23345698668707 34.77252399517983 26.89813644031888 59.03304565766945 29.199999999845275 69.490741193339
          28.119087534451182 34.47697648541114 71.31272926937848 28.303121561348846 66.44538730487855 32.757051818187435
          57.23328288638905
        </DataArray>
        <DataArray type="Float64" Name="Temperature" format="ascii" RangeMin="92.95758260199632" RangeMax="130.6156330925389">
          100 100 98.29744625591475 92.95758260199632 100 101.52644397265934
          99.74444376441384 95.87510204214941 102.65757491735673 100 106.80638845289215 107.363604385057
          96.30350355433583 109.40205839488908 99.74674399966128 123.63573518003444 100 129.2061732417589
          100.71762595538385 106.86530844996618 130.6156330925389 102.13524982848199 128.69192457733055 104.23776135724796
          121.69215461942032
        </DataArray>
        <DataArray type="Float64" Name="Density" format="ascii" RangeMin="0.7674743201900669" RangeMax="1.8697737001131898">
          0.9999999999947008 0.9999999999947007 0.8909387711921517 0.7674743201900669 0.9999999999947008 0.9864564450758911
          0.9465361618456052 0.7765631681621176 0.9352908654709023 0.9999999999947008 1.0657842922744918 1.0877478496300974
          0.82620704937447 1.0884985898073893 0.9235078953338386 1.6351903783050195 0.9999999999947008 1.8418778640154978
          0.956121076797974 1.1048659194586608 1.8697737001131898 0.9490210153746548 1.768197165416144 1.076209646563565
          1.6106575979324336
        </DataArray>
        <DataArray type="Float64" Name="Momentum" NumberOfComponents="3" format="ascii" RangeMin="0" RangeMax="4.284436611667136">
          0.9999999999947008 0 0 0.9999999999947008 0 0
          0 0 0 0.2735948734049 -3.1673750627718045 0
          0.9999999999947007 0 0 0 0 0
          0.10499837404596274 -3.9207840510931855 0 0.15664069168370112 -2.785032967151392 0
          0.11613059352482025 -3.5087390415459114 0 0.9999999999947008 0 0
          0 0 0 -0.572654907126659 -3.9362802151686562 0
          -0.2627597123092112 -3.1982394682565722 0 -0.07304684689127744 -3.637740102878505 0
          -0.156611944863414 -4.118303126072705 0 0 0 0
          0.9999999999947008 0 0 0 0 0
          0 0 0 0.0020508302561419722 -4.2844361208318915 0
          0 0 0 0 0 0
          0 0 0 0 0 0
          0 0 0
          <InformationKey name="L2_NORM_RANGE" location="vtkDataArray" length="2">
            <Value index="0">
              0
            </Value>
            <Value index="1">
              4.2844366117
            </Value>
          </InformationKey>
        </DataArray>
        <DataArray type="Float64" Name="Energy" format="ascii" RangeMin="57.808618919656865" RangeMax="175.3511630664854">
          72.29999999961687 72.29999999961686 62.88029029261416 57.808618919656865 72.29999999961687 71.90871597177069
          75.91386353120612 58.467166037757465 75.52726716516452 72.29999999961689 81.73178606965996 91.12422590660553
          63.3608027410012 91.58337980476495 75.33582493089807 145.15659856920087 72.29999999961689 170.87106909868973
          69.14213989635597 93.08264917173891 175.3511630664854 69.59466192139887 163.38283590720135 80.54644933376224
          140.73115449461415
        </DataArray>
      </PointData>
      <CellData>
        <DataArray type="UInt8" Name="vtkGhostType" format="ascii" RangeMin="0" RangeMax="0">
          0 0 0 0 0 0
          0 0 0 0 0 0
          0 0 0 0 0 0
          0 0 0 0 0 0
          0 0 0 0 0 0
          0 0
        </DataArray>
      </CellData>
      <Points>
        <DataArray type="Float32" Name="Points" NumberOfComponents="3" format="ascii" RangeMin="0" RangeMax="1.4142135623730951">
          0 1 0 0.25 1 0
          0 0.75 0 0.25 0.75 0
          0.5 1 0 0 0.5 0
          0.25 0.5 0 0.5 0.75 0
          0.5 0.5 0 0.75 1 0
          0 0.25 0 0.25 0.25 0
          0.75 0.75 0 0.5 0.25 0
          0.75 0.5 0 0 0 0
          1 1 0 0.25 0 0
          1 0.75 0 0.75 0.25 0
          0.5 0 0 1 0.5 0
          0.75 0 0 1 0.25 0
          1 0 0
          <InformationKey name="L2_NORM_RANGE" location="vtkDataArray" length="2">
            <Value index="0">
              0
            </Value>
            <Value index="1">
              1.4142135624
            </Value>
          </InformationKey>
        </DataArray>
      </Points>
      <Cells>
        <DataArray type="Int64" Name="connectivity" format="ascii" RangeMin="0" RangeMax="24">
          17 11 15 11 10 15
          20 13 17 13 11 17
          22 19 20 19 13 20
          24 23 22 23 19 22
          11 6 10 6 5 10
          13 8 11 8 6 11
          19 14 13 14 8 13
          23 21 19 21 14 19
          6 3 5 3 2 5
          8 7 6 7 3 6
          14 12 8 12 7 8
          21 18 14 18 12 14
          3 1 2 1 0 2
          7 4 3 4 1 3
          12 9 7 9 4 7
          18 16 12 16 9 12
        </DataArray>
        <DataArray type="Int64" Name="offsets" format="ascii" RangeMin="3" RangeMax="96">
          3 6 9 12 15 18
          21 24 27 30 33 36
          39 42 45 48 51 54
          57 60 63 66 69 72
          75 78 81 84 87 90
          93 96
        </DataArray>
        <DataArray type="UInt8" Name="types" format="ascii" RangeMin="5" RangeMax="5">
          5 5 5 5 5 5
          5 5 5 5 5 5
          5 5 5 5 5 5
          5 5 5 5 5 5
          5 5 5 5 5 5
          5 5
        </DataArray>
      </Cells>
    </Piece>
  </UnstructuredGrid>
</VTKFile>
