<?xml version="1.0"?>
<VTKFile type="UnstructuredGrid" version="0.1" byte_order="LittleEndian" header_type="UInt32" compressor="vtkZLibDataCompressor">
  <UnstructuredGrid>
    <Piece NumberOfPoints="20" NumberOfCells="26">
      <PointData>
        <DataArray type="Float64" Name="Velocity" NumberOfComponents="3" format="ascii" RangeMin="0" RangeMax="0.018573581657384493">
          0 0 0 0 0 0
          0 0 0 0 0 0
          0 0 0 0 0 0
          0 0 0 0 0 0
          0 0 0 0.003685433193933935 -0.0008941205817183107 -0.018182300903404038
          0 0 0 0 0 0
          0 0 0 0 0 0
          0 0 0 0 0 0
          0 0 0 0 0 0
          0 0 0 0 0 0
          <InformationKey name="L2_NORM_RANGE" location="vtkDataArray" length="2">
            <Value index="0">
              0
            </Value>
            <Value index="1">
              0.018573581657
            </Value>
          </InformationKey>
        </DataArray>
        <DataArray type="Float64" Name="Pressure" format="ascii" RangeMin="0.21901406542238883" RangeMax="3.094992642691309">
          0.3503616458942741 1.64194368487672 0.33410628336915865 2.937175905206721 1.64334987167094 1.6428165038379454
          2.9529420030717977 3.0057764281990096 3.072363613656957 1.6424923601594676 3.0021931109721702 3.094992642691309
          1.636792618637434 1.6410544978163002 0.28211131941829815 0.28096307302809176 0.21901406542238883 2.953004743755838
          1.6431927203811085 0.33391110055027545
        </DataArray>
        <DataArray type="Float64" Name="Temperature" format="ascii" RangeMin="239.99999999999997" RangeMax="959.9999999999999">
          685.141854687085 959.9999999999999 588.8282914718378 614.7745211654707 620.5253168626296 599.777426068815
          593.9254783754247 587.3850509153488 612.3391973097442 600.8060986854249 626.5256878817008 494.4031393451987
          239.99999999999997 583.2145274218607 574.9615012248242 609.3195849419943 606.8618898077045 595.4617548423054
          620.1474826720258 588.6921221469973
        </DataArray>
        <DataArray type="Float64" Name="Density" format="ascii" RangeMin="0.3668925435555134" RangeMax="1.4675701742220535">
          0.5140787114431299 0.3668925435555134 0.5981656230085175 0.572920362974007 0.5676107521190239 0.5872459124076495
          0.5930320463380658 0.599635352081939 0.5751989148509926 0.5862404569193786 0.5621746220879575 0.7124081822776824
          1.4675701742220535 0.6039232996652041 0.6125920449681852 0.5780494350051507 0.5803904442325407 0.5915020384584891
          0.5679565775155583 0.5983039836319461
        </DataArray>
        <DataArray type="Float64" Name="stream" format="ascii" RangeMin="-0.001438969180425967" RangeMax="0.00024665907214028163">
          0.00024665907214028163 0.00023543987355392274 -0.00043206681049341104 0.000033994936366453125 -0.001438969180425967 -0.0011453903547561672
          0.00021203616518036442 0.00012920583792882 0.00022094871672004011 0.00022644682931650874 0.00005220529327443476 0.0001649536754476445
          0.00011025344761022142 -0.00024468267385944304 0.00016520689669857023 -0.0013119596980745887 -0.00009801662235431698 0.0001152192767465435
          0.00011298994361771403 0.0001943757279759342
        </DataArray>
      </PointData>
      <CellData>
        <DataArray type="UInt8" Name="vtkGhostType" format="ascii" RangeMin="1" RangeMax="1">
          1 1 1 1 1 1
          1 1 1 1 1 1
          1 1 1 1 1 1
          1 1 1 1 1 1
          1 1
        </DataArray>
      </CellData>
      <Points>
        <DataArray type="Float32" Name="Points" NumberOfComponents="3" format="ascii" RangeMin="0" RangeMax="1.224744871391589">
          0.5 0 1 0.5 0 0.5
          0.5 0.5 1 0.5 0 0
          0.5 0.5 0.5 0 0.5 0.5
          0.5 0.5 0 0 0.5 0
          -0.5 0.5 0 0 0 0.5
          0 0 0 -0.5 0 0
          -0.5 0 0.5 -0.5 0.5 0.5
          0 0 1 0 0.5 1
          -0.5 0.5 1 0.5 -0.5 0
          0.5 -0.5 0.5 0.5 -0.5 1
          <InformationKey name="L2_NORM_RANGE" location="vtkDataArray" length="2">
            <Value index="0">
              0
            </Value>
            <Value index="1">
              1.2247448714
            </Value>
          </InformationKey>
        </DataArray>
      </Points>
      <Cells>
        <DataArray type="Int64" Name="connectivity" format="ascii" RangeMin="0" RangeMax="19">
          7 5 9 6 6 7
          10 9 4 1 9 6
          6 3 1 9 6 4
          5 9 3 10 9 6
          11 12 9 8 8 11
          10 9 13 5 9 8
          8 7 5 9 8 13
          12 9 7 10 9 8
          1 0 2 9 9 1
          4 2 14 15 2 9
          9 5 15 2 9 14
          0 2 5 4 2 9
          5 15 16 9 9 5
          13 16 3 1 9 17
          17 3 10 9 17 18
          1 9 14 0 19 9
          9 1 0 19 1 18
          19 9
        </DataArray>
        <DataArray type="Int64" Name="offsets" format="ascii" RangeMin="4" RangeMax="104">
          4 8 12 16 20 24
          28 32 36 40 44 48
          52 56 60 64 68 72
          76 80 84 88 92 96
          100 104
        </DataArray>
        <DataArray type="UInt8" Name="types" format="ascii" RangeMin="10" RangeMax="10">
          10 10 10 10 10 10
          10 10 10 10 10 10
          10 10 10 10 10 10
          10 10 10 10 10 10
          10 10
        </DataArray>
      </Cells>
    </Piece>
  </UnstructuredGrid>
</VTKFile>
