<?xml version="1.0"?>
<VTKFile type="UnstructuredGrid" version="0.1" byte_order="LittleEndian" header_type="UInt32" compressor="vtkZLibDataCompressor">
  <UnstructuredGrid>
    <Piece NumberOfPoints="18" NumberOfCells="24">
      <PointData>
        <DataArray type="Float64" Name="Velocity" NumberOfComponents="3" format="ascii" RangeMin="0" RangeMax="0.006272323873972658">
          0 0 0 0 0 0
          0 0 0 0 0 0
          0 0 0 0 0 0
          0 0 0 0 0 0
          0 0 0 0 0 0
          -0.0016633325136895614 -0.00014416090887943434 -0.00604603914652077 0 0 0
          0 0 0 0 0 0
          0 0 0 0 0 0
          0 0 0 0 0 0
          <InformationKey name="L2_NORM_RANGE" location="vtkDataArray" length="2">
            <Value index="0">
              0
            </Value>
            <Value index="1">
              0.006272323874
            </Value>
          </InformationKey>
        </DataArray>
        <DataArray type="Float64" Name="Pressure" format="ascii" RangeMin="-0.5960163233741061" RangeMax="2.4122333104408678">
          -0.4606738887608139 -0.4566249064245273 -0.5608305500421171 0.9062657965021147 -0.4606818183660221 -0.5960163233741061
          0.9045935687160513 -0.5609047673370375 0.9067020446270548 2.4122333104408678 0.9072301603500232 2.375853738981178
          0.9076394562344448 -0.3767282958145893 -0.34913022440575386 2.375816268680571 0.9076153294733369 -0.37680538391624235
        </DataArray>
        <DataArray type="Float64" Name="Temperature" format="ascii" RangeMin="240" RangeMax="641.7885922440832">
          603.9484578882218 586.7008609379759 603.3286695454759 570.6849199904908 604.145577636293 579.3099153357517
          240 603.1597372241611 569.4208437148362 548.5854205260695 600.5408878131532 607.3425341844458
          600.1832882567878 593.3841369340403 641.7885922440832 608.2187541467466 600.0889055181427 593.4776087384857
        </DataArray>
        <DataArray type="Float64" Name="Density" format="ascii" RangeMin="0.5494496700090367" RangeMax="1.4692938759336487">
          0.5838752059357691 0.6010397354118672 0.5844750100964599 0.6179075666305525 0.5836846999753526 0.6087079141735404
          1.4692938759336487 0.5846387092197808 0.6192792801955661 0.642799675364902 0.5871882121268485 0.5806122745833971
          0.5875380689926892 0.5942702345332053 0.5494496700090367 0.5797758254244747 0.5876304777199626 0.5941766378914244
        </DataArray>
        <DataArray type="Float64" Name="stream" format="ascii" RangeMin="-0.0010166087287656294" RangeMax="0.0005702265562810026">
          0.0004137767373154424 0.00009169467390566972 -0.000009460397128312437 0.0005702265562810026 -0.0007894879219381808 0.00007377690004917365
          0.00008939173331332223 -0.00009033979670484198 -0.00020954166138566674 0.000008171548643393964 0.000003435258870957565 -0.000006658851415944644
          -0.0010166087287656294 0.000026792649740115206 0.0001963859628241271 0.000038622483760653495 0.0005421601057326082 0.0001238604531397678
        </DataArray>
      </PointData>
      <CellData>
        <DataArray type="UInt8" Name="vtkGhostType" format="ascii" RangeMin="1" RangeMax="1">
          1 1 1 1 1 1
          1 1 1 1 1 1
          1 1 1 1 1 1
          1 1 1 1 1 1
        </DataArray>
      </CellData>
      <Points>
        <DataArray type="Float32" Name="Points" NumberOfComponents="3" format="ascii" RangeMin="0.5" RangeMax="1.224744871391589">
          0 -0.5 1 0 0 1
          -0.5 -0.5 1 -0.5 -0.5 0.5
          0 0.5 1 -0.5 0 1
          -0.5 0 0.5 -0.5 0.5 1
          -0.5 0.5 0.5 -0.5 0 0
          0 0 0.5 -0.5 0.5 0
          0 0.5 0.5 0.5 0.5 1
          0.5 0 1 -0.5 -0.5 0
          0 -0.5 0.5 0.5 -0.5 1
          <InformationKey name="L2_NORM_RANGE" location="vtkDataArray" length="2">
            <Value index="0">
              0.5
            </Value>
            <Value index="1">
              1.2247448714
            </Value>
          </InformationKey>
        </DataArray>
      </Points>
      <Cells>
        <DataArray type="Int64" Name="connectivity" format="ascii" RangeMin="0" RangeMax="17">
          9 6 10 11 8 12
          10 11 11 8 6 10
          1 4 13 10 10 12
          4 13 10 1 14 13
          12 4 7 10 10 12
          8 7 1 5 7 10
          10 6 5 7 10 1
          4 7 6 8 7 10
          3 6 10 15 15 9
          6 10 15 3 16 10
          16 0 17 10 1 14
          17 10 10 1 0 17
          6 5 2 10 10 6
          3 2 1 0 2 10
          10 16 0 2 10 1
          5 2 16 3 2 10
        </DataArray>
        <DataArray type="Int64" Name="offsets" format="ascii" RangeMin="4" RangeMax="96">
          4 8 12 16 20 24
          28 32 36 40 44 48
          52 56 60 64 68 72
          76 80 84 88 92 96
        </DataArray>
        <DataArray type="UInt8" Name="types" format="ascii" RangeMin="10" RangeMax="10">
          10 10 10 10 10 10
          10 10 10 10 10 10
          10 10 10 10 10 10
          10 10 10 10 10 10
        </DataArray>
      </Cells>
    </Piece>
  </UnstructuredGrid>
</VTKFile>
