<?xml version="1.0"?>
<VTKFile type="UnstructuredGrid" version="0.1" byte_order="LittleEndian" header_type="UInt32" compressor="vtkZLibDataCompressor">
  <UnstructuredGrid>
    <Piece NumberOfPoints="27" NumberOfCells="48">
      <PointData>
        <DataArray type="Float64" Name="Velocity" NumberOfComponents="3" format="ascii" RangeMin="0" RangeMax="0.030408142759049933">
          0 0 0 0 0 0
          0 0 0 0.006075247720387733 -0.0012095948577122706 -0.02977051211301009
          0 0 0 0 0 0
          0 0 0 0 0 0
          0 0 0 0 0 0
          0 0 0 0 0 0
          0 0 0 0 0 0
          0 0 0 0 0 0
          0 0 0 0 0 0
          0 0 0 0 0 0
          0 0 0 0 0 0
          0 0 0 0 0 0
          0 0 0 0 0 0
          0 0 0
          <InformationKey name="L2_NORM_RANGE" location="vtkDataArray" length="2">
            <Value index="0">
              0
            </Value>
            <Value index="1">
              0.030408142759
            </Value>
          </InformationKey>
        </DataArray>
        <DataArray type="Float64" Name="Pressure" format="ascii" RangeMin="1.4744179125025911" RangeMax="4.35150492309608">
          1.598199125250578 2.9057038580980747 2.904052209875141 2.9022153575421745 4.217465853922093 4.266108953827526
          4.263566942491029 4.326509135816936 4.35150492309608 4.265671790885804 2.903963811408109 4.2177923813735765
          2.9056020836053036 2.9012462041859055 4.204063651119812 2.8962265008248576 4.326767795857981 2.9035855596116718
          1.6181459120624924 1.5984883991742478 1.5497750496645928 1.5473838528708288 1.491110611195816 1.4744179125025911
          2.902786264742279 1.5477109829196052 1.4907791736795084
        </DataArray>
        <DataArray type="Float64" Name="Temperature" format="ascii" RangeMin="240" RangeMax="960.0000000000002">
          588.857176087328 612.6681735710284 598.5945860086337 600.7984877504323 592.0400703390969 582.2806492907779
          640.950843637421 614.7514494712414 439.45182691534245 582.1573791080125 599.0860674942894 589.5383839385994
          612.8536942554309 960.0000000000002 617.5295281209083 240 613.9796909491179 590.2448386026244
          710.4867257963726 589.3950040088583 562.3604017885681 611.7379720265227 611.4775691778472 558.4224601299
          590.4428854216601 610.3882183755123 609.7493833791339
        </DataArray>
        <DataArray type="Float64" Name="Density" format="ascii" RangeMin="0.3660758372990271" RangeMax="1.4643033491961086">
          0.5968048248000773 0.5736103472760584 0.5870965291390011 0.5849428901243322 0.5935963145294868 0.6035453938493642
          0.5482991516364519 0.5716664907571014 0.7997072313338394 0.6036731928839157 0.5866148836960159 0.5961152206226286
          0.5734367061848739 0.3660758372990271 0.5690947360467884 1.4643033491961086 0.5723850625479243 0.595401739791687
          0.4946366920693007 0.5962602353544623 0.6249245193817808 0.5744825724041032 0.5747272206232842 0.6293314271874307
          0.5952020296698014 0.5757529277717214 0.576356144649924
        </DataArray>
        <DataArray type="Float64" Name="stream" format="ascii" RangeMin="-0.0019458873251432213" RangeMax="0.002611277690455084">
          0.0004615912377704452 0.0005961888130360329 0.001908391932472955 0.00016404446026055443 0.00001520746471062385 0.0004302148247914109
          0.00014536189251789248 0.0000059861494489668025 0.000012404391550764214 0.00005769262410955623 -0.0012568446425514392 0.000003559690621905619
          -0.0016102892556445758 0.0003345413212421921 0.000013446466883474005 0.00036544128947064807 0.000004438552773311346 -0.0002626718654756107
          0.0005419830861946491 -0.00020051910222453704 0.000512329759551405 -0.0019458873251432213 -0.0001278907696943677 0.00031775664086926975
          0.0021059733061965266 0.002611277690455084 0.00005522949226006828
        </DataArray>
      </PointData>
      <CellData>
        <DataArray type="UInt8" Name="vtkGhostType" format="ascii" RangeMin="0" RangeMax="0">
          0 0 0 0 0 0
          0 0 0 0 0 0
          0 0 0 0 0 0
          0 0 0 0 0 0
          0 0 0 0 0 0
          0 0 0 0 0 0
          0 0 0 0 0 0
          0 0 0 0 0 0
        </DataArray>
      </CellData>
      <Points>
        <DataArray type="Float32" Name="Points" NumberOfComponents="3" format="ascii" RangeMin="0" RangeMax="1.224744871391589">
          0.5 -0.5 1 0.5 -0.5 0.5
          0 -0.5 0.5 0 0 0.5
          0.5 -0.5 0 0 -0.5 0
          0 0 0 -0.5 -0.5 0
          -0.5 0 0 0 0.5 0
          0 0.5 0.5 0.5 0.5 0
          0.5 0.5 0.5 0.5 0 0.5
          0.5 0 0 -0.5 0 0.5
          -0.5 0.5 0 -0.5 0.5 0.5
          0.5 0 1 0.5 0.5 1
          0 0 1 0 0.5 1
          -0.5 0.5 1 -0.5 0 1
          -0.5 -0.5 0.5 0 -0.5 1
          -0.5 -0.5 1
          <InformationKey name="L2_NORM_RANGE" location="vtkDataArray" length="2">
            <Value index="0">
              0
            </Value>
            <Value index="1">
              1.2247448714
            </Value>
          </InformationKey>
        </DataArray>
      </Points>
      <Cells>
        <DataArray type="Int64" Name="connectivity" format="ascii" RangeMin="0" RangeMax="26">
          9 10 3 11 11 9
          6 3 12 13 3 11
          11 14 13 3 11 12
          10 3 14 6 3 11
          8 15 3 16 16 8
          6 3 17 10 3 16
          16 9 10 3 16 17
          15 3 9 6 3 16
          13 18 19 3 3 13
          12 19 20 21 19 3
          3 10 21 19 3 20
          18 19 10 12 19 3
          10 21 22 3 3 10
          17 22 20 23 22 3
          3 15 23 22 3 20
          21 22 15 17 22 3
          14 13 3 4 4 14
          6 3 1 2 3 4
          4 5 2 3 4 1
          13 3 5 6 3 4
          5 2 3 7 7 5
          6 3 24 15 3 7
          7 8 15 3 7 24
          2 3 8 6 3 7
          2 25 0 3 3 2
          1 0 20 18 0 3
          3 13 18 0 3 20
          25 0 13 1 0 3
          15 23 26 3 3 15
          24 26 20 25 26 3
          3 2 25 26 3 20
          23 26 2 24 26 3
        </DataArray>
        <DataArray type="Int64" Name="offsets" format="ascii" RangeMin="4" RangeMax="192">
          4 8 12 16 20 24
          28 32 36 40 44 48
          52 56 60 64 68 72
          76 80 84 88 92 96
          100 104 108 112 116 120
          124 128 132 136 140 144
          148 152 156 160 164 168
          172 176 180 184 188 192
        </DataArray>
        <DataArray type="UInt8" Name="types" format="ascii" RangeMin="10" RangeMax="10">
          10 10 10 10 10 10
          10 10 10 10 10 10
          10 10 10 10 10 10
          10 10 10 10 10 10
          10 10 10 10 10 10
          10 10 10 10 10 10
          10 10 10 10 10 10
          10 10 10 10 10 10
        </DataArray>
      </Cells>
    </Piece>
  </UnstructuredGrid>
</VTKFile>
