<?xml version="1.0"?>
<VTKFile type="UnstructuredGrid" version="0.1" byte_order="LittleEndian" header_type="UInt32" compressor="vtkZLibDataCompressor">
  <UnstructuredGrid>
    <Piece NumberOfPoints="20" NumberOfCells="26">
      <PointData>
        <DataArray type="Float64" Name="Velocity" NumberOfComponents="3" format="ascii" RangeMin="0" RangeMax="0.030408142759049933">
          0 0 0 0 0 0
          0 0 0 0 0 0
          0 0 0 0 0 0
          0 0 0 0 0 0
          0 0 0 0.006075247720387733 -0.0012095948577122706 -0.02977051211301009
          0 0 0 0 0 0
          0 0 0 0 0 0
          0 0 0 0 0 0
          0 0 0 0 0 0
          0 0 0 0 0 0
          <InformationKey name="L2_NORM_RANGE" location="vtkDataArray" length="2">
            <Value index="0">
              0
            </Value>
            <Value index="1">
              0.030408142759
            </Value>
          </InformationKey>
        </DataArray>
        <DataArray type="Float64" Name="Pressure" format="ascii" RangeMin="1.491110611195816" RangeMax="4.35150492309608">
          1.6181459120624924 2.9012462041859055 1.5984883991742478 4.204063651119812 2.9056020836053036 2.903963811408109
          4.2177923813735765 4.265671790885804 4.326767795857981 2.9022153575421745 4.263566942491029 4.35150492309608
          2.8962265008248576 2.9035855596116718 1.5497750496645928 1.5473838528708288 1.491110611195816 4.217465853922093
          2.9057038580980747 1.598199125250578
        </DataArray>
        <DataArray type="Float64" Name="Temperature" format="ascii" RangeMin="240" RangeMax="960.0000000000002">
          710.4867257963726 960.0000000000002 589.3950040088583 617.5295281209083 612.8536942554309 599.0860674942894
          589.5383839385994 582.1573791080125 613.9796909491179 600.7984877504323 640.950843637421 439.45182691534245
          240 590.2448386026244 562.3604017885681 611.7379720265227 611.4775691778472 592.0400703390969
          612.6681735710284 588.857176087328
        </DataArray>
        <DataArray type="Float64" Name="Density" format="ascii" RangeMin="0.3660758372990271" RangeMax="1.4643033491961086">
          0.4946366920693007 0.3660758372990271 0.5962602353544623 0.5690947360467884 0.5734367061848739 0.5866148836960159
          0.5961152206226286 0.6036731928839157 0.5723850625479243 0.5849428901243322 0.5482991516364519 0.7997072313338394
          1.4643033491961086 0.595401739791687 0.6249245193817808 0.5744825724041032 0.5747272206232842 0.5935963145294868
          0.5736103472760584 0.5968048248000773
        </DataArray>
        <DataArray type="Float64" Name="stream" format="ascii" RangeMin="-0.0023541591838352953" RangeMax="0.0003974580050639487">
          0.0003974580050639487 0.00037251024176233503 -0.0007079533887231052 0.000055966627677901475 -0.0023541591838352953 -0.00187378718134913
          0.00034533993294511776 0.00020968395029611063 0.0003596963307899371 0.0003686093810336242 0.00008554088920136195 0.0002682489784117208
          0.00017877531153359324 -0.0004014705618456832 0.00026820805859732624 -0.0021459834245890885 -0.00016258785439811672 0.00018233675006080588
          0.00017665765999248296 0.00031340460114631706
        </DataArray>
      </PointData>
      <CellData>
        <DataArray type="UInt8" Name="vtkGhostType" format="ascii" RangeMin="1" RangeMax="1">
          1 1 1 1 1 1
          1 1 1 1 1 1
          1 1 1 1 1 1
          1 1 1 1 1 1
          1 1
        </DataArray>
      </CellData>
      <Points>
        <DataArray type="Float32" Name="Points" NumberOfComponents="3" format="ascii" RangeMin="0" RangeMax="1.224744871391589">
          0.5 0 1 0.5 0 0.5
          0.5 0.5 1 0.5 0 0
          0.5 0.5 0.5 0 0.5 0.5
          0.5 0.5 0 0 0.5 0
          -0.5 0.5 0 0 0 0.5
          0 0 0 -0.5 0 0
          -0.5 0 0.5 -0.5 0.5 0.5
          0 0 1 0 0.5 1
          -0.5 0.5 1 0.5 -0.5 0
          0.5 -0.5 0.5 0.5 -0.5 1
          <InformationKey name="L2_NORM_RANGE" location="vtkDataArray" length="2">
            <Value index="0">
              0
            </Value>
            <Value index="1">
              1.2247448714
            </Value>
          </InformationKey>
        </DataArray>
      </Points>
      <Cells>
        <DataArray type="Int64" Name="connectivity" format="ascii" RangeMin="0" RangeMax="19">
          7 5 9 6 6 7
          10 9 4 1 9 6
          6 3 1 9 6 4
          5 9 3 10 9 6
          11 12 9 8 8 11
          10 9 13 5 9 8
          8 7 5 9 8 13
          12 9 7 10 9 8
          1 0 2 9 9 1
          4 2 14 15 2 9
          9 5 15 2 9 14
          0 2 5 4 2 9
          5 15 16 9 9 5
          13 16 3 1 9 17
          17 3 10 9 17 18
          1 9 14 0 19 9
          9 1 0 19 1 18
          19 9
        </DataArray>
        <DataArray type="Int64" Name="offsets" format="ascii" RangeMin="4" RangeMax="104">
          4 8 12 16 20 24
          28 32 36 40 44 48
          52 56 60 64 68 72
          76 80 84 88 92 96
          100 104
        </DataArray>
        <DataArray type="UInt8" Name="types" format="ascii" RangeMin="10" RangeMax="10">
          10 10 10 10 10 10
          10 10 10 10 10 10
          10 10 10 10 10 10
          10 10 10 10 10 10
          10 10
        </DataArray>
      </Cells>
    </Piece>
  </UnstructuredGrid>
</VTKFile>
