<?xml version="1.0"?>
<VTKFile type="UnstructuredGrid" version="0.1" byte_order="LittleEndian" header_type="UInt32" compressor="vtkZLibDataCompressor">
  <UnstructuredGrid>
    <Piece NumberOfPoints="18" NumberOfCells="24">
      <PointData>
        <DataArray type="Float64" Name="Velocity" NumberOfComponents="3" format="ascii" RangeMin="0" RangeMax="0.030408142759049933">
          0 0 0 0 0 0
          0 0 0 0 0 0
          0 0 0 0 0 0
          0 0 0 0 0 0
          0 0 0 0 0 0
          0.006075247720387733 -0.0012095948577122706 -0.02977051211301009 0 0 0
          0 0 0 0 0 0
          0 0 0 0 0 0
          0 0 0 0 0 0
          <InformationKey name="L2_NORM_RANGE" location="vtkDataArray" length="2">
            <Value index="0">
              0
            </Value>
            <Value index="1">
              0.030408142759
            </Value>
          </InformationKey>
        </DataArray>
        <DataArray type="Float64" Name="Pressure" format="ascii" RangeMin="1.4744179125025911" RangeMax="4.35150492309608">
          1.5477109829196052 1.5497750496645928 1.4907791736795084 2.902786264742279 1.5473838528708288 1.4744179125025911
          2.8962265008248576 1.491110611195816 2.9035855596116718 4.35150492309608 2.9022153575421745 4.326767795857981
          2.903963811408109 1.5984883991742478 1.6181459120624924 4.326509135816936 2.904052209875141 1.598199125250578
        </DataArray>
        <DataArray type="Float64" Name="Temperature" format="ascii" RangeMin="240" RangeMax="710.4867257963726">
          610.3882183755123 562.3604017885681 609.7493833791339 590.4428854216601 611.7379720265227 558.4224601299
          240 611.4775691778472 590.2448386026244 439.45182691534245 600.7984877504323 613.9796909491179
          599.0860674942894 589.3950040088583 710.4867257963726 614.7514494712414 598.5945860086337 588.857176087328
        </DataArray>
        <DataArray type="Float64" Name="Density" format="ascii" RangeMin="0.4946366920693007" RangeMax="1.4643033491961086">
          0.5757529277717214 0.6249245193817808 0.576356144649924 0.5952020296698014 0.5744825724041032 0.6293314271874307
          1.4643033491961086 0.5747272206232842 0.595401739791687 0.7997072313338394 0.5849428901243322 0.5723850625479243
          0.5866148836960159 0.5962602353544623 0.4946366920693007 0.5716664907571014 0.5870965291390011 0.5968048248000773
        </DataArray>
        <DataArray type="Float64" Name="stream" format="ascii" RangeMin="-0.0031402930975690233" RangeMax="0.002221936638332339">
          0.0017269763259002567 0.00047355214051686287 -0.00010381222776720392 0.002221936638332339 -0.003015321489835602 0.00028037207557740515
          0.00017940644681497414 -0.000406343140697881 -0.0007162169414378515 -0.00005188197460913549 0.00013799031340828354 -0.0000957755148245173
          -0.0031402930975690233 0.00003270509396670527 0.0009191751362004669 0.000004403883926560871 0.0016605361851891548 0.0008013697635888216
        </DataArray>
      </PointData>
      <CellData>
        <DataArray type="UInt8" Name="vtkGhostType" format="ascii" RangeMin="1" RangeMax="1">
          1 1 1 1 1 1
          1 1 1 1 1 1
          1 1 1 1 1 1
          1 1 1 1 1 1
        </DataArray>
      </CellData>
      <Points>
        <DataArray type="Float32" Name="Points" NumberOfComponents="3" format="ascii" RangeMin="0.5" RangeMax="1.224744871391589">
          0 -0.5 1 0 0 1
          -0.5 -0.5 1 -0.5 -0.5 0.5
          0 0.5 1 -0.5 0 1
          -0.5 0 0.5 -0.5 0.5 1
          -0.5 0.5 0.5 -0.5 0 0
          0 0 0.5 -0.5 0.5 0
          0 0.5 0.5 0.5 0.5 1
          0.5 0 1 -0.5 -0.5 0
          0 -0.5 0.5 0.5 -0.5 1
          <InformationKey name="L2_NORM_RANGE" location="vtkDataArray" length="2">
            <Value index="0">
              0.5
            </Value>
            <Value index="1">
              1.2247448714
            </Value>
          </InformationKey>
        </DataArray>
      </Points>
      <Cells>
        <DataArray type="Int64" Name="connectivity" format="ascii" RangeMin="0" RangeMax="17">
          9 6 10 11 8 12
          10 11 11 8 6 10
          1 4 13 10 10 12
          4 13 10 1 14 13
          12 4 7 10 10 12
          8 7 1 5 7 10
          10 6 5 7 10 1
          4 7 6 8 7 10
          3 6 10 15 15 9
          6 10 15 3 16 10
          16 0 17 10 1 14
          17 10 10 1 0 17
          6 5 2 10 10 6
          3 2 1 0 2 10
          10 16 0 2 10 1
          5 2 16 3 2 10
        </DataArray>
        <DataArray type="Int64" Name="offsets" format="ascii" RangeMin="4" RangeMax="96">
          4 8 12 16 20 24
          28 32 36 40 44 48
          52 56 60 64 68 72
          76 80 84 88 92 96
        </DataArray>
        <DataArray type="UInt8" Name="types" format="ascii" RangeMin="10" RangeMax="10">
          10 10 10 10 10 10
          10 10 10 10 10 10
          10 10 10 10 10 10
          10 10 10 10 10 10
        </DataArray>
      </Cells>
    </Piece>
  </UnstructuredGrid>
</VTKFile>
