<?xml version="1.0"?>
<VTKFile type="UnstructuredGrid" version="0.1" byte_order="LittleEndian" header_type="UInt32" compressor="vtkZLibDataCompressor">
  <UnstructuredGrid>
    <Piece NumberOfPoints="20" NumberOfCells="26">
      <PointData>
        <DataArray type="Float64" Name="Velocity" NumberOfComponents="3" format="ascii" RangeMin="0" RangeMax="0.006272323873972658">
          0 0 0 0 0 0
          0 0 0 0 0 0
          0 0 0 0 0 0
          0 0 0 0 0 0
          0 0 0 -0.0016633325136895614 -0.00014416090887943434 -0.00604603914652077
          0 0 0 0 0 0
          0 0 0 0 0 0
          0 0 0 0 0 0
          0 0 0 0 0 0
          0 0 0 0 0 0
          <InformationKey name="L2_NORM_RANGE" location="vtkDataArray" length="2">
            <Value index="0">
              0
            </Value>
            <Value index="1">
              0.006272323874
            </Value>
          </InformationKey>
        </DataArray>
        <DataArray type="Float64" Name="Pressure" format="ascii" RangeMin="-0.5609047673370375" RangeMax="2.4122333104408678">
          -0.34913022440575386 0.907888955739375 -0.3767282958145893 2.1735906836512178 0.9091260202923183 0.9076394562344448
          2.1975872981123223 2.2772997535032613 2.375853738981178 0.9072301603500232 2.2731816998317305 2.4122333104408678
          0.9045935687160513 0.9067020446270548 -0.4566249064245273 -0.4606818183660221 -0.5609047673370375 2.1976665878689823
          0.9091198522931476 -0.37680538391624235
        </DataArray>
        <DataArray type="Float64" Name="Temperature" format="ascii" RangeMin="240" RangeMax="959.9999999999999">
          641.7885922440832 959.9999999999999 593.3841369340403 620.7673780125444 632.9587085021474 600.1832882567878
          597.4734881044604 593.984150079207 607.3425341844458 600.5408878131532 615.7686320318425 548.5854205260695
          240 569.4208437148362 586.7008609379759 604.145577636293 603.1597372241611 597.2896944449017
          632.116167427347 593.4776087384857
        </DataArray>
        <DataArray type="Float64" Name="Density" format="ascii" RangeMin="0.3673234689834122" RangeMax="1.4692938759336487">
          0.5494496700090367 0.3673234689834122 0.5942702345332053 0.5680558333349627 0.5571145881830921 0.5875380689926892
          0.5902028077309814 0.5936699323998004 0.5806122745833971 0.5871882121268485 0.5726672517573785 0.642799675364902
          1.4692938759336487 0.6192792801955661 0.6010397354118672 0.5836846999753526 0.5846387092197808 0.5903844206650796
          0.5578571604318374 0.5941766378914244
        </DataArray>
        <DataArray type="Float64" Name="stream" format="ascii" RangeMin="-0.0007348129052039782" RangeMax="0.00007651120508640405">
          0.00007408612006667766 0.00007651120508640405 -0.00023650554642966072 0.00005482949892071296 -0.0006319541507834933 -0.0006284283172553481
          0.00006815128118721752 0.00002158716709497573 0.00006781819639784995 0.00007087020682542121 0.00002935136599291833 0.00004416579829724151
          0.00001518907136715976 -0.0001674478209860285 0.00005433442438145425 -0.0007348129052039782 -0.00008651894819987218 0.00005523892716870448
          0.00006985519587323918 0.0000714299769871907
        </DataArray>
      </PointData>
      <CellData>
        <DataArray type="UInt8" Name="vtkGhostType" format="ascii" RangeMin="1" RangeMax="1">
          1 1 1 1 1 1
          1 1 1 1 1 1
          1 1 1 1 1 1
          1 1 1 1 1 1
          1 1
        </DataArray>
      </CellData>
      <Points>
        <DataArray type="Float32" Name="Points" NumberOfComponents="3" format="ascii" RangeMin="0" RangeMax="1.224744871391589">
          0.5 0 1 0.5 0 0.5
          0.5 0.5 1 0.5 0 0
          0.5 0.5 0.5 0 0.5 0.5
          0.5 0.5 0 0 0.5 0
          -0.5 0.5 0 0 0 0.5
          0 0 0 -0.5 0 0
          -0.5 0 0.5 -0.5 0.5 0.5
          0 0 1 0 0.5 1
          -0.5 0.5 1 0.5 -0.5 0
          0.5 -0.5 0.5 0.5 -0.5 1
          <InformationKey name="L2_NORM_RANGE" location="vtkDataArray" length="2">
            <Value index="0">
              0
            </Value>
            <Value index="1">
              1.2247448714
            </Value>
          </InformationKey>
        </DataArray>
      </Points>
      <Cells>
        <DataArray type="Int64" Name="connectivity" format="ascii" RangeMin="0" RangeMax="19">
          7 5 9 6 6 7
          10 9 4 1 9 6
          6 3 1 9 6 4
          5 9 3 10 9 6
          11 12 9 8 8 11
          10 9 13 5 9 8
          8 7 5 9 8 13
          12 9 7 10 9 8
          1 0 2 9 9 1
          4 2 14 15 2 9
          9 5 15 2 9 14
          0 2 5 4 2 9
          5 15 16 9 9 5
          13 16 3 1 9 17
          17 3 10 9 17 18
          1 9 14 0 19 9
          9 1 0 19 1 18
          19 9
        </DataArray>
        <DataArray type="Int64" Name="offsets" format="ascii" RangeMin="4" RangeMax="104">
          4 8 12 16 20 24
          28 32 36 40 44 48
          52 56 60 64 68 72
          76 80 84 88 92 96
          100 104
        </DataArray>
        <DataArray type="UInt8" Name="types" format="ascii" RangeMin="10" RangeMax="10">
          10 10 10 10 10 10
          10 10 10 10 10 10
          10 10 10 10 10 10
          10 10 10 10 10 10
          10 10
        </DataArray>
      </Cells>
    </Piece>
  </UnstructuredGrid>
</VTKFile>
