<?xml version="1.0"?>
<VTKFile type="UnstructuredGrid" version="0.1" byte_order="LittleEndian" header_type="UInt32" compressor="vtkZLibDataCompressor">
  <UnstructuredGrid>
    <Piece NumberOfPoints="27" NumberOfCells="48">
      <PointData>
        <DataArray type="Float64" Name="Velocity" NumberOfComponents="3" format="ascii" RangeMin="0" RangeMax="0.018573581657384493">
          0 0 0 0 0 0
          0 0 0 0.003685433193933935 -0.0008941205817183107 -0.018182300903404038
          0 0 0 0 0 0
          0 0 0 0 0 0
          0 0 0 0 0 0
          0 0 0 0 0 0
          0 0 0 0 0 0
          0 0 0 0 0 0
          0 0 0 0 0 0
          0 0 0 0 0 0
          0 0 0 0 0 0
          0 0 0 0 0 0
          0 0 0 0 0 0
          0 0 0
          <InformationKey name="L2_NORM_RANGE" location="vtkDataArray" length="2">
            <Value index="0">
              0
            </Value>
            <Value index="1">
              0.018573581657
            </Value>
          </InformationKey>
        </DataArray>
        <DataArray type="Float64" Name="Pressure" format="ascii" RangeMin="0.2005968152752102" RangeMax="3.094992642691309">
          0.33391110055027545 1.6431927203811085 1.6427543156427504 1.6424923601594676 2.953004743755838 3.0062587988392107
          3.0021931109721702 3.071779820012147 3.094992642691309 3.0057764281990096 1.6428165038379454 2.9529420030717977
          1.64334987167094 1.64194368487672 2.937175905206721 1.636792618637434 3.072363613656957 1.6410544978163002
          0.3503616458942741 0.33410628336915865 0.28211131941829815 0.28096307302809176 0.21901406542238883 0.2005968152752102
          1.6407534073610182 0.28149980395907076 0.21966853077926052
        </DataArray>
        <DataArray type="Float64" Name="Temperature" format="ascii" RangeMin="239.99999999999997" RangeMax="959.9999999999999">
          588.6921221469973 620.1474826720258 599.4056651939593 600.8060986854249 595.4617548423054 587.3653994626719
          626.5256878817008 613.0771835716309 494.4031393451987 587.3850509153488 599.777426068815 593.9254783754247
          620.5253168626296 959.9999999999999 614.7745211654707 239.99999999999997 612.3391973097442 583.2145274218607
          685.141854687085 588.8282914718378 574.9615012248242 609.3195849419943 606.8618898077045 572.3936926253798
          583.7344855597516 608.2812895165296 605.8155448977923
        </DataArray>
        <DataArray type="Float64" Name="Density" format="ascii" RangeMin="0.3668925435555134" RangeMax="1.4675701742220535">
          0.5983039836319461 0.5679565775155583 0.5876101316114861 0.5862404569193786 0.5915020384584891 0.5996554140497626
          0.5621746220879575 0.5745065242215792 0.7124081822776824 0.599635352081939 0.5872459124076495 0.5930320463380658
          0.5676107521190239 0.3668925435555134 0.572920362974007 1.4675701742220535 0.5751989148509926 0.6039232996652041
          0.5140787114431299 0.5981656230085175 0.6125920449681852 0.5780494350051507 0.5803904442325407 0.6153401869223805
          0.6033853584571877 0.5790361266795492 0.581392875735329
        </DataArray>
        <DataArray type="Float64" Name="stream" format="ascii" RangeMin="-0.001189294420342607" RangeMax="0.0015942248347327144">
          0.00028411497559789514 0.0003730876952799338 0.0011711966641891366 0.00010237333470542618 0.000009388938938127266 0.00026513335269259336
          0.00008963876484243412 0.0000036874278694734455 0.000007587037014963316 0.00003524718429988198 -0.000768674546336458 0.000002211707213475558
          -0.0009798258445367868 0.00021656815348752232 0.000008660170092030638 0.00021584679363586054 0.000002722204075571619 -0.0001631627132372032
          0.00034191201374185324 -0.00012136110111292597 0.00031262079162998243 -0.001189294420342607 -0.0000785449613007667 0.0001893618589634848
          0.0012866653633157356 0.0015942248347327144 0.00003357533251660519
        </DataArray>
      </PointData>
      <CellData>
        <DataArray type="UInt8" Name="vtkGhostType" format="ascii" RangeMin="0" RangeMax="0">
          0 0 0 0 0 0
          0 0 0 0 0 0
          0 0 0 0 0 0
          0 0 0 0 0 0
          0 0 0 0 0 0
          0 0 0 0 0 0
          0 0 0 0 0 0
          0 0 0 0 0 0
        </DataArray>
      </CellData>
      <Points>
        <DataArray type="Float32" Name="Points" NumberOfComponents="3" format="ascii" RangeMin="0" RangeMax="1.224744871391589">
          0.5 -0.5 1 0.5 -0.5 0.5
          0 -0.5 0.5 0 0 0.5
          0.5 -0.5 0 0 -0.5 0
          0 0 0 -0.5 -0.5 0
          -0.5 0 0 0 0.5 0
          0 0.5 0.5 0.5 0.5 0
          0.5 0.5 0.5 0.5 0 0.5
          0.5 0 0 -0.5 0 0.5
          -0.5 0.5 0 -0.5 0.5 0.5
          0.5 0 1 0.5 0.5 1
          0 0 1 0 0.5 1
          -0.5 0.5 1 -0.5 0 1
          -0.5 -0.5 0.5 0 -0.5 1
          -0.5 -0.5 1
          <InformationKey name="L2_NORM_RANGE" location="vtkDataArray" length="2">
            <Value index="0">
              0
            </Value>
            <Value index="1">
              1.2247448714
            </Value>
          </InformationKey>
        </DataArray>
      </Points>
      <Cells>
        <DataArray type="Int64" Name="connectivity" format="ascii" RangeMin="0" RangeMax="26">
          9 10 3 11 11 9
          6 3 12 13 3 11
          11 14 13 3 11 12
          10 3 14 6 3 11
          8 15 3 16 16 8
          6 3 17 10 3 16
          16 9 10 3 16 17
          15 3 9 6 3 16
          13 18 19 3 3 13
          12 19 20 21 19 3
          3 10 21 19 3 20
          18 19 10 12 19 3
          10 21 22 3 3 10
          17 22 20 23 22 3
          3 15 23 22 3 20
          21 22 15 17 22 3
          14 13 3 4 4 14
          6 3 1 2 3 4
          4 5 2 3 4 1
          13 3 5 6 3 4
          5 2 3 7 7 5
          6 3 24 15 3 7
          7 8 15 3 7 24
          2 3 8 6 3 7
          2 25 0 3 3 2
          1 0 20 18 0 3
          3 13 18 0 3 20
          25 0 13 1 0 3
          15 23 26 3 3 15
          24 26 20 25 26 3
          3 2 25 26 3 20
          23 26 2 24 26 3
        </DataArray>
        <DataArray type="Int64" Name="offsets" format="ascii" RangeMin="4" RangeMax="192">
          4 8 12 16 20 24
          28 32 36 40 44 48
          52 56 60 64 68 72
          76 80 84 88 92 96
          100 104 108 112 116 120
          124 128 132 136 140 144
          148 152 156 160 164 168
          172 176 180 184 188 192
        </DataArray>
        <DataArray type="UInt8" Name="types" format="ascii" RangeMin="10" RangeMax="10">
          10 10 10 10 10 10
          10 10 10 10 10 10
          10 10 10 10 10 10
          10 10 10 10 10 10
          10 10 10 10 10 10
          10 10 10 10 10 10
          10 10 10 10 10 10
          10 10 10 10 10 10
        </DataArray>
      </Cells>
    </Piece>
  </UnstructuredGrid>
</VTKFile>
