<?xml version="1.0"?>
<VTKFile type="UnstructuredGrid" version="0.1" byte_order="LittleEndian" header_type="UInt32" compressor="vtkZLibDataCompressor">
  <UnstructuredGrid>
    <Piece NumberOfPoints="51" NumberOfCells="75">
      <PointData>
        <DataArray type="Float64" Name="nsi_BC" NumberOfComponents="3" format="ascii" RangeMin="0" RangeMax="100">
          0 0 0 0 0 0
          0 0 0 0 0 0
          0 0 0 0 0 0
          0 0 0 0 0 0
          0 0 0 0 0 0
          0 0 0 0 0 0
          0 0 0 0 0 0
          0 0 0 0 0 0
          0 0 0 0 0 0
          0 0 0 0 0 0
          0 0 0 0 0 0
          0 0 0 0 0 0
          0 0 0 0 0 0
          0 0 0 0 0 0
          0 0 0 0 0 0
          0 0 0 0 0 0
          0 0 0 0 0 0
          0 0 0 0 0 0
          0 0 0 0 0 0
          0 0 0 0 0 0
          0 0 0 0 0 0
          0 0 0 0 0 0
          0 0 0 100 0 0
          0 0 0 100 0 0
          100 0 0 100 0 0
          100 0 0
          <InformationKey name="L2_NORM_RANGE" location="vtkDataArray" length="2">
            <Value index="0">
              0
            </Value>
            <Value index="1">
              100
            </Value>
          </InformationKey>
        </DataArray>
        <DataArray type="Float64" Name="nsi_FIXNO" NumberOfComponents="3" format="ascii" RangeMin="1" RangeMax="1.4142135623730951">
          0 1 0 -1 -1 0
          0 1 0 -1 -1 0
          -1 -1 0 0 1 0
          -1 -1 0 -1 -1 0
          -1 -1 0 0 1 0
          -1 -1 0 -1 -1 0
          -1 -1 0 -1 -1 0
          0 1 0 0 1 0
          -1 -1 0 0 1 0
          0 1 0 -1 -1 0
          -1 -1 0 -1 -1 0
          0 1 0 0 1 0
          -1 -1 0 -1 -1 0
          -1 -1 0 0 1 0
          -1 -1 0 0 1 0
          1 1 0 -1 -1 0
          -1 -1 0 1 1 0
          0 1 0 -1 -1 0
          1 1 0 -1 -1 0
          -1 -1 0 -1 -1 0
          0 1 0 -1 -1 0
          0 1 0 -1 -1 0
          -1 -1 0 1 1 0
          0 1 0 1 1 0
          1 1 0 1 1 0
          1 1 0
          <InformationKey name="L2_NORM_RANGE" location="vtkDataArray" length="2">
            <Value index="0">
              1
            </Value>
            <Value index="1">
              1.4142135624
            </Value>
          </InformationKey>
        </DataArray>
        <DataArray type="Float64" Name="tem_BC" format="ascii" RangeMin="0" RangeMax="1">
          0 0 0 0 0 0
          0 0 0 0 0 0
          0 0 0 0 0 0
          0 0 0 0 0 0
          0 0 0 0 0 0
          0 0 0 0 0 0
          0 0 0 0 0 0
          0 0 0 1 0 1
          1 1 1
        </DataArray>
        <DataArray type="Float64" Name="tem_FIXNO" format="ascii" RangeMin="-1" RangeMax="1">
          -1 -1 -1 -1 -1 -1
          -1 -1 -1 -1 -1 -1
          -1 -1 -1 -1 -1 -1
          -1 -1 -1 -1 -1 -1
          -1 -1 -1 -1 -1 -1
          1 -1 -1 1 -1 -1
          1 -1 -1 -1 -1 -1
          -1 -1 -1 1 -1 1
          1 1 1
        </DataArray>
        <DataArray type="Float64" Name="Velocity" NumberOfComponents="3" format="ascii" RangeMin="0" RangeMax="111.20949858506476">
          100.07253759229023 0 0 99.89842914141205 -0.17089717314294975 0
          100.32385638321972 0 0 99.63252771876219 0.006828666711509976 0
          100.05709865822804 -0.005949447994559555 0 100.46372452533095 0 0
          100.15929410509868 0.1523271664979398 0 99.32395149237655 -0.027914389220732517 0
          99.97409104850544 -0.21425015538776915 0 100.82470665174208 0 0
          99.99779469886867 0.04070351417111457 0 100.0636263311339 0.3744329740650428 0
          98.94626348861259 0.06467492245180673 0 100.48481712053382 -0.36936741183837235 0
          100.06822462553751 0 0 101.25841889376495 0 0
          100.21842125812357 -1.124716144296409 0 99.85468887313561 0 0
          100.23703036481734 0 0 99.08457910896246 3.8296536957372758 0
          96.2198304994752 -1.0325413513166606 0 100.22058488377564 3.0744449917875745 0
          98.78910865714914 0 0 100.17262132614259 0 0
          98.54864661158585 -2.2298984527909256 0 91.11624013114158 -7.761173436283432 0
          102.34163242356911 -5.249304867737848 0 101.02626574291571 0 0
          106.48346765044805 -19.943778723853935 0 100.75586776482437 0 0
          0 0 0 109.62097825514472 -3.750340428958019 0
          93.42836408872863 34.54818291635096 0 0 0 0
          96.48436910681792 0 0 104.24176686837397 15.279394293193949 0
          0 0 0 99.7098406514817 13.258901044313738 0
          111.12789403949122 -4.259547146015981 0 29.411689453473215 -6.60511782569158 0
          102.58324476051995 0 0 103.23679012844553 5.155465682231699 0
          107.71969080855037 0 0 85.9374345719644 12.72272554598636 0
          96.75476407170466 -14.843740625613506 0 100.00000000034711 0 0
          104.26120459456848 0 0 100.00000000034714 0 0
          100.00000000034714 0 0 100.00000000034714 0 0
          100.00000000034711 0 0
          <InformationKey name="L2_NORM_RANGE" location="vtkDataArray" length="2">
            <Value index="0">
              0
            </Value>
            <Value index="1">
              111.20949859
            </Value>
          </InformationKey>
        </DataArray>
        <DataArray type="Float64" Name="Pressure" format="ascii" RangeMin="-137.1917081184108" RangeMax="15326912.485799424">
          -137.1917081184108 206.6909689155925 1999700.0654499864 2428224.9430364235 -90.19290165549725 3999565.428697769
          2000069.3416321785 4897851.196489334 34.00117896152721 6000169.650404524 4000008.90948302 2833865.9755384396
          6945007.310368793 5999919.636326023 -117.9922468421669 8003703.228310761 5001143.803623881 2000483.9131127158
          4001297.8385556005 7997848.176555386 8778524.980025135 7136951.287329071 6002929.895492013 10019894.743322618
          10142477.61192391 10356910.840383653 9810527.173248578 8010577.0167941 11435329.42662365 12059605.950433517
          11381556.721543517 12256505.638430113 11259756.247180834 12404462.037963435 10027923.61515036 11145409.563162344
          12411971.348676447 13106123.066255933 12540049.410987066 13284074.34776315 14103049.932637468 14384238.510752602
          12085221.891833808 14547114.179925678 14446185.060093692 15326912.485799424 14173840.612293452 15274543.329533057
          15288508.248866776 15286297.24698698 15069006.068583261
        </DataArray>
        <DataArray type="Float64" Name="Temperature" format="ascii" RangeMin="-0.0687982598559736" RangeMax="1.000000000000267">
          -0.0000947640421367413 -0.00022869217635306896 0.0003964525404050842 0.00017786386295872634 -0.000149499161152875 -0.001069448937697686
          0.00010647037614503557 0.00014673955331669767 0.00021163501946690812 0.002476564192588502 0.00006870163713755015 -0.000634781195316596
          -0.0013303205370118333 -0.0010686999410506755 -0.00026785883934223113 -0.004186706213962086 0.0013132157195071131 0.00018454189971237343
          0.00037182232154753806 0.004205386251556686 0.0043958916519238915 -0.0006158849227006556 -0.00266162878812299 0.015251783119456203
          -0.0017739971659688387 -0.010081506526381333 -0.00657536865036578 0.007409235114066518 0.030317974444155824 0.0010632194696176417
          0 -0.025731328680151117 0.014067300805043651 0 -0.008832128873685601 0.020573398028383993
          0 -0.059681918231249624 -0.054475618589891146 -0.0687982598559736 0.022805178881570905 0.08852785096404717
          -0.0033842084131397595 0.10211348005799656 0.09904216780081647 1.000000000000267 0.06858398124540076 1.000000000000267
          1.000000000000267 1.000000000000267 1.000000000000267
        </DataArray>
        <DataArray type="Float64" Name="CN2" format="ascii" RangeMin="1.544227638764482e-19" RangeMax="9.301496949289939e-9">
          3.9383811524215503e-19 2.5205998143798467e-19 4.4235740187712832e-16 3.6906642367884174e-16 1.544227638764482e-19 6.633209856106772e-15
          1.9050964825919264e-16 7.626449466004205e-15 6.927348412279441e-19 5.2282863239672845e-14 2.1657735721644302e-15 1.1372868565448679e-15
          6.710958360722899e-14 2.359911128203684e-14 7.037933363928636e-19 5.268504260370494e-13 1.1245598814757481e-14 4.055996417190785e-16
          7.268459901176485e-15 1.9592022349540594e-13 3.195520483028359e-13 1.3742184246563442e-13 8.956350243517835e-14 3.346558196392319e-12
          4.441782289449769e-12 2.7523942531886764e-12 1.3011196416301918e-12 4.5298127932524703e-13 1.825659120187557e-11 6.934052042204037e-12
          4.459275705315055e-12 3.3431584251876456e-11 9.462255656081602e-12 3.0033519658428085e-11 2.558590762459889e-12 1.3650384582024735e-11
          3.1280588295345953e-11 1.1519718797619751e-10 8.300041268065621e-11 1.6501120366244375e-10 2.516509218723804e-9 3.993838657147892e-9
          3.275782576020562e-11 4.060159735156917e-9 3.7809036558370694e-9 8.789281556270204e-9 3.700142139928515e-9 8.187905475415008e-9
          7.528071120574658e-9 8.431327261599324e-9 9.301496949289939e-9
        </DataArray>
        <DataArray type="Float64" Name="CT2" format="ascii" RangeMin="1.379890909183708e-7" RangeMax="0.36587893255304277">
          3.5225747348936614e-7 2.2390285292596632e-7 8.949770945037477e-7 5.150209175004271e-7 1.379890909183708e-7 0.0000035203992161473027
          3.8530177224139117e-7 0.0000027233741511653912 6.174811733164644e-7 0.000012532621142413128 0.000001149197069598761 0.000001178517581366976
          0.000012060458298149015 0.000005657066038841728 6.292446673435413e-7 0.0000715557069328582 0.000003854840635572896 8.199939360625607e-7
          0.000003854364380671676 0.000026651237317023976 0.000036160842841708115 0.00002340405851802695 0.000021448059341993788 0.0002915372214309781
          0.000377647455692904 0.00022448655678129268 0.00011814967332355027 0.00006142914819388502 0.0012243430409510387 0.0004183169671910701
          0.00030172645974541675 0.0019523271070511696 0.0006541792122721817 0.0017132740214843463 0.00022246128710822115 0.0009631097829579999
          0.0017822722852371463 0.005886568679859133 0.004630062399498939 0.008208234918061406 0.11130917198538416 0.17002498006479438
          0.001967783367343056 0.16905923880026574 0.1596165029600467 0.334267498071874 0.16215243362896617 0.3135213903083869
          0.2877328686688159 0.3223491398814809 0.36587893255304277
        </DataArray>
      </PointData>
      <CellData>
        <DataArray type="UInt8" Name="vtkGhostType" format="ascii" RangeMin="0" RangeMax="0">
          0 0 0 0 0 0
          0 0 0 0 0 0
          0 0 0 0 0 0
          0 0 0 0 0 0
          0 0 0 0 0 0
          0 0 0 0 0 0
          0 0 0 0 0 0
          0 0 0 0 0 0
          0 0 0 0 0 0
          0 0 0 0 0 0
          0 0 0 0 0 0
          0 0 0 0 0 0
          0 0 0
        </DataArray>
      </CellData>
      <Points>
        <DataArray type="Float32" Name="Points" NumberOfComponents="3" format="ascii" RangeMin="0" RangeMax="17.88854381999832">
          16 8 0 16 6 0
          14 8 0 13.571430206298828 5.4463372230529785 0
          16 4 0 12 8 0
          14 3.464102029800415 0 11.101200103759766 5.649384021759033 0
          16 2 0 10 8 0
          12 3.464102029800415 0 13.166669845581055 1.776708960533142 0
          9.0526123046875 5.597301006317139 0 10 3.464102029800415 0
          16 0 0 8 8 0
          11 1.7320510149002075 0 14 0 0
          12 0 0 8 3.464102029800415 0
          7.214476108551025 5.006220817565918 0 8.865592002868652 1.8541419506072998 0
          10 0 0 6 8 0
          5.868243217468262 6.172163009643555 0 5.61288595199585 4.4169921875 0
          6.193554878234863 2.464600086212158 0 8 0 0
          4.574699878692627 4.995409965515137 0 4 8 0
          4.5 4 0 3.80739688873291 6.614357948303223 0
          4.723260879516602 3.0721371173858643 0 3.75 4.433012962341309 0
          6 0 0 4.8942999839782715 1.5862879753112793 0
          3.75 3.5669870376586914 0 3.0087170600891113 5.149643898010254 0
          3.5546820163726807 2.3947041034698486 0 2.864197015762329 3.831125020980835 0
          2 8 0 1.7273950576782227 6.389729976654053 0
          4 0 0 1.5482569932937622 4.574378967285156 0
          1.6611889600753784 2.800034999847412 0 0 8 0
          2 0 0 0 6 0
          0 4 0 0 2 0
          0 0 0
          <InformationKey name="L2_NORM_RANGE" location="vtkDataArray" length="2">
            <Value index="0">
              0
            </Value>
            <Value index="1">
              17.88854382
            </Value>
          </InformationKey>
        </DataArray>
      </Points>
      <Cells>
        <DataArray type="Int64" Name="connectivity" format="ascii" RangeMin="0" RangeMax="50">
          30 36 32 36 33 39
          33 30 28 32 36 38
          39 33 37 28 30 25
          30 32 25 36 39 38
          33 28 37 32 38 35
          39 37 43 28 25 24
          35 38 42 43 37 41
          24 25 20 32 35 26
          39 43 44 28 24 31
          41 37 31 26 35 34
          31 24 23 20 25 19
          44 43 48 48 43 47
          43 41 47 47 41 45
          32 26 25 28 31 37
          24 20 15 39 44 38
          35 42 34 44 48 49
          44 49 46 50 46 49
          14 8 17 15 23 24
          27 22 21 21 22 16
          27 21 26 16 22 18
          16 18 11 11 18 17
          16 11 10 11 17 8
          10 11 6 6 11 8
          10 6 3 3 4 1
          10 3 7 7 3 5
          10 7 13 13 7 12
          10 13 16 12 7 9
          13 12 19 16 13 21
          19 12 20 20 12 15
          19 25 26 21 13 19
          21 19 26 0 2 1
          4 3 6 29 40 31
          29 31 23 5 9 7
          46 42 38 8 4 6
          2 5 3 34 27 26
          40 45 41 40 41 31
          9 15 12 38 44 46
          1 2 3
        </DataArray>
        <DataArray type="Int64" Name="offsets" format="ascii" RangeMin="3" RangeMax="225">
          3 6 9 12 15 18
          21 24 27 30 33 36
          39 42 45 48 51 54
          57 60 63 66 69 72
          75 78 81 84 87 90
          93 96 99 102 105 108
          111 114 117 120 123 126
          129 132 135 138 141 144
          147 150 153 156 159 162
          165 168 171 174 177 180
          183 186 189 192 195 198
          201 204 207 210 213 216
          219 222 225
        </DataArray>
        <DataArray type="UInt8" Name="types" format="ascii" RangeMin="5" RangeMax="5">
          5 5 5 5 5 5
          5 5 5 5 5 5
          5 5 5 5 5 5
          5 5 5 5 5 5
          5 5 5 5 5 5
          5 5 5 5 5 5
          5 5 5 5 5 5
          5 5 5 5 5 5
          5 5 5 5 5 5
          5 5 5 5 5 5
          5 5 5 5 5 5
          5 5 5 5 5 5
          5 5 5
        </DataArray>
      </Cells>
    </Piece>
  </UnstructuredGrid>
</VTKFile>
