<?xml version="1.0"?>
<VTKFile type="UnstructuredGrid" version="0.1" byte_order="LittleEndian" header_type="UInt32" compressor="vtkZLibDataCompressor">
  <UnstructuredGrid>
    <Piece NumberOfPoints="32" NumberOfCells="44">
      <PointData>
        <DataArray type="Float64" Name="proc" format="ascii" RangeMin="0" RangeMax="1">
          0 0 0 0 0 0
          0 0 0 0 0 0
          0 0 0 0 0 0
          0 0 0 0 0 0
          0 0 0 1 1 1
          1 1
        </DataArray>
        <DataArray type="Float64" Name="Displacement" NumberOfComponents="3" format="ascii" RangeMin="1.7913499114811296e-11" RangeMax="6.63994116150426e-11">
          5.24800982149461e-11 0 0 3.4256157005655115e-11 -8.313430243548729e-12 0
          4.7065582173721526e-11 -2.8030165825656743e-11 0 3.068825629325763e-11 -3.246566002024796e-11 0
          2.5788784053448907e-11 -1.325526792978598e-11 0 3.601350667860326e-11 -4.177053716042953e-11 0
          2.2242128567112714e-11 -2.6385651312806826e-11 0 4.160266139211114e-11 -4.6978746677339625e-11 0
          2.950297859303492e-11 -4.491263810685397e-11 0 3.434171837992922e-11 -4.916817707188977e-11 0
          1.660139344096663e-11 -1.5823562502056014e-11 0 2.3162230493072552e-11 -3.85300804973651e-11 0
          1.6449499446925895e-11 -3.137345176202559e-11 0 3.437087196947735e-11 -5.346854392408632e-11 0
          2.4484081861783464e-11 -4.852869930496118e-11 0 2.888687719902086e-11 -5.2872415059130456e-11 0
          7.614736318779603e-12 -1.6214476289162222e-11 0 1.8470548006303347e-11 -4.3066577580314176e-11 0
          8.005650105885826e-12 -2.6653098906314964e-11 0 1.0063207767303267e-11 -3.715208771283e-11 0
          2.5584297481713133e-11 -5.520371528115242e-11 0 2.7536834840193062e-11 -5.79149979457377e-11 0
          2.133439128961493e-11 -5.138733821113104e-11 0 1.416871643814177e-11 -4.6507483161312715e-11 0
          2.468227227013856e-11 -5.598962189700512e-11 0 1.9799035518935665e-11 -5.285234698135011e-11 0
          2.62356329856695e-11 -5.5281605883586244e-11 0 2.8184006004826937e-11 -5.631766024034362e-11 0
          2.6569829801344553e-11 -5.765918099568826e-11 0 2.6018119680074296e-11 -5.831281759234561e-11 0
          2.709718413954815e-11 -6.061868090391999e-11 0 3.2761117577919406e-11 -5.342895023543475e-11 0
          <InformationKey name="L2_NORM_RANGE" location="vtkDataArray" length="2">
            <Value index="0">
              1.7913499115e-11
            </Value>
            <Value index="1">
              6.6399411615e-11
            </Value>
          </InformationKey>
        </DataArray>
        <DataArray type="Float64" Name="TopologicalDerivative1" format="ascii" RangeMin="-0.07038875354722311" RangeMax="0.28499940115586253">
          0.28499940115586253 0.0617062336016274 0.05716892138914477 -0.026154086738494987 0.013796687331350518 -0.008402015996086906
          -0.008306908368816562 0.05727842979914689 -0.04550672031427063 0.001279412306143965 -0.054368687359574175 -0.0363168299244239
          -0.047076958673301875 0.03185835702416849 -0.047589387705164604 -0.04585433618532497 -0.07038875354722311 -0.027722952183650847
          -0.0641107864725747 -0.03116645986376397 -0.05377200098490313 -0.02264972524075594 -0.014388973738248531 0.014444877100922238
          -0.005128109317244875 0.054623713928003984 0.07828781331444189 0.00018682195660572887 -0.06007846800647101 -0.021999868957013655
          0.055122921578820275 0.07776590860051617
        </DataArray>
      </PointData>
      <CellData>
        <DataArray type="UInt8" Name="vtkGhostType" format="ascii" RangeMin="0" RangeMax="0">
          0 0 0 0 0 0
          0 0 0 0 0 0
          0 0 0 0 0 0
          0 0 0 0 0 0
          0 0 0 0 0 0
          0 0 0 0 0 0
          0 0 0 0 0 0
          0 0
        </DataArray>
        <DataArray type="Float64" Name="Stress" NumberOfComponents="6" format="ascii" RangeMin="0.000011131149367392524" RangeMax="0.09755858493841296">
          0.024231873757121342 -0.09249160079544835 0 0.019385499005697242 0 0
          -0.07569438812277278 0.003792220312718895 0 0.0023265371962055475 0 0
          -0.03969300442636813 -0.0005406356589903079 0 0.0004340934434174822 0 0
          -0.029191679186951834 -0.00037112939700792436 0 0.0029950914590433763 0 0
          -0.00003722621672327103 0.00000982785014337495 0 0.000007512990956732835 0 0
          -0.000010977747958636132 0.0000028287995898029703 0 0.000003899535550732378 0 0
          -0.00004357734084934757 0.000010059077673944397 0 8.710578186448558e-7 0 0
          -0.0000067013792075351905 -0.0000067013792075350686 0 0.0000067013792075340725 0 0
          -0.059539769577341986 0.0033376664422668408 0 0.00546452251941143 0 0
          -0.005945411651722832 -0.00006452273634656834 0 0.001352976118609699 0 0
          -0.00003181855163236507 0.000008491892557913108 0 0.000013986325607513551 0 0
          -0.0053035896245839575 0.00028337949177134614 0 0.001018599891762713 0 0
          -0.000012320841812949237 0.0000029391520873560203 0 0.000011090108300508939 0 0
          -0.00001531685905213304 0.0000018178579079930198 0 0.00001762135052003301 0 0
          -0.000024582479143026144 -2.8615417874959316e-7 0 0.000010506759098511155 0 0
          -0.00000991193437772978 0.000010968843538087546 0 0.000010275302745241127 0 0
          -0.000022410224440499135 0.000005341586571512542 0 0.000019576509653984553 0 0
          -0.00002559281690162936 -0.0000030070832154002715 0 0.000009041558442344412 0 0
          0.000027391044566852124 0.000011704487645740606 0 0.0000115447044144272 0 0
          -0.000011793835065931426 -0.000002508706514711266 0 0.000022265786859868845 0 0
          -0.0000072358260920163 0.000015301872478535736 0 0.000004939869767114742 0 0
          0.006975082671334969 0.000568658805315758 0 0.0011256942197695099 0 0
          -0.000011301914093540616 -8.689699400752249e-7 0 0.00001913345573066639 0 0
          0.000020365811570328335 0.000011179163001637045 0 8.376335050145985e-7 0 0
          0.0000035427367312978713 0.00000442427134179748 0 0.00002239234725024457 0 0
          0.0025930562598511847 -0.011454265195823909 0 0.020439582070718297 0 0
          -0.00001111226548048328 0.000015833169813492212 0 0.000015877498974167598 0 0
          0.00000649195439325669 0.000021889797332375688 0 0.000016565693005235528 0 0
          0.000009786393767613133 0.000007977256798147981 0 0.000011631509891732961 0 0
          0.00013205019766042328 0.00007065519126814415 0 0.00004764800245477247 0 0
          0.000026133688659459026 0.00004419356777242121 0 0.00000635244933790935 0 0
          0.01935722799576055 0.0030844095856610836 0 0.0016016529967680627 0 0
          0.07505773500011154 0.018775188476090554 0 -0.009687809276326271 0 0
          0.03145315611233597 0.03547963361746368 0 0.003415871271135567 0 0
          0.05611971815483896 0.01511485707201862 0 0.02043461998364761 0 0
          0.022718473273287736 0.0010846856627677818 0 0.006434851252992865 0 0
          -0.000007531702234726533 -3.4647316633245985e-7 0 0.000008188766942075582 0 0
          0.0005274199928313626 -0.003762278769355417 0 0.001910956596463707 0 0
          0.013695638471705008 0.016904373823988742 0 0.00026262627051589193 0 0
          -0.002579369170740687 -0.057434235620442864 0 0.014723626215766564 0 0
          -0.000007974274632266586 -0.000008523610303000685 0 0.000017757261961340274 0 0
          0.06639874287335074 0.01671010379267181 0 0.014064809053584214 0 0
          -0.0009431639058196128 -0.005931527712345791 0 0.013738858640016036 0 0
          -0.07708609404382297 0.0040657368772531385 0 -0.0015459357163302653 0 0
          <InformationKey name="L2_NORM_RANGE" location="vtkDataArray" length="2">
            <Value index="0">
              1.1131149367e-05
            </Value>
            <Value index="1">
              0.097558584938
            </Value>
          </InformationKey>
        </DataArray>
        <DataArray type="Float64" Name="Strain" NumberOfComponents="6" format="ascii" RangeMin="6.973896806540914e-14" RangeMax="5.136088014632519e-13">
          2.165806416489827e-13 -4.1567151217743647e-13 0 2.1000957256172014e-13 0 0
          -3.2182987333669184e-13 1.1100398749485565e-13 0 2.5337703968564643e-14 0 0
          -1.7508668673441902e-13 5.0346974814678174e-14 0 4.9988941913316e-15 0 0
          -1.673940490261815e-13 4.827416539344883e-14 0 4.4825378537418076e-14 0 0
          -1.673940490261813e-13 8.748214650148438e-14 0 8.139073536460572e-14 0 0
          -4.9276615981570906e-14 2.5508849905807536e-14 0 4.224496846626743e-14 0 0
          -1.7508668673441902e-13 8.692238809171458e-14 0 8.510078020369706e-15 0 0
          -1.954568935531112e-14 -1.9545689355310464e-14 0 7.25982747482858e-14 0 0
          -2.8151595403969463e-13 9.857812080002608e-14 0 6.606607275808028e-14 0 0
          -1.43192164165579e-13 4.1538893100364346e-14 0 8.499963608999778e-14 0 0
          -1.431921641655792e-13 7.515607519842763e-14 0 1.5151852741473014e-13 0 0
          -2.0527543354192522e-13 7.140622758305911e-14 0 1.0088758473699568e-13 0 0
          -5.501078099648351e-14 2.7647519296836632e-14 0 1.2014283992218017e-13 0 0
          -6.60925684355456e-14 2.6720481765137214e-14 0 1.9089796396702421e-13 0 0
          -1.020693037058386e-13 2.953578985065937e-14 0 1.138232235672042e-13 0 0
          -5.501078099648351e-14 5.809343271419364e-14 0 1.1131577974011221e-13 0 0
          -1.0005291838313702e-13 5.02693912652595e-14 0 2.1207885458483265e-13 0 0
          -1.0287788307087202e-13 1.9461507729535574e-14 0 9.795021645873114e-14 0 0
          9.949874280470807e-14 1.4529892815354044e-14 0 1.2506763115629467e-13 0 0
          -4.600509629799185e-14 4.289350021117343e-15 0 2.4121269098191236e-13 0 0
          -4.9276615981570906e-14 7.280258460891928e-14 0 5.351525581040969e-14 0 0
          1.1795437649095076e-13 -2.6415909894477062e-14 0 5.0735574257757835e-14 0 0
          -4.600509629799185e-14 1.0506684533278998e-14 0 2.0727910374888592e-13 0 0
          7.088359445765509e-14 2.1122581377243936e-14 0 9.074362970991486e-15 0 0
          9.231063869827613e-15 1.4006043010033826e-14 0 2.425837618776495e-13 0 0
          4.056068365280132e-14 -8.228861062069142e-14 0 3.5750420328260415e-13 0 0
          -6.60925684355456e-14 7.986187274015498e-14 0 1.720062388868157e-13 0 0
          -3.124366935667263e-16 8.309254589332782e-14 0 1.7946167422338487e-13 0 0
          3.080506970070308e-14 2.1005577782766846e-14 0 1.2600802382710712e-13 0 0
          1.0018898456618103e-13 2.8053921323844067e-14 0 1.1196648953776405e-13 0 0
          3.080506970070308e-14 8.697608742663403e-14 0 3.951560717886315e-14 0 0
          1.8005210242454355e-13 -2.6597274969372652e-14 0 4.067895139514399e-14 0 0
          2.892715769053515e-13 -1.5592216766428773e-14 0 -1.0495126716020127e-13 0 0
          9.752098557533482e-14 1.2205168600664055e-13 0 4.162135005469121e-14 0 0
          2.1851683126441543e-13 -7.290458841720562e-15 0 2.2506044605474294e-13 0 0
          1.5587162767401658e-13 -3.9890823330584347e-14 0 1.1645693078019765e-13 0 0
          -3.094900118677831e-14 7.970989600356251e-15 0 8.871164187248546e-14 0 0
          5.424508067539813e-14 -1.284147286135016e-13 0 1.6274101601087082e-13 0 0
          7.086573658562092e-14 1.0514159784126881e-13 0 5.610772233917146e-15 0 0
          6.389148811823177e-14 -2.470918843118626e-13 0 1.669424512837947e-13 0 0
          -2.2571631422359926e-14 -2.554719963883628e-14 0 1.923703379145196e-13 0 0
          2.909475131971681e-13 -1.5212034940708696e-14 0 1.733223394385638e-13 0 0
          3.843310392465176e-15 -2.5958849423218186e-14 0 1.6416110642899293e-13 0 0
          -3.262742296124954e-13 1.1329818787666676e-13 0 -1.674763692691121e-14 0 0
          <InformationKey name="L2_NORM_RANGE" location="vtkDataArray" length="2">
            <Value index="0">
              6.9738968065e-14
            </Value>
            <Value index="1">
              5.1360880146e-13
            </Value>
          </InformationKey>
        </DataArray>
      </CellData>
      <Points>
        <DataArray type="Float32" Name="Points" NumberOfComponents="3" format="ascii" RangeMin="92.44066980668491" RangeMax="215.40659228538016">
          200 0 0 200 20 0
          175 0 0 170.3333282470703 25.352571487426758 0
          200 40 0 157 13.358983993530273 0
          180 45.35898208618164 0 150 0 0
          150 28.038475036621094 0 142.39999389648438 13.887187004089355 0
          200 60 0 160 45.35898208618164 0
          171.6666717529297 62.23291015625 0 125 0 0
          140 45.35898208618164 0 130 28.038475036621094 0
          200 80 0 150 62.67949295043945 0
          180 80 0 160 80 0
          120 45.35898208618164 0 110.71759033203125 23.771137237548828 0
          130 62.67949295043945 0 140 80 0
          110 62.67949295043945 0 120 80 0
          100 80 0 90 62.67949295043945 0
          100 45.35898208618164 0 89.30555725097656 23.870376586914062 0
          100 0 0 80 80 0
          <InformationKey name="L2_NORM_RANGE" location="vtkDataArray" length="2">
            <Value index="0">
              92.440669807
            </Value>
            <Value index="1">
              215.40659229
            </Value>
          </InformationKey>
        </DataArray>
      </Points>
      <Cells>
        <DataArray type="Int64" Name="connectivity" format="ascii" RangeMin="0" RangeMax="31">
          0 1 2 25 26 24
          24 26 27 25 24 22
          22 24 20 20 24 28
          28 24 27 16 18 10
          25 22 23 23 22 17
          17 22 14 23 17 19
          14 22 20 17 14 11
          19 17 12 14 20 15
          17 11 12 19 12 18
          15 20 21 12 11 6
          21 20 28 15 21 13
          6 11 3 21 28 29
          3 11 8 6 3 1
          8 11 14 3 8 5
          8 14 15 5 8 9
          8 15 9 9 15 13
          9 13 7 9 7 5
          5 7 2 5 2 3
          18 12 10 4 10 6
          21 29 30 1 4 6
          12 6 10 30 13 21
          3 2 1 27 26 31
        </DataArray>
        <DataArray type="Int64" Name="offsets" format="ascii" RangeMin="3" RangeMax="132">
          3 6 9 12 15 18
          21 24 27 30 33 36
          39 42 45 48 51 54
          57 60 63 66 69 72
          75 78 81 84 87 90
          93 96 99 102 105 108
          111 114 117 120 123 126
          129 132
        </DataArray>
        <DataArray type="UInt8" Name="types" format="ascii" RangeMin="5" RangeMax="5">
          5 5 5 5 5 5
          5 5 5 5 5 5
          5 5 5 5 5 5
          5 5 5 5 5 5
          5 5 5 5 5 5
          5 5 5 5 5 5
          5 5 5 5 5 5
          5 5
        </DataArray>
      </Cells>
    </Piece>
  </UnstructuredGrid>
</VTKFile>
