<?xml version="1.0"?>
<VTKFile type="UnstructuredGrid" version="0.1" byte_order="LittleEndian" header_type="UInt32" compressor="vtkZLibDataCompressor">
  <UnstructuredGrid>
    <Piece NumberOfPoints="33" NumberOfCells="46">
      <PointData>
        <DataArray type="Float64" Name="proc" format="ascii" RangeMin="0" RangeMax="1">
          1 1 1 1 1 1
          1 1 1 1 1 1
          1 1 1 1 1 1
          1 1 1 1 1 1
          1 1 1 1 0 0
          0 0 0
        </DataArray>
        <DataArray type="Float64" Name="Displacement" NumberOfComponents="3" format="ascii" RangeMin="0" RangeMax="6.63994116150426e-11">
          2.709718413954815e-11 -6.061868090391999e-11 0 2.6569829801344553e-11 -5.765918099568826e-11 0
          2.6018119680074296e-11 -5.831281759234561e-11 0 1.9744819356073567e-11 -5.4394928761588674e-11 0
          2.8184006004826937e-11 -5.631766024034362e-11 0 2.756567663828884e-11 -5.5897874827955574e-11 0
          2.4521221248980848e-11 -5.3999116846724895e-11 0 1.8990731344212373e-11 -5.0724219682372946e-11 0
          3.2761117577919406e-11 -5.342895023543475e-11 0 3.16198835786943e-11 -5.225788340063383e-11 0
          2.8745061784853586e-11 -4.970682593316182e-11 0 1.2142996336790106e-11 -4.9295561566338884e-11 0
          2.434859370476738e-11 -4.586836860093122e-11 0 1.766678198753537e-11 -4.2498190883402e-11 0
          3.860289823450116e-11 -4.747308733563422e-11 0 3.464012564253027e-11 -4.420834065443473e-11 0
          3.0463810968038956e-11 -3.896621955119325e-11 0 5.9904377962833224e-12 -2.9250759808823867e-11 0
          2.4151110261559754e-11 -3.031361560468243e-11 0 4.289569072365495e-11 -3.837120883084748e-11 0
          3.681252346527556e-11 -3.363169386931776e-11 0 3.191596641519124e-11 -2.627505231930244e-11 0
          4.513943259063573e-11 -2.7968660433732746e-11 0 0 0 0
          1.8529211197264927e-11 -8.87038067583494e-12 0 2.869623486307484e-11 -1.4359445374714642e-11 0
          3.66851484954957e-11 -1.7075051586516262e-11 0 4.5566314422249106e-11 -1.750193341812965e-11 0
          2.468227227013856e-11 -5.598962189700512e-11 0 2.62356329856695e-11 -5.5281605883586244e-11 0
          2.5584297481713133e-11 -5.520371528115242e-11 0 2.7536834840193062e-11 -5.79149979457377e-11 0
          3.437087196947735e-11 -5.346854392408632e-11 0
          <InformationKey name="L2_NORM_RANGE" location="vtkDataArray" length="2">
            <Value index="0">
              0
            </Value>
            <Value index="1">
              6.6399411615e-11
            </Value>
          </InformationKey>
        </DataArray>
        <DataArray type="Float64" Name="TopologicalDerivative1" format="ascii" RangeMin="-0.066620893134996" RangeMax="0.5057958565670165">
          0.055122921578820275 -0.06007846800647101 -0.021999868957013655 0.06122998503236095 0.00018682195660572887 -0.054517176652080904
          -0.036788195328613715 0.056021539239763815 0.07776590860051617 -0.000029489381564995476 -0.03875963228255996 0.17395357854546978
          -0.01996547062851231 0.04670622171515061 0.04486595561624465 -0.009759593886456877 -0.01383729103820456 0.14676674726363226
          0.019949819847927264 -0.00984723221373314 -0.03499797002638902 -0.009813831686012409 -0.057013738975895026 0.5057958565670165
          0.1939232426516851 0.08253437596376985 -0.03914679451722501 -0.066620893134996 -0.005128109317244875 0.07828781331444189
          -0.05377200098490313 -0.02264972524075594 0.03185835702416849
        </DataArray>
      </PointData>
      <CellData>
        <DataArray type="UInt8" Name="vtkGhostType" format="ascii" RangeMin="0" RangeMax="1">
          1 1 1 0 0 1
          1 1 1 0 0 0
          1 0 0 0 0 0
          0 0 0 0 0 0
          0 0 0 0 0 0
          0 0 0 0 0 0
          0 0 0 0 0 0
          0 0 0 0
        </DataArray>
        <DataArray type="Float64" Name="Stress" NumberOfComponents="6" format="ascii" RangeMin="0.000011777299308122963" RangeMax="0.10441243452306459">
          -0.03969300442636813 -0.0005406356589903079 0 0.0004340934434174822 0 0
          -0.000010977747958636132 0.0000028287995898029703 0 0.000003899535550732378 0 0
          -0.00004357734084934757 0.000010059077673944397 0 8.710578186448558e-7 0 0
          -0.000011143404322202466 0.000003110488599294661 0 -0.0000022032203200522005 0 0
          -0.000007257626161240334 0.000015641786273637122 0 -0.0000034717039923142317 0 0
          -0.0000072358260920163 0.000015301872478535736 0 0.000004939869767114742 0 0
          0.000020365811570328335 0.000011179163001637045 0 8.376335050145985e-7 0 0
          0.013695638471705008 0.016904373823988742 0 0.00026262627051589193 0 0
          0.06639874287335074 0.01671010379267181 0 0.014064809053584214 0 0
          0.07062817472647054 0.01787390656758273 0 -0.013861110395529792 0 0
          -0.001743646197472349 -0.0663918702457981 0 -0.025816602620178736 0 0
          0.003738111261346531 -0.010907126091922719 0 -0.017710151953854447 0 0
          -0.07708609404382297 0.0040657368772531385 0 -0.0015459357163302653 0 0
          -0.04138300259943511 -0.0005153341888116598 0 -0.0034996123471504005 0 0
          -0.06878061226722244 0.004402460583150421 0 -0.005839963586328653 0 0
          -0.00014978675854344345 0.000043113841652751635 0 -0.000024810590814577926 0 0
          -0.0000130651813499972 0.0000036248013625991514 0 -0.000010110333671396187 0 0
          -0.00003309537484587678 0.0000104917664005161 0 -0.000013782678053723907 0 0
          -0.029847032206078795 -0.00030823631092264693 0 -0.006555139364324787 0 0
          -0.000017255290348510524 0.0000019062775958223445 0 -0.000018578418391525375 0 0
          0.000028445614009077573 0.000012669435541752593 0 -0.000009529609160277376 0 0
          -0.03418581004828883 0.0017534297154361777 0 -0.006368150390761475 0 0
          -0.000024691126280737557 0.000004592158640686287 0 -0.00001919948993308682 0 0
          -0.000010085447207659877 0.000013557248503723562 0 -0.0000092062904653993 0 0
          -0.000026140022054232976 -2.374939376317775e-7 0 -0.000010606965326243233 0 0
          0.000006920592208289419 0.000008486430185898537 0 -0.000011868897849621559 0 0
          -0.00002747846736693723 -0.000001845216543892861 0 -0.00000961332429044853 0 0
          -0.000011247380974950893 0.00002163982049991788 0 -0.000016659238098159655 0 0
          0.006604386403259617 0.014068531953825052 0 -0.0009270860235737776 0 0
          -0.000009078224298166547 -8.239798170911885e-7 0 -0.000008592443901629606 0 0
          -0.0007220108450079964 0.0008110862692714121 0 -0.007922795320842639 0 0
          0.02566474753669818 0.015879696241689063 0 -0.01096209335766548 0 0
          0.0022673340787224853 0.020903789703058263 0 -0.01549992921771249 0 0
          0.03850154837728719 0.0513606974360146 0 -0.005398315567811946 0 0
          0.06400815323496532 0.016478637487000722 0 -0.02262783820727598 0 0
          0.08019010881161617 0.024042026088316355 0 0.013780389576033666 0 0
          0.03692941076329509 -0.0006791616073157161 0 -0.009689053343920714 0 0
          0.04183287804119767 0.007310245628339249 0 -0.001415604747181109 0 0
          0.0009623807386605716 -0.008203316803829384 0 -0.02467689014532783 0 0
          -0.004288193351929044 -0.002703346966578932 0 -0.008557179324141365 0 0
          -0.004859820169483746 -0.021225273921804913 0 -0.012525598712012047 0 0
          -0.000009542561374344303 -0.000010401032969959598 0 -0.000018640947600976047 0 0
          -0.000008949730867816072 4.411727071284554e-7 0 -0.000022721469296077972 0 0
          -0.000007317974256229375 -0.000007317974256229466 0 -0.000007317974256229317 0 0
          0.028104211441004508 -0.09801330467771792 0 -0.02248336915289615 0 0
          0.013453073526670523 0.0010810382123170575 0 -0.0015997605991166606 0 0
          <InformationKey name="L2_NORM_RANGE" location="vtkDataArray" length="2">
            <Value index="0">
              1.1777299308e-05
            </Value>
            <Value index="1">
              0.10441243452
            </Value>
          </InformationKey>
        </DataArray>
        <DataArray type="Float64" Name="Strain" NumberOfComponents="6" format="ascii" RangeMin="6.119725446092119e-14" RangeMax="5.598677956629163e-13">
          -1.7508668673441902e-13 5.0346974814678174e-14 0 4.9988941913316e-15 0 0
          -4.9276615981570906e-14 2.5508849905807536e-14 0 4.224496846626743e-14 0 0
          -1.7508668673441902e-13 8.692238809171458e-14 0 8.510078020369706e-15 0 0
          -4.979234184721446e-14 2.6608207381531378e-14 0 -2.3618423886159146e-14 0 0
          -4.979234184721446e-14 7.424614217503843e-14 0 -3.7610126583404184e-14 0 0
          -4.9276615981570906e-14 7.280258460891928e-14 0 5.351525581040969e-14 0 0
          7.088359445765509e-14 2.1122581377243936e-14 0 9.074362970991486e-15 0 0
          7.086573658562092e-14 1.0514159784126881e-13 0 5.610772233917146e-15 0 0
          2.909475131971681e-13 -1.5212034940708696e-14 0 1.733223394385638e-13 0 0
          2.940945913389832e-13 -1.493564744537611e-14 0 -1.6239452862641117e-13 0 0
          7.572464531777955e-14 -2.744532349439851e-13 0 -2.79679861718603e-13 0 0
          2.9209371203847264e-14 -5.011899779302782e-14 0 -1.9185997950008984e-13 0 0
          -3.262742296124954e-13 1.1329818787666676e-13 0 -1.674763692691121e-14 0 0
          -1.7179387869336834e-13 4.9584087262080764e-14 0 -3.7914424442346695e-14 0 0
          -2.9208903282908786e-13 1.043193770452579e-13 0 -6.326628792190237e-14 0 0
          -1.7179387869336834e-13 9.29593403479227e-14 0 -6.810433744420627e-14 0 0
          -5.896925732823725e-14 3.14348156983263e-14 0 -1.095286147734587e-13 0 0
          -1.5101210319179835e-13 8.508491189282973e-14 0 -1.49312345582009e-13 0 0
          -1.5101210319179835e-13 4.388004598433543e-14 0 -8.649947705362143e-14 0 0
          -7.427989011357176e-14 2.951193625156457e-14 0 -2.012661992415249e-13 0 0
          1.0268659727729916e-13 1.7232297245955498e-14 0 -1.0323743256967155e-13 0 0
          -2.1463962445768912e-13 7.425836261661852e-14 0 -1.0238089850383475e-13 0 0
          -1.0861989113726432e-13 4.9997902187114803e-14 0 -2.0799447427510722e-13 0 0
          -5.896925732823725e-14 6.909534444175636e-14 0 -9.973481337515908e-14 0 0
          -1.0861989113726432e-13 3.168546949432548e-14 0 -1.1490879103430165e-13 0 0
          1.8227763135499413e-14 2.6709385514215457e-14 0 -1.2857972670423358e-13 0 0
          -1.12187093349039e-13 2.665968194245127e-14 0 -1.0414434647985908e-13 0 0
          -7.391386302052606e-14 1.0422514496834644e-13 0 -1.804750793967296e-13 0 0
          2.2291792840119864e-14 1.1303074278878442e-13 0 -2.2540506939818405e-14 0 0
          -3.6795959804329957e-14 7.91453113482823e-15 0 -9.308480893432073e-14 0 0
          -1.3597024809139142e-14 1.4475280556451214e-14 0 -2.901461721168309e-13 0 0
          9.451616086583775e-14 3.6992195139846476e-14 0 -1.2888702646108669e-13 0 0
          -1.9618144749202888e-14 9.909311781435342e-14 0 -1.974641749665836e-13 0 0
          9.622224644367834e-14 1.6587597051178524e-13 0 -5.848175198462941e-14 0 0
          2.4610234162027127e-13 -1.1349202014536976e-14 0 -2.451349139121564e-13 0 0
          3.040729207713385e-13 -6.252731320204592e-17 0 1.4928755374036473e-13 0 0
          1.5472149685620752e-13 -4.8991603484601e-14 0 -1.0496474455914104e-13 0 0
          1.9399819769224526e-13 -2.56428209799425e-14 0 -1.8012813448851337e-14 0 0
          1.4781489322272946e-14 -3.666698428700024e-14 0 -2.7703037886976487e-13 0 0
          -3.655222799770148e-14 -1.4894342656741813e-14 0 -2.3387807216829117e-13 0 0
          1.0356705516833316e-14 -1.35780310590081e-13 0 -2.2369726479064849e-13 0 0
          -2.6759381180651756e-14 -3.1409435656901284e-14 0 -2.019435990105738e-13 0 0
          -3.7842011166477536e-14 1.3025383197805317e-14 0 -2.4614925070751133e-13 0 0
          -2.1344091580668887e-14 -2.1344091580669395e-14 0 -7.927805444248428e-14 0 0
          2.396175118513329e-13 -4.4351903379174695e-13 0 -2.435698324897083e-13 0 0
          1.1889389934306326e-13 -2.6759389867378623e-14 0 -3.766726933607778e-14 0 0
          <InformationKey name="L2_NORM_RANGE" location="vtkDataArray" length="2">
            <Value index="0">
              6.1197254461e-14
            </Value>
            <Value index="1">
              5.5986779566e-13
            </Value>
          </InformationKey>
        </DataArray>
      </CellData>
      <Points>
        <DataArray type="Float32" Name="Points" NumberOfComponents="3" format="ascii" RangeMin="0" RangeMax="128.28654354956544">
          100 0 0 100 45.35898208618164 0
          89.30555725097656 23.870376586914062 0 75 0 0
          90 62.67949295043945 0 80 45.35898208618164 0
          70 28.038475036621094 0 57 13.358983993530273 0
          80 80 0 70 62.67949295043945 0
          60 45.35898208618164 0 50 0 0
          48.827545166015625 28.876956939697266 0 41.327545166015625 13.757295608520508 0
          60 80 0 50 62.67949295043945 0
          38.48822784423828 45.76527404785156 0 25 0 0
          24.63772964477539 27.38901710510254 0 40 80 0
          30 62.67949295043945 0 17.464101791381836 47.607696533203125 0
          20 80 0 0 0 0
          0 20 0 0 40 0
          0 60 0 0 80 0
          110 62.67949295043945 0 100 80 0
          120 45.35898208618164 0 110.71759033203125 23.771137237548828 0
          125 0 0
          <InformationKey name="L2_NORM_RANGE" location="vtkDataArray" length="2">
            <Value index="0">
              0
            </Value>
            <Value index="1">
              128.28654355
            </Value>
          </InformationKey>
        </DataArray>
      </Points>
      <Cells>
        <DataArray type="Int64" Name="connectivity" format="ascii" RangeMin="0" RangeMax="32">
          28 29 4 30 28 1
          1 28 4 4 5 1
          1 5 2 31 30 1
          31 1 2 31 2 0
          0 32 31 3 0 2
          25 24 18 18 24 17
          4 29 8 4 8 9
          9 8 14 4 9 5
          5 9 10 10 9 15
          15 9 14 10 15 16
          2 5 6 15 14 19
          16 15 20 6 5 10
          15 19 20 6 10 12
          20 19 22 12 10 16
          6 12 7 20 22 26
          12 16 18 7 12 13
          13 12 18 7 13 11
          11 13 17 7 11 3
          17 13 18 7 3 6
          25 18 21 21 18 16
          25 21 26 26 21 20
          20 21 16 27 26 22
          24 23 17 2 6 3
        </DataArray>
        <DataArray type="Int64" Name="offsets" format="ascii" RangeMin="3" RangeMax="138">
          3 6 9 12 15 18
          21 24 27 30 33 36
          39 42 45 48 51 54
          57 60 63 66 69 72
          75 78 81 84 87 90
          93 96 99 102 105 108
          111 114 117 120 123 126
          129 132 135 138
        </DataArray>
        <DataArray type="UInt8" Name="types" format="ascii" RangeMin="5" RangeMax="5">
          5 5 5 5 5 5
          5 5 5 5 5 5
          5 5 5 5 5 5
          5 5 5 5 5 5
          5 5 5 5 5 5
          5 5 5 5 5 5
          5 5 5 5 5 5
          5 5 5 5
        </DataArray>
      </Cells>
    </Piece>
  </UnstructuredGrid>
</VTKFile>
