<?xml version="1.0"?>
<VTKFile type="UnstructuredGrid" version="0.1" byte_order="LittleEndian" header_type="UInt32" compressor="vtkZLibDataCompressor">
  <UnstructuredGrid>
    <Piece NumberOfPoints="88" NumberOfCells="239">
      <PointData>
        <DataArray type="Float64" Name="nsi_BC" NumberOfComponents="3" format="ascii" RangeMin="0" RangeMax="1">
          1 0 0 1 0 0
          1 0 0 1 0 0
          1 0 0 0 0 0
          1 0 0 0 0 0
          1 0 0 0 0 0
          1 0 0 0 0 0
          0 0 0 0 0 0
          1 0 0 0 0 0
          0 0 0 1 0 0
          1 0 0 1 0 0
          0 0 0 1 0 0
          1 0 0 0 0 0
          0 0 0 0 0 0
          1 0 0 1 0 0
          0 0 0 0 0 0
          0 0 0 0 0 0
          1 0 0 0 0 0
          0 0 0 0 0 0
          1 0 0 1 0 0
          0 0 0 1 0 0
          1 0 0 0 0 0
          0 0 0 0 0 0
          0 0 0 1 0 0
          0 0 0 0 0 0
          1 0 0 0 0 0
          0 0 0 0 0 0
          1 0 0 1 0 0
          0 0 0 0 0 0
          1 0 0 0 0 0
          0 0 0 1 0 0
          0 0 0 0 0 0
          1 0 0 0 0 0
          0 0 0 1 0 0
          0 0 0 0 0 0
          0 0 0 1 0 0
          1 0 0 0 0 0
          0 0 0 1 0 0
          0 0 0 1 0 0
          0 0 0 0 0 0
          1 0 0 1 0 0
          1 0 0 1 0 0
          0 0 0 0 0 0
          1 0 0 0 0 0
          1 0 0 0 0 0
          <InformationKey name="L2_NORM_RANGE" location="vtkDataArray" length="2">
            <Value index="0">
              0
            </Value>
            <Value index="1">
              1
            </Value>
          </InformationKey>
        </DataArray>
        <DataArray type="Float64" Name="nsi_FIXNO" NumberOfComponents="3" format="ascii" RangeMin="1.7320508075688772" RangeMax="1.7320508075688772">
          1 1 1 1 1 1
          1 1 1 1 1 1
          1 1 1 1 1 1
          1 1 1 1 1 1
          1 1 1 -1 -1 -1
          1 1 1 1 1 1
          1 1 1 1 1 1
          1 1 1 -1 -1 -1
          -1 -1 -1 1 1 1
          1 1 1 1 1 1
          1 1 1 1 1 1
          1 1 1 1 1 1
          1 1 1 -1 -1 -1
          1 1 1 1 1 1
          1 1 1 -1 -1 -1
          1 1 1 1 1 1
          1 1 1 1 1 1
          -1 -1 -1 1 1 1
          1 1 1 1 1 1
          1 1 1 1 1 1
          1 1 1 1 1 1
          1 1 1 1 1 1
          1 1 1 1 1 1
          1 1 1 1 1 1
          1 1 1 1 1 1
          1 1 1 1 1 1
          1 1 1 1 1 1
          1 1 1 1 1 1
          1 1 1 1 1 1
          1 1 1 1 1 1
          1 1 1 1 1 1
          1 1 1 1 1 1
          1 1 1 1 1 1
          1 1 1 1 1 1
          1 1 1 1 1 1
          1 1 1 -1 -1 -1
          1 1 1 1 1 1
          1 1 1 1 1 1
          1 1 1 1 1 1
          1 1 1 1 1 1
          1 1 1 1 1 1
          1 1 1 1 1 1
          1 1 1 1 1 1
          1 1 1 1 1 1
          <InformationKey name="L2_NORM_RANGE" location="vtkDataArray" length="2">
            <Value index="0">
              1.7320508076
            </Value>
            <Value index="1">
              1.7320508076
            </Value>
          </InformationKey>
        </DataArray>
        <DataArray type="Float64" Name="tem_BC" format="ascii" RangeMin="0" RangeMax="12">
          0 0 0 0 0 12
          0 12 0 0 0 12
          12 12 0 0 0 0
          0 0 12 0 0 12
          12 0 0 0 12 0
          12 12 0 12 0 12
          0 0 12 0 0 12
          12 12 12 0 12 12
          0 12 12 12 0 0
          12 12 0 12 12 0
          12 12 0 12 12 0
          12 12 12 0 0 0
          12 0 12 7.64356 12 12
          0 7.64356 8.129456 8.136573 12 12
          7.64356 12 8.129456 12
        </DataArray>
        <DataArray type="Float64" Name="tem_FIXNO" format="ascii" RangeMin="-1" RangeMax="1">
          -1 -1 -1 -1 -1 1
          -1 1 -1 -1 -1 1
          1 1 -1 -1 -1 -1
          -1 -1 1 -1 -1 1
          1 -1 -1 -1 1 -1
          1 1 -1 1 -1 1
          -1 -1 1 -1 -1 1
          1 1 1 -1 1 1
          -1 1 1 1 -1 -1
          1 1 -1 1 1 -1
          1 1 -1 1 1 -1
          1 1 1 -1 -1 -1
          1 -1 1 1 1 1
          -1 1 1 1 1 1
          1 1 1 1
        </DataArray>
        <DataArray type="Float64" Name="Velocity" NumberOfComponents="3" format="ascii" RangeMin="0" RangeMax="1.0000000000000002">
          1 0 0 1 0 0
          1 0 0 1 0 0
          1 0 0 0 0 0
          1 0 0 0 0 0
          1 0 0 0.8396649211114962 0.10684056759433538 0.0681677667226046
          1 0 0 0 0 0
          0 0 0 0 0 0
          1 0 0 0.8689147198177051 0.025631616472045524 0.0070232743554616145
          0.7992503715208876 0.09939238241892531 -0.017994996329871907 1 0 0
          1 0 0 1 0 0
          0 0 0 1 0 0
          1 0 0 0 0 0
          0 0 0 0.6084550002072915 0.12027906912219977 -0.1019340111008103
          1 0 0 1.0000000000000002 0 0
          0 0 0 0.6313381846815016 0.14475651629199884 -0.00402012184529961
          0 0 0 0 0 0
          1 0 0 0 0 0
          0.7767154120632365 -0.057981105252523354 0.09167971588675296 0 0 0
          1 0 0 1 0 0
          0 0 0 1 0 0
          1 0 0 0 0 0
          0 0 0 0 0 0
          0 0 0 1 0 0
          0 0 0 0 0 0
          1 0 0 0 0 0
          0 0 0 0 0 0
          1 0 0 1 0 0
          0 0 0 0 0 0
          1 0 0 0 0 0
          0 0 0 1 0 0
          0 0 0 0 0 0
          1 0 0 0 0 0
          0 0 0 1 0 0
          0 0 0 0 0 0
          0 0 0 1 0 0
          1 0 0 0.7733840138855672 0.03610166795805368 -0.13672573835991253
          0 0 0 1 0 0
          0 0 0 1 0 0
          0 0 0 0 0 0
          1 0 0 1 0 0
          1 0 0 1 0 0
          0 0 0 0 0 0
          1 0 0 0 0 0
          1 0 0 0 0 0
          <InformationKey name="L2_NORM_RANGE" location="vtkDataArray" length="2">
            <Value index="0">
              0
            </Value>
            <Value index="1">
              1
            </Value>
          </InformationKey>
        </DataArray>
        <DataArray type="Float64" Name="Pressure" format="ascii" RangeMin="0" RangeMax="9.576060107231648">
          0 7.809193316286243 7.484110343050795 8.296977948845697 8.249951663507428 8.217233206276106
          8.620000144062853 8.498765674766634 8.683855919825527 8.735223379636688 8.842491491442582 8.718997299884805
          8.726944848698963 8.776580844336204 8.689337997179704 9.001007239746702 8.838375426799436 8.954015769777559
          9.088854470909881 8.78188756164375 8.821346374796724 8.81956736432369 9.13936553894843 9.03095839790825
          9.148044463092587 9.194436227095 8.854390038817787 9.221137716420031 8.84368537630133 9.186043776356932
          9.050271427575847 8.874494447769958 9.038998227310394 9.401449454997625 9.222334995539665 9.401490289851141
          9.329664922496972 8.995307336029471 9.005263420500114 9.383738896367436 9.38883996926764 9.401443853317955
          9.401492628350756 9.403123986753682 9.401545948537516 9.251136482924673 9.40148738637702 9.175203178551453
          9.439533201547832 9.40154751194557 9.40154181187556 9.401564890476713 9.369304137820627 9.350597602602472
          9.510513782076767 9.401639000210613 9.47372246712673 9.401565465375498 9.401518514813201 9.348501383249157
          9.401632468332288 9.401677964517324 9.521831891127787 9.401728998990462 9.401703245486768 9.392457772377844
          9.401649125231103 9.401567043352888 9.401704001160375 9.40791470380866 9.57565110828961 9.496748596031374
          9.401690716279731 9.576060107231648 9.403053676022683 9.476227525381132 9.420660484474206 9.401703206026111
          9.397470761106456 9.464108985816857 9.444814071595921 9.401407830200704 9.418548193839797 9.386013969388046
          9.57106942722976 9.401663393992594 9.466703679701629 9.432608760303927
        </DataArray>
        <DataArray type="Float64" Name="DISSI_NS" format="ascii" RangeMin="0.00007027266948082318" RangeMax="5600.278528425899">
          19.038186377661965 2.46994739055583 2.4105577351457073 0.9906784901459039 0.09249929172592296 4957.5120613388135
          0.05654278232592669 3188.4078660131163 0.07754761096297665 0.09166700230876736 0.09592868062176078 5600.278528425899
          3238.4806645120116 3639.866611252052 0.009488438589490162 0.024365472445417823 0.0341797169447826 0.019430859870682462
          0.05618176983168962 0.039157457361678805 603.6092948040197 0.014565443786167689 0.07006907993843416 2519.3525755762043
          2716.9780251222705 0.06114516801504115 0.03943250931589024 0.016414709372656284 213.3892215611466 0.023945942363337722
          1539.978600583127 226.69004241799234 0.024417401048173287 1444.724645991269 0.0419527250107543 903.8846669562681
          0.07154805970035927 0.032900080730749987 690.8244313700372 0.024070531036997436 0.07498201174146715 1425.9592176590438
          607.6799919722421 1364.4303535456118 458.63899272535645 0.03076348183716941 0.000100311304129521 1264.0365489774545
          0.0742289688823737 0.0001421344541345961 46.372816616785734 329.5747792402831 0.27669007183479977 0.0163931397044709
          594.3010945464077 170.10341841531982 0.0018692558315432186 0.00014711005327947932 561.4493067194823 0.03924663074236047
          10.011353680069616 213.85866894404435 0.10801601383761332 186.13094375491752 12.3303002889255 0.18168846485990262
          3.5470007190824586 27.787187758263237 0.00007027266948082318 0.18671146301788774 0.010539293856830277 0.0935478772912433
          1.0983209054843428 0.07602677658663848 4.893098183372774 0.0003803938466267603 9.851712653209143 90.98840035865862
          0.07958917566311886 0.01325140573436857 0.06554388803462596 0.10387291605197589 40.73374867870094 43.944391260494264
          0.023710841734334225 33.66187305474196 0.0516591039437438 28.37759384126522
        </DataArray>
        <DataArray type="Float64" Name="Temperature" format="ascii" RangeMin="-1.8520275109969282" RangeMax="12.000000000000005">
          0.7210542788277235 -1.8520275109969282 -0.08964820254487249 -1.1335168078001465 -0.024771658429530958 12
          -0.6037981196791015 12 -0.6760995524333454 1.109398911806273 0.23384700411455142 11.999999999999998
          12 12 0.48937737966273587 1.383202729350067 0.8922415812131631 -0.400031672283556
          0.2406135030058038 -1.3699699464197155 12 -0.30605000588720577 -0.36114638968862967 11.999999999999996
          12.000000000000002 4.435826185003248 -0.42480779116861134 0.8909133773807069 12 3.3964671887257363
          12 11.999999999999998 -0.7175760297141301 12 2.47658556319043 12.000000000000002
          2.237513163078109 0.15546303363020691 12.000000000000002 0.7782822066440481 -1.7670458869386954 12.000000000000004
          12 11.999999999999998 12 -0.3409790710435566 12.000000000000002 12
          1.6340089663361748 11.999999999999998 11.999999999999998 12 2.9946400221804867 -0.45664362958578897
          12.000000000000005 12.000000000000002 5.145319753870514 12.000000000000002 12 0.6943932669785721
          12 12 4.350285194084226 12.000000000000002 12 5.565357478596409
          11.999999999999998 12 12.000000000000002 2.3280523633833474 4.295902068230221 6.547807527132239
          12.000000000000004 2.4988161559289273 12 7.643560000000001 12.000000000000002 12
          5.990250590379825 7.64356 8.129456000000001 8.136573000000002 12.000000000000002 12
          7.643559999999999 11.999999999999998 8.129455999999998 12
        </DataArray>
        <DataArray type="Float64" Name="DISSI_TEMPE" format="ascii" RangeMin="-0.42521980406650095" RangeMax="2.874733610604646">
          0.11781809098818401 0.664092460544273 0.17909562873799967 1.0701639882698428 0.6820478135993918 0.40956324980496184
          0.09610699916959183 0.46256197137578253 0.5815943918136062 0.9415761341615693 0.7260234745940563 0.2539103918529841
          0.43287748802931225 0.4645548603523168 0.06365331869602152 0.309297648587378 0.8279067201432739 0.2610513808894997
          1.6056218662549384 0.8710845840476577 0.3988535416576608 0.20028983259542557 0.7621276772515144 0.30751979530579954
          0.3266598391060746 0.17035310507279186 0.9619385488401487 0.17616171413776274 0.381553245152748 0.10294680507191838
          0.3776894685157281 0.4337095413290135 0.15640972115870896 0.14381156901940634 0.863233293889475 0.26449856883471545
          1.2027133417681624 0.4817864651903144 0.4783305061975948 0.6301848627554879 1.096600431750922 0.18877589855024166
          0.1656293049523276 0.22362994620268478 0.22450956293311353 0.7388167325587585 5.821416109482503e-32 0.3624720194110666
          0.8032799457562259 1.1489117322458572e-31 0.3292753810074652 0.2456027528866323 2.3867050419641855 0.6786744872410353
          0.17648855989978374 0.2359718639789254 -0.42521980406650095 5.464605396380698e-32 0.2539275068145686 0.9106158537440112
          0.45751150018917425 0.24129647485899708 0.9771312392304213 0.04920383460805913 0.3482814943472169 1.2827395748520496
          0.32396437355959273 0.34753590621453045 8.503713582615385e-32 2.874733610604646 0.2635614360652739 0.10463183308032938
          0.07211880197783709 0.6058062951445273 0.15361304839077508 1.3138202908271304 0.33515639212906195 0.0813902151730005
          1.1460189918662702 1.8535289587452373 1.9180276936341782 0.8712498632858471 0.08721016674982807 0.08031370131878114
          1.8565480283724127 0.05043428499564374 1.1869412710180967 0.015668751205261632
        </DataArray>
        <DataArray type="Float64" Name="CN2" format="ascii" RangeMin="-2.0691529114565293e-11" RangeMax="1.0487417283716616e-10">
          2.8194361754298317e-13 3.260550736254624e-12 8.638126790999267e-13 7.0497537117322815e-12 9.743980731060096e-12 1.306233843578214e-13
          1.6316248207529308e-12 1.7091058381982197e-13 8.89644579648577e-12 1.3270610467739554e-11 1.0208530974170628e-11 7.775640429206215e-14
          1.591146628081602e-13 1.6423583441929648e-13 1.9280897395277557e-12 6.752952421183315e-12 1.6263299253469703e-11 6.30847329071464e-12
          2.69814958780065e-11 1.690460205255558e-11 2.566578811505008e-13 5.3208412060716536e-12 1.2003332542840505e-11 1.229056096927324e-13
          1.2731014048053477e-13 2.6185652217867405e-12 1.8367430926738203e-11 4.419050232940988e-12 3.472356529915404e-13 2.1955983699189743e-12
          1.7786551717507883e-13 3.868254875237732e-13 3.5189838358255043e-12 6.918261288090589e-14 1.54767754758453e-11 1.487706121667563e-13
          1.8111047766435382e-11 9.689108750838716e-12 2.942615865407401e-13 1.3937453389058269e-11 1.7238150961784158e-11 9.120997586183755e-14
          1.0634335647457597e-13 1.096506000825266e-13 1.5832251613637297e-13 1.5305482148295095e-11 6.813603350955686e-42 1.8231293172416973e-13
          1.2054113954126314e-11 1.197250534283289e-41 4.984285755893562e-13 1.9336598115016748e-13 2.2647093618238686e-11 1.7371359475155954e-11
          1.1415987719582502e-13 2.316082582878859e-13 -2.0691529114565293e-11 5.6295824797018844e-42 1.6739316807542365e-13 1.7132084516022826e-11
          1.154434361462354e-12 2.1943548344973378e-13 1.2440251508061146e-11 4.686596771149763e-14 8.198555606292732e-13 1.349410340226708e-11
          1.1552473809320454e-12 6.239976870214922e-13 1.1206705830710167e-41 3.140154294535654e-11 7.294428690160301e-12 1.3541146446499253e-12
          3.801341778740802e-13 8.90594989356493e-12 4.920753852528627e-13 1.0487417283716616e-10 8.502407669828259e-13 9.841055593826618e-14
          1.5777647760092802e-11 4.5302520389952995e-11 2.7324410223935636e-11 1.0644802482977164e-11 1.3784170463226537e-13 1.23771271515366e-13
          3.737676986498926e-11 8.49463273970102e-14 1.8305732906377848e-11 2.7936647984050362e-14
        </DataArray>
        <DataArray type="Float64" Name="CT2" format="ascii" RangeMin="-19.882899548160776" RangeMax="104.44330847929345">
          0.254151458861799 2.8297960246666394 0.769369484381979 6.183417510442026 8.686760250108604 0.13835309237465157
          1.442287287064342 0.18102328902594095 7.855730074370665 12.028373791825247 9.135317711223458 0.08235685432868324
          0.16852863944798052 0.17395263114208886 1.731856688167457 6.1452679330580535 14.69426058494522 5.593081379143909
          24.14722814323312 14.77558382537217 0.2718424631175006 4.723966543736807 10.648164344230386 0.1301764959099
          0.13484127549350636 2.49068319111218 16.278648322560343 3.9926043753322924 0.3677788992839584 2.0572704059116327
          0.18838766500818463 0.4097107055015162 3.1054157148199937 0.07327479534221112 14.309702577532628 0.15757046021546128
          16.687271240661264 8.660535723247586 0.3116697602018632 12.57173525101499 14.979082056885257 0.09660508669566949
          0.11263361342487314 0.11613647817797143 0.16768736337757004 13.5814887074067 7.216631027871393e-30 0.19309769675897626
          11.009432478120544 1.2680684358069737e-29 0.5279108475482946 0.20480366485444257 21.097129819826684 15.388511977560135
          0.1209122212167433 0.2453079893136731 -19.882899548160776 5.96257478472734e-30 0.17729454851012932 15.434417039350734
          1.222719665245841 0.23241518927306307 11.818054797925925 0.04963811036290963 0.8683503789282982 13.045233548249826
          1.2235807747696714 0.6609074274442724 1.1869587427105907e-29 28.970973981636057 6.924161317493271 1.3276237254810592
          0.40261928238908906 8.236968519691034 0.5211818474197064 104.44330847929345 0.9005325422496786 0.10423158376094353
          15.3460389469709 45.116410748752195 27.40101330570452 10.675734512907392 0.14599505312422786 0.1310924379897153
          37.2231407913352 0.08997094022992382 18.357044388285438 0.02958909475605704
        </DataArray>
      </PointData>
      <CellData>
        <DataArray type="UInt8" Name="vtkGhostType" format="ascii" RangeMin="0" RangeMax="0">
          0 0 0 0 0 0
          0 0 0 0 0 0
          0 0 0 0 0 0
          0 0 0 0 0 0
          0 0 0 0 0 0
          0 0 0 0 0 0
          0 0 0 0 0 0
          0 0 0 0 0 0
          0 0 0 0 0 0
          0 0 0 0 0 0
          0 0 0 0 0 0
          0 0 0 0 0 0
          0 0 0 0 0 0
          0 0 0 0 0 0
          0 0 0 0 0 0
          0 0 0 0 0 0
          0 0 0 0 0 0
          0 0 0 0 0 0
          0 0 0 0 0 0
          0 0 0 0 0 0
          0 0 0 0 0 0
          0 0 0 0 0 0
          0 0 0 0 0 0
          0 0 0 0 0 0
          0 0 0 0 0 0
          0 0 0 0 0 0
          0 0 0 0 0 0
          0 0 0 0 0 0
          0 0 0 0 0 0
          0 0 0 0 0 0
          0 0 0 0 0 0
          0 0 0 0 0 0
          0 0 0 0 0 0
          0 0 0 0 0 0
          0 0 0 0 0 0
          0 0 0 0 0 0
          0 0 0 0 0 0
          0 0 0 0 0 0
          0 0 0 0 0 0
          0 0 0 0 0
        </DataArray>
      </CellData>
      <Points>
        <DataArray type="Float32" Name="Points" NumberOfComponents="3" format="ascii" RangeMin="0" RangeMax="24.49489742783178">
          20 10 10 20 6.5 10
          16 10 10 20 10 5
          16.37211036682129 5.206768989562988 10 20 3 10
          14.333330154418945 10 5.767949104309082 17.5 2.625 10
          12 10 10 14.425399780273438 5.033590793609619 7.012404918670654
          13.360549926757812 4.658843994140625 10 20 3 5
          16.25 2.4375 7.37460994720459 15 2.25 10
          20 10 0 12.214110374450684 6.010365009307861 4.925261974334717
          14.570380210876465 5.105739116668701 2.9404709339141846 12 10 3.0717968940734863
          10 10 6.535898208618164 20 6.5 0
          16.344310760498047 2.451646089553833 3.285098075866699 16 10 0
          10.119270324707031 5.519060134887695 10 13.631239891052246 2.0446860790252686 6.215021133422852
          12.5 1.875 10 10.550640106201172 4.647356033325195 7.100153923034668
          16.37211036682129 5.206768989562988 0 8 10 10
          20 3 0 11.739009857177734 4.367464065551758 2.512845993041992
          13.663330078125 2.049499034881592 2.55780291557312 17.5 2.625 0
          12 10 0 10.661359786987305 1.5992039442062378 6.873061180114746
          9.59029769897461 6.954894065856934 2.912667989730835 10 1.5 10
          8.36054801940918 3.908843994140625 10 13.360549926757812 4.658843994140625 0
          15 2.25 0 6.61377477645874 6.690732002258301 10
          8 10 3.0717968940734863 10.999679565429688 1.6499520540237427 3.4145760536193848
          9 3 5 8 4.732050895690918 5
          8 3 6.732050895690918 10.596699714660645 5.428274154663086 0
          9 1.350000023841858 5 12.5 1.875 0
          5.6666669845581055 10 5.767949104309082 7.9958391189575195 1.1993759870529175 6.734446048736572
          7.5 1.125 10 8 3 3.267949104309082
          5.86054801940918 3.533843994140625 10 8 10 0
          6 4.732050895690918 5 6 3 6.732050895690918
          4 10 10 7.995840072631836 1.1993759870529175 3.2655539512634277
          10 1.5 0 7.719629764556885 4.535800933837891 0
          6.004158973693848 0.9006239175796509 6.734445095062256 6 3 3.267949104309082
          3.305811882019043 6.3972368240356445 10 5 3 5
          5 0.75 10 3.3605480194091797 3.158843994140625 10
          6.004159927368164 0.9006239771842957 3.2655539512634277 7.5 1.125 0
          5 0.75 5 5.535371780395508 3.26835298538208 0
          4 10 0 3.0012240409851074 5.308693885803223 3.156306028366089
          3.720721960067749 0.5581083297729492 6.921747207641602 4.087935924530029 6.566143035888672 0
          2.5 0.375 10 0 10 10
          5 0.75 0 3.3971519470214844 0.5095726847648621 3.1724090576171875
          3.3605480194091797 3.158843994140625 0 0 10 5
          0 5 10 0 4.949490070343018 5.050509929656982
          2.5 0.375 0 0 0 10
          0 10 0 0 0 5
          0 5 0 0 0 0
          <InformationKey name="L2_NORM_RANGE" location="vtkDataArray" length="2">
            <Value index="0">
              0
            </Value>
            <Value index="1">
              24.494897428
            </Value>
          </InformationKey>
        </DataArray>
      </Points>
      <Cells>
        <DataArray type="Int64" Name="connectivity" format="ascii" RangeMin="0" RangeMax="87">
          16 20 19 11 53 40
          70 73 81 63 77 71
          69 59 61 51 62 55
          52 65 66 77 69 76
          55 68 72 63 79 62
          75 80 52 55 64 65
          10 8 2 9 32 37
          21 16 47 41 30 29
          15 9 23 16 54 48
          34 40 44 42 43 25
          43 39 44 25 41 15
          23 29 62 54 81 71
          77 69 78 61 32 17
          53 34 39 54 62 48
          59 73 54 34 19 3
          21 16 11 1 4 12
          79 56 75 62 45 17
          32 34 54 59 61 73
          23 33 24 25 18 22
          39 25 23 10 24 13
          24 10 23 25 39 48
          56 27 46 42 44 33
          4 11 12 9 64 60
          52 50 40 73 54 71
          23 15 41 25 44 35
          36 50 39 18 43 48
          10 9 23 25 43 54
          39 48 23 16 30 29
          85 81 65 72 60 50
          49 55 21 17 32 16
          49 35 44 50 81 62
          79 80 39 22 36 25
          26 38 20 16 81 85
          65 80 81 63 65 72
          8 9 22 25 20 38
          30 16 46 44 49 33
          20 16 19 26 70 40
          48 73 7 4 12 13
          61 59 69 73 45 51
          58 29 52 39 36 55
          69 73 78 71 36 35
          44 25 42 15 41 29
          19 21 3 14 77 63
          61 71 78 82 77 86
          40 73 53 34 18 48
          39 27 68 61 77 63
          17 40 53 34 23 13
          12 9 49 50 44 55
          17 37 32 16 48 54
          34 43 81 77 63 85
          18 8 22 25 44 35
          49 33 36 39 44 55
          61 54 43 59 86 73
          84 71 59 45 53 34
          11 9 3 16 10 13
          23 9 52 50 60 55
          11 1 3 9 77 72
          63 85 86 81 77 71
          6 17 21 16 4 1
          11 9 54 73 61 71
          39 62 56 48 43 15
          42 29 70 48 79 71
          67 59 69 51 4 2
          3 9 37 16 17 29
          43 34 18 25 43 18
          39 25 52 62 39 55
          86 84 79 71 15 34
          17 29 12 13 4 9
          32 17 45 37 3 1
          4 9 45 34 51 29
          79 62 81 71 69 78
          61 71 45 37 17 29
          48 73 40 71 57 58
          67 51 10 2 4 9
          6 8 18 15 31 26
          20 19 67 61 57 51
          54 73 40 34 62 48
          54 71 18 27 39 22
          11 20 12 9 41 58
          57 51 56 62 79 48
          46 41 57 51 41 42
          46 33 47 37 30 38
          46 42 41 51 3 2
          4 1 43 51 59 34
          23 20 30 16 77 86
          85 81 8 15 6 9
          0 2 3 1 24 22
          10 25 41 33 23 25
          87 85 77 86 69 61
          67 51 52 60 64 55
          59 51 45 34 41 51
          42 29 39 55 62 54
          12 20 23 9 15 34
          43 25 15 16 23 29
          22 9 10 25 44 39
          43 54 44 55 39 54
          23 9 15 25 84 70
          79 71 35 33 44 25
          44 33 42 25 61 73
          69 71 84 73 70 71
          17 15 18 34 36 22
          35 25 36 50 55 44
          79 81 86 71 2 8
          6 9 18 17 6 15
          27 22 18 8 4 13
          10 9 42 51 43 29
          22 8 10 9 31 11
          28 19 15 9 8 25
          43 59 54 34 78 73
          86 71 86 77 78 71
          41 15 42 25 18 40
          17 34 54 63 81 71
          70 73 48 71 3 2
          6 9 17 34 45 29
          74 65 64 72 64 55
          60 72 64 65 55 72
          57 61 67 66 69 76
          67 66 67 61 69 66
          21 26 19 16 77 86
          82 87 24 33 35 25
          20 26 31 38 35 22
          24 25 55 68 60 72
          17 16 15 29 76 82
          77 78 77 66 69 61
          77 72 68 63 61 78
          77 71 48 40 54 71
          30 16 37 29 58 51
          41 29 61 63 54 71
          67 58 59 51 59 58
          45 51 37 26 21 16
          23 9 20 16 50 36
          55 52 43 48 18 34
          85 65 80 83 42 15
          43 25 61 59 43 51
          30 38 37 16 45 58
          47 29 43 34 15 29
          62 54 55 63 81 54
          62 63 55 72 65 63
          31 11 19 20 42 33
          41 25 3 9 6 16
          55 65 62 63 62 65
          81 63 48 40 18 34
          74 85 65 72 79 48
          62 71 11 5 1 12
          53 73 59 34 44 39
          36 25 62 80 81 65
          30 41 23 29 53 45
          32 34 3 6 21 16
          12 7 1 4 85 74
          65 83 18 15 8 25
          18 34 15 25 68 61
          66 77 6 15 17 16
          63 72 81 85 47 58
          41 29 47 37 45 29
          20 9 11 16 5 7
          1 12 69 77 78 76
          30 37 47 29 37 38
          26 16 11 3 19 16
          51 34 43 29 6 9
          15 16
        </DataArray>
        <DataArray type="Int64" Name="offsets" format="ascii" RangeMin="4" RangeMax="956">
          4 8 12 16 20 24
          28 32 36 40 44 48
          52 56 60 64 68 72
          76 80 84 88 92 96
          100 104 108 112 116 120
          124 128 132 136 140 144
          148 152 156 160 164 168
          172 176 180 184 188 192
          196 200 204 208 212 216
          220 224 228 232 236 240
          244 248 252 256 260 264
          268 272 276 280 284 288
          292 296 300 304 308 312
          316 320 324 328 332 336
          340 344 348 352 356 360
          364 368 372 376 380 384
          388 392 396 400 404 408
          412 416 420 424 428 432
          436 440 444 448 452 456
          460 464 468 472 476 480
          484 488 492 496 500 504
          508 512 516 520 524 528
          532 536 540 544 548 552
          556 560 564 568 572 576
          580 584 588 592 596 600
          604 608 612 616 620 624
          628 632 636 640 644 648
          652 656 660 664 668 672
          676 680 684 688 692 696
          700 704 708 712 716 720
          724 728 732 736 740 744
          748 752 756 760 764 768
          772 776 780 784 788 792
          796 800 804 808 812 816
          820 824 828 832 836 840
          844 848 852 856 860 864
          868 872 876 880 884 888
          892 896 900 904 908 912
          916 920 924 928 932 936
          940 944 948 952 956
        </DataArray>
        <DataArray type="UInt8" Name="types" format="ascii" RangeMin="10" RangeMax="10">
          10 10 10 10 10 10
          10 10 10 10 10 10
          10 10 10 10 10 10
          10 10 10 10 10 10
          10 10 10 10 10 10
          10 10 10 10 10 10
          10 10 10 10 10 10
          10 10 10 10 10 10
          10 10 10 10 10 10
          10 10 10 10 10 10
          10 10 10 10 10 10
          10 10 10 10 10 10
          10 10 10 10 10 10
          10 10 10 10 10 10
          10 10 10 10 10 10
          10 10 10 10 10 10
          10 10 10 10 10 10
          10 10 10 10 10 10
          10 10 10 10 10 10
          10 10 10 10 10 10
          10 10 10 10 10 10
          10 10 10 10 10 10
          10 10 10 10 10 10
          10 10 10 10 10 10
          10 10 10 10 10 10
          10 10 10 10 10 10
          10 10 10 10 10 10
          10 10 10 10 10 10
          10 10 10 10 10 10
          10 10 10 10 10 10
          10 10 10 10 10 10
          10 10 10 10 10 10
          10 10 10 10 10 10
          10 10 10 10 10 10
          10 10 10 10 10 10
          10 10 10 10 10 10
          10 10 10 10 10 10
          10 10 10 10 10 10
          10 10 10 10 10 10
          10 10 10 10 10
        </DataArray>
      </Cells>
    </Piece>
  </UnstructuredGrid>
</VTKFile>
