<?xml version="1.0"?>
<VTKFile type="UnstructuredGrid" version="0.1" byte_order="LittleEndian" header_type="UInt32" compressor="vtkZLibDataCompressor">
  <UnstructuredGrid>
    <Piece NumberOfPoints="88" NumberOfCells="239">
      <PointData>
        <DataArray type="Float64" Name="nsi_BC" NumberOfComponents="3" format="ascii" RangeMin="0" RangeMax="1">
          1 0 0 1 0 0
          1 0 0 1 0 0
          1 0 0 0 0 0
          1 0 0 0 0 0
          1 0 0 0 0 0
          1 0 0 0 0 0
          0 0 0 0 0 0
          1 0 0 0 0 0
          0 0 0 1 0 0
          1 0 0 1 0 0
          0 0 0 1 0 0
          1 0 0 0 0 0
          0 0 0 0 0 0
          1 0 0 1 0 0
          0 0 0 0 0 0
          0 0 0 0 0 0
          1 0 0 0 0 0
          0 0 0 0 0 0
          1 0 0 1 0 0
          0 0 0 1 0 0
          1 0 0 0 0 0
          0 0 0 0 0 0
          0 0 0 1 0 0
          0 0 0 0 0 0
          1 0 0 0 0 0
          0 0 0 0 0 0
          1 0 0 1 0 0
          0 0 0 0 0 0
          1 0 0 0 0 0
          0 0 0 1 0 0
          0 0 0 0 0 0
          1 0 0 0 0 0
          0 0 0 1 0 0
          0 0 0 0 0 0
          0 0 0 1 0 0
          1 0 0 0 0 0
          0 0 0 1 0 0
          0 0 0 1 0 0
          0 0 0 0 0 0
          1 0 0 1 0 0
          1 0 0 1 0 0
          0 0 0 0 0 0
          1 0 0 0 0 0
          1 0 0 0 0 0
          <InformationKey name="L2_NORM_RANGE" location="vtkDataArray" length="2">
            <Value index="0">
              0
            </Value>
            <Value index="1">
              1
            </Value>
          </InformationKey>
        </DataArray>
        <DataArray type="Float64" Name="nsi_FIXNO" NumberOfComponents="3" format="ascii" RangeMin="1.7320508075688772" RangeMax="1.7320508075688772">
          1 1 1 1 1 1
          1 1 1 1 1 1
          1 1 1 1 1 1
          1 1 1 1 1 1
          1 1 1 -1 -1 -1
          1 1 1 1 1 1
          1 1 1 1 1 1
          1 1 1 -1 -1 -1
          -1 -1 -1 1 1 1
          1 1 1 1 1 1
          1 1 1 1 1 1
          1 1 1 1 1 1
          1 1 1 -1 -1 -1
          1 1 1 1 1 1
          1 1 1 -1 -1 -1
          1 1 1 1 1 1
          1 1 1 1 1 1
          -1 -1 -1 1 1 1
          1 1 1 1 1 1
          1 1 1 1 1 1
          1 1 1 1 1 1
          1 1 1 1 1 1
          1 1 1 1 1 1
          1 1 1 1 1 1
          1 1 1 1 1 1
          1 1 1 1 1 1
          1 1 1 1 1 1
          1 1 1 1 1 1
          1 1 1 1 1 1
          1 1 1 1 1 1
          1 1 1 1 1 1
          1 1 1 1 1 1
          1 1 1 1 1 1
          1 1 1 1 1 1
          1 1 1 1 1 1
          1 1 1 -1 -1 -1
          1 1 1 1 1 1
          1 1 1 1 1 1
          1 1 1 1 1 1
          1 1 1 1 1 1
          1 1 1 1 1 1
          1 1 1 1 1 1
          1 1 1 1 1 1
          1 1 1 1 1 1
          <InformationKey name="L2_NORM_RANGE" location="vtkDataArray" length="2">
            <Value index="0">
              1.7320508076
            </Value>
            <Value index="1">
              1.7320508076
            </Value>
          </InformationKey>
        </DataArray>
        <DataArray type="Float64" Name="tem_BC" format="ascii" RangeMin="0" RangeMax="12">
          0 0 0 0 0 12
          0 12 0 0 0 12
          12 12 0 0 0 0
          0 0 12 0 0 12
          12 0 0 0 12 0
          12 12 0 12 0 12
          0 0 12 0 0 12
          12 12 12 0 12 12
          0 12 12 12 0 0
          12 12 0 12 12 0
          12 12 0 12 12 0
          12 12 12 0 0 0
          12 0 12 7.64356 12 12
          0 7.64356 8.129456 8.136573 12 12
          7.64356 12 8.129456 12
        </DataArray>
        <DataArray type="Float64" Name="tem_FIXNO" format="ascii" RangeMin="-1" RangeMax="1">
          -1 -1 -1 -1 -1 1
          -1 1 -1 -1 -1 1
          1 1 -1 -1 -1 -1
          -1 -1 1 -1 -1 1
          1 -1 -1 -1 1 -1
          1 1 -1 1 -1 1
          -1 -1 1 -1 -1 1
          1 1 1 -1 1 1
          -1 1 1 1 -1 -1
          1 1 -1 1 1 -1
          1 1 -1 1 1 -1
          1 1 1 -1 -1 -1
          1 -1 1 1 1 1
          -1 1 1 1 1 1
          1 1 1 1
        </DataArray>
        <DataArray type="Float64" Name="Velocity" NumberOfComponents="3" format="ascii" RangeMin="0" RangeMax="1.0000000000000002">
          1 0 0 1 0 0
          1 0 0 1 0 0
          1 0 0 0 0 0
          1 0 0 0 0 0
          1 0 0 0.7581971273167014 0.10906281064051446 0.07081948174770188
          1 0 0 0 0 0
          0 0 0 0 0 0
          1 0 0 0.7491276000196548 0.0366268369731109 -0.0032282988686012787
          0.7210248213633654 0.10426400935101507 -0.012729136788202422 1 0 0
          1 0 0 1 0 0
          0 0 0 1 0 0
          1 0 0 0 0 0
          0 0 0 0.5730364127148049 0.06043279911416616 -0.07480203733444607
          1 0 0 1.0000000000000002 0 0
          0 0 0 0.5353565739403683 0.10960665992372064 -0.036634912110262645
          0 0 0 0 0 0
          1 0 0 0 0 0
          0.6971557763378375 -0.06822546170418789 0.06333614182150925 0 0 0
          1 0 0 1 0 0
          0 0 0 1 0 0
          1 0 0 0 0 0
          0 0 0 0 0 0
          0 0 0 1 0 0
          0 0 0 0 0 0
          1 0 0 0 0 0
          0 0 0 0 0 0
          1.0000000000000002 0 0 1 0 0
          0 0 0 0 0 0
          1 0 0 0 0 0
          0 0 0 1 0 0
          0 0 0 0 0 0
          1 0 0 0 0 0
          0 0 0 1 0 0
          0 0 0 0 0 0
          0 0 0 1 0 0
          1 0 0 0.7739095216130152 0.015342949216944367 -0.12764537164306444
          0 0 0 1 0 0
          0 0 0 1 0 0
          0 0 0 0 0 0
          1 0 0 1 0 0
          1 0 0 1 0 0
          0 0 0 0 0 0
          1 0 0 0 0 0
          1 0 0 0 0 0
          <InformationKey name="L2_NORM_RANGE" location="vtkDataArray" length="2">
            <Value index="0">
              0
            </Value>
            <Value index="1">
              1
            </Value>
          </InformationKey>
        </DataArray>
        <DataArray type="Float64" Name="Pressure" format="ascii" RangeMin="0" RangeMax="10.01336986738762">
          0 7.816747913717802 7.537709431672892 8.19781182588134 8.359376290779945 8.273154190107224
          8.695135545492331 8.608226148297058 8.934804569094384 8.893214326245879 9.10314956736863 8.741802929724006
          8.860262154440075 8.987071699485647 8.695682048658679 9.249762621111763 8.980948853042666 9.152772966217558
          9.419757307262246 8.785977163245198 8.949273069704487 8.896382515041541 9.518518635463158 9.306151483374126
          9.490122701576244 9.554476679740144 8.966605935435723 9.583930764561902 8.90700069883271 9.528526786516313
          9.345879622957446 8.980595692174758 9.277367559963901 9.79999098703946 9.624627031174102 9.80004473596009
          9.73492330610971 9.249593632472111 9.233580953636839 9.786316299859752 9.796232098743104 9.79995973930033
          9.800034972760162 9.816733745849257 9.800101921361888 9.638157114407166 9.800027044996616 9.518125838351384
          9.8237912179063 9.800102464341988 9.80009746461343 9.800125257362197 9.769240115195009 9.78996698353421
          9.929314883495946 9.800201164917981 9.86724469131733 9.800122208814981 9.80006997557914 9.77017509475354
          9.800194650637824 9.800245810882839 9.927034060605617 9.800300100785696 9.800269144811413 9.792507715944655
          9.800213895682704 9.800122918689981 9.800273510808374 9.814105979060926 9.95250969404347 9.902232915728131
          9.800258242357565 10.01336986738762 9.802554731851028 9.848151377809984 9.822906072771945 9.80027427347489
          9.800933181198797 9.798002067921276 9.84627818282485 9.796550033681227 9.818108369359898 9.785410265710015
          9.905377624817634 9.80023047936618 9.86059590911567 9.830068782962691
        </DataArray>
        <DataArray type="Float64" Name="DISSI_NS" format="ascii" RangeMin="-0.005776266869809353" RangeMax="7430.482862128745">
          19.028914918132163 2.469030011573305 2.4302074617196165 0.9965939582204821 0.10699786997707601 5981.396834275667
          0.07554673699141344 4278.4238147610295 0.1009303002183273 0.08239001976617484 0.12196860077203334 7430.482862128745
          4487.409580505832 5946.969364017378 0.015697822606442716 -0.005776266869809353 0.029081705784502844 0.03929712845299514
          0.0645864336682032 0.0432118796168859 1549.301057021182 0.026871392553869368 0.07971798302321431 5033.805998337172
          4512.588158303018 0.0540458272060629 0.05001952055708702 0.023602263504981028 597.3021825550562 0.0011051468544617646
          3530.3181121231014 682.3350989287235 0.05134941760137351 2322.5556456738464 0.014209606753696577 1254.4671541291302
          0.06859209431712238 0.05558411275089114 2067.9897441877706 0.022646326135976738 0.07484338131388028 2515.9517873547143
          1083.997564145503 2014.7970375788957 630.8334861700822 0.03520986110272762 0.00015974233750992177 2366.7410312825177
          0.0741644602356938 0.00017262575182217096 38.57821129551964 502.5963533348032 0.27673490278588936 0.02596219269888259
          718.9380160217793 194.8304313054188 0.002470077012858665 0.0002133824308806479 874.2060208020366 0.040102519229029895
          9.177232785467721 278.9862891809916 0.10888565114646333 225.97660590023418 11.331544065635844 0.18161220018801313
          4.719040975321824 13.639449804443739 0.00008374202975355585 0.18466020961336246 0.010826484421769417 0.09658311193599091
          0.7887552470883253 0.07465934108371995 4.604564737003125 0.0006485457408758154 10.46011646173853 100.05499410125657
          0.08018464555032301 0.013079011369762517 0.06560969194065051 0.10436239052683703 31.108811641436706 46.09870756012584
          0.023069607574049827 34.772921815900574 0.05171349786302002 24.46411435953382
        </DataArray>
        <DataArray type="Float64" Name="Temperature" format="ascii" RangeMin="-1.9809700804222337" RangeMax="12.000000000000004">
          0.7137353244629517 -1.4152171912735256 0.056501343811244324 -0.7962465323693296 -0.1339929981909743 12
          -0.40193574330994486 12 -0.4513172279190601 0.6005401415728998 0.004938672146780013 12
          12.000000000000002 11.999999999999998 0.527828118421644 0.4569531899518349 0.48217741267760056 -0.30009375605143473
          0.19446561232290188 -1.0367147267120436 12 -0.11932349678284246 -0.6897653957694163 12
          12.000000000000002 3.2427042984901084 -0.36086077114179665 0.38510207240495375 12 2.281288289406329
          11.999999999999998 11.999999999999998 -0.5187420584974295 12 2.0292471670159693 12
          1.658571400643014 -0.027345812984171002 12 0.14255573636675975 -1.9809700804222337 12
          12.000000000000002 12.000000000000002 12.000000000000004 -0.46076093641930854 12.000000000000002 11.999999999999998
          0.6554792184820143 11.999999999999998 12.000000000000002 12 1.6341113885398078 -0.4194616986518343
          12.000000000000002 12.000000000000002 3.871638396428135 12.000000000000002 12 0.24772808417769923
          12 12 3.328998540553405 12.000000000000004 12 4.256096576482369
          11.999999999999998 12 12.000000000000002 0.8993531642284635 3.151552628339139 5.1461631602750835
          12.000000000000004 1.2239300647366342 12 7.643560000000001 12.000000000000002 12
          4.651024011608551 7.643560000000002 8.129456000000001 8.136573000000002 12.000000000000002 12
          7.64356 11.999999999999998 8.129455999999998 12
        </DataArray>
        <DataArray type="Float64" Name="DISSI_TEMPE" format="ascii" RangeMin="-1.2040181223877295" RangeMax="3.9958839109179665">
          0.1538603335521625 0.5784941326135808 0.08470252403995948 1.1800109389192268 0.7155658072152566 0.38414015392949424
          0.05438416806374842 0.45825688428602646 0.4022177963379479 0.904752568581083 0.6429658268954057 0.25779076897273284
          0.45115048788105633 0.4858187991609141 0.0843682004825211 0.6416711264762517 0.788446446108101 0.20905575211690025
          1.9313607853408732 0.8311053039237836 0.41645252852797066 0.09429046174124076 0.7138320903972106 0.34404213286087965
          0.35358454245622906 -0.10663047441458315 1.0060320833875245 0.18846012656891178 0.3627693727501927 -0.11011101580818855
          0.4191175930486361 0.41975791134906904 0.11016363090568419 0.19275730864735485 0.8611333855262712 0.30661206607346214
          1.650770725477639 0.4394965616655928 0.49015655076744713 1.152540744842307 1.28626446467879 0.24148817248902985
          0.21388842008486958 0.26074523758894835 0.2675931938957353 1.0491294093305676 1.1836292205675434e-31 0.4006314549699639
          1.6471069531263405 3.2901664297954958e-31 0.40413186699230347 0.27973755234960773 3.3965253846751056 0.47431740630008046
          0.2239095657289431 0.3002161780699887 -1.2040181223877295 4.557853018105527e-32 0.2829300083725907 1.0533818977013432
          0.6061958164928613 0.30801902000500475 1.1030134077049585 0.07074522013552847 0.46965416441915686 1.801851472995959
          0.42674255386770416 0.4300124352499244 1.0768521064310425e-31 3.9958839109179665 -0.2867326951340577 -0.319167294101018
          0.10331194703295124 1.3516389568753049 0.22248416944977847 2.347417974889611 0.4447936439857338 0.11583916777425776
          1.413994312860242 2.9465746447056786 3.2969150528728597 1.467790676767373 0.13357366104953314 0.11955336445138404
          3.2532625320353534 0.07061837941558508 2.319528246366588 0.015668751205261632
        </DataArray>
        <DataArray type="Float64" Name="CN2" format="ascii" RangeMin="-5.437974060949344e-11" RangeMax="1.5685216950879925e-10">
          3.682933672362497e-13 2.8224124281893484e-12 4.0656182538045055e-13 7.719592431990238e-12 9.754118887799406e-12 1.150828294100502e-13
          8.358071427657486e-13 1.5351082444052166e-13 5.616635175376848e-12 1.3311866007335798e-11 8.373198624842689e-12 7.184349480237378e-14
          1.487474937972465e-13 1.4582667712538504e-13 2.1595307555932065e-12 2.2944498976291682e-11 1.6443146468023153e-11 3.989049778151928e-12
          3.1002757807977955e-11 1.553134290876169e-11 1.9572567524714236e-13 2.0367882104076467e-12 1.0821583480920545e-11 1.0917171733594348e-13
          1.163635523269033e-13 -1.7375900258226025e-12 1.7728755319171257e-11 4.219645001822152e-12 2.342572903709161e-13 -6.653708692538659e-12
          1.4969097763160166e-13 2.592950110478766e-13 1.9289208244589935e-12 7.915720217457242e-14 2.2293279830741904e-11 1.5461006695013256e-13
          2.5423511627441845e-11 7.441001208237175e-12 2.0922587335991993e-13 2.625674206704558e-11 2.0296160367127093e-11 9.655988002447095e-14
          1.1323468122756771e-13 1.1227275685009332e-13 1.696830423347313e-13 2.0814341777559426e-11 1.1863439626165582e-41 1.634910465736334e-13
          2.5079371647283264e-11 3.213544349092515e-41 6.504451703609025e-13 1.913430174205846e-13 3.287067423086136e-11 1.0409948240174007e-11
          1.3592883004826999e-13 2.8163294336326445e-13 -5.437974060949344e-11 4.1480347749947084e-42 1.6091975884616878e-13 1.9805108731326145e-11
          1.5746256138899496e-12 2.5636075458524885e-13 1.4213625957237823e-11 6.316515539339646e-14 1.1371474287379672e-12 1.9318276353322874e-11
          1.383618399921235e-12 9.787768519083162e-13 1.338576494017181e-41 4.473030723910292e-11 -7.996093875402129e-12 -4.169831047005369e-12
          6.080949815466949e-13 2.0365336457827482e-11 7.272848937075758e-13 1.5685216950879925e-10 1.1060673078732733e-12 1.3569925562198467e-13
          1.9795980906165296e-11 7.233342245531356e-11 4.695284378804285e-11 1.7905311306914894e-11 2.3097313589138505e-13 1.8132890975726892e-13
          6.60977253566956e-11 1.1766274573178762e-13 3.5760915511853734e-11 2.9353491794383624e-14
        </DataArray>
        <DataArray type="Float64" Name="CT2" format="ascii" RangeMin="-51.304092413777184" RangeMax="156.20659726201797">
          0.33195392768371956 2.4653541732679223 0.3628867006236615 6.80459737701333 8.681878144814803 0.12189278053320109
          0.7410082941286921 0.1625936375002698 4.975956525893051 11.976431618328412 7.467828929129545 0.07609407342430181
          0.15754767960389296 0.15445367015009756 1.9408328324693704 20.599304831592363 14.76799005520576 3.541856809304269
          27.727164423550786 13.641982396984941 0.20730481097062994 1.8132604461550774 9.553586730003714 0.11562949355639303
          0.12324628988341095 -1.6244877300408391 15.727310930127919 3.784345188505073 0.2481161671356865 -6.134510610116602
          0.15854544202768656 0.2746347381982437 1.7071914124662295 0.08383871784631194 20.478535275337467 0.1637540161754554
          23.228324662216224 6.63327097998897 0.22160242117783233 23.46458361112053 17.58065109642631 0.10227062502601497
          0.11993160724109053 0.11891275301781369 0.17971843732767992 18.437276731224756 1.2565067226531487e-29 0.17316121098424742
          22.58112997494343 3.403599798479217e-29 0.6889138006166551 0.2026594266297166 30.021752182329617 9.226657995244606
          0.1439675613047925 0.2982892791428176 -51.304092413777184 4.393357858175842e-30 0.1704368758099338 17.72628723438867
          1.66775212352343 0.27152244231184874 13.304944198523508 0.06690086893584483 1.2044006013128652 18.327073965728772
          1.4654483601509098 1.0366636749510998 1.4177425841309217e-29 40.41825608750212 -7.465700243438105 -4.006887357668771
          0.6440589347352084 18.489356643639518 0.7702979412637669 156.20659726201797 1.1714818096348347 0.14372478090501373
          18.887439006620752 72.03578475857803 47.08409651859265 17.957199271006758 0.2446332616883175 0.19205312110188907
          65.82560497014339 0.12462155586839042 35.860871879169366 0.031089497461863357
        </DataArray>
      </PointData>
      <CellData>
        <DataArray type="UInt8" Name="vtkGhostType" format="ascii" RangeMin="0" RangeMax="0">
          0 0 0 0 0 0
          0 0 0 0 0 0
          0 0 0 0 0 0
          0 0 0 0 0 0
          0 0 0 0 0 0
          0 0 0 0 0 0
          0 0 0 0 0 0
          0 0 0 0 0 0
          0 0 0 0 0 0
          0 0 0 0 0 0
          0 0 0 0 0 0
          0 0 0 0 0 0
          0 0 0 0 0 0
          0 0 0 0 0 0
          0 0 0 0 0 0
          0 0 0 0 0 0
          0 0 0 0 0 0
          0 0 0 0 0 0
          0 0 0 0 0 0
          0 0 0 0 0 0
          0 0 0 0 0 0
          0 0 0 0 0 0
          0 0 0 0 0 0
          0 0 0 0 0 0
          0 0 0 0 0 0
          0 0 0 0 0 0
          0 0 0 0 0 0
          0 0 0 0 0 0
          0 0 0 0 0 0
          0 0 0 0 0 0
          0 0 0 0 0 0
          0 0 0 0 0 0
          0 0 0 0 0 0
          0 0 0 0 0 0
          0 0 0 0 0 0
          0 0 0 0 0 0
          0 0 0 0 0 0
          0 0 0 0 0 0
          0 0 0 0 0 0
          0 0 0 0 0
        </DataArray>
      </CellData>
      <Points>
        <DataArray type="Float32" Name="Points" NumberOfComponents="3" format="ascii" RangeMin="0" RangeMax="24.49489742783178">
          20 10 10 20 6.5 10
          16 10 10 20 10 5
          16.37211036682129 5.206768989562988 10 20 3 10
          14.333330154418945 10 5.767949104309082 17.5 2.625 10
          12 10 10 14.425399780273438 5.033590793609619 7.012404918670654
          13.360549926757812 4.658843994140625 10 20 3 5
          16.25 2.4375 7.37460994720459 15 2.25 10
          20 10 0 12.214110374450684 6.010365009307861 4.925261974334717
          14.570380210876465 5.105739116668701 2.9404709339141846 12 10 3.0717968940734863
          10 10 6.535898208618164 20 6.5 0
          16.344310760498047 2.451646089553833 3.285098075866699 16 10 0
          10.119270324707031 5.519060134887695 10 13.631239891052246 2.0446860790252686 6.215021133422852
          12.5 1.875 10 10.550640106201172 4.647356033325195 7.100153923034668
          16.37211036682129 5.206768989562988 0 8 10 10
          20 3 0 11.739009857177734 4.367464065551758 2.512845993041992
          13.663330078125 2.049499034881592 2.55780291557312 17.5 2.625 0
          12 10 0 10.661359786987305 1.5992039442062378 6.873061180114746
          9.59029769897461 6.954894065856934 2.912667989730835 10 1.5 10
          8.36054801940918 3.908843994140625 10 13.360549926757812 4.658843994140625 0
          15 2.25 0 6.61377477645874 6.690732002258301 10
          8 10 3.0717968940734863 10.999679565429688 1.6499520540237427 3.4145760536193848
          9 3 5 8 4.732050895690918 5
          8 3 6.732050895690918 10.596699714660645 5.428274154663086 0
          9 1.350000023841858 5 12.5 1.875 0
          5.6666669845581055 10 5.767949104309082 7.9958391189575195 1.1993759870529175 6.734446048736572
          7.5 1.125 10 8 3 3.267949104309082
          5.86054801940918 3.533843994140625 10 8 10 0
          6 4.732050895690918 5 6 3 6.732050895690918
          4 10 10 7.995840072631836 1.1993759870529175 3.2655539512634277
          10 1.5 0 7.719629764556885 4.535800933837891 0
          6.004158973693848 0.9006239175796509 6.734445095062256 6 3 3.267949104309082
          3.305811882019043 6.3972368240356445 10 5 3 5
          5 0.75 10 3.3605480194091797 3.158843994140625 10
          6.004159927368164 0.9006239771842957 3.2655539512634277 7.5 1.125 0
          5 0.75 5 5.535371780395508 3.26835298538208 0
          4 10 0 3.0012240409851074 5.308693885803223 3.156306028366089
          3.720721960067749 0.5581083297729492 6.921747207641602 4.087935924530029 6.566143035888672 0
          2.5 0.375 10 0 10 10
          5 0.75 0 3.3971519470214844 0.5095726847648621 3.1724090576171875
          3.3605480194091797 3.158843994140625 0 0 10 5
          0 5 10 0 4.949490070343018 5.050509929656982
          2.5 0.375 0 0 0 10
          0 10 0 0 0 5
          0 5 0 0 0 0
          <InformationKey name="L2_NORM_RANGE" location="vtkDataArray" length="2">
            <Value index="0">
              0
            </Value>
            <Value index="1">
              24.494897428
            </Value>
          </InformationKey>
        </DataArray>
      </Points>
      <Cells>
        <DataArray type="Int64" Name="connectivity" format="ascii" RangeMin="0" RangeMax="87">
          16 20 19 11 53 40
          70 73 81 63 77 71
          69 59 61 51 62 55
          52 65 66 77 69 76
          55 68 72 63 79 62
          75 80 52 55 64 65
          10 8 2 9 32 37
          21 16 47 41 30 29
          15 9 23 16 54 48
          34 40 44 42 43 25
          43 39 44 25 41 15
          23 29 62 54 81 71
          77 69 78 61 32 17
          53 34 39 54 62 48
          59 73 54 34 19 3
          21 16 11 1 4 12
          79 56 75 62 45 17
          32 34 54 59 61 73
          23 33 24 25 18 22
          39 25 23 10 24 13
          24 10 23 25 39 48
          56 27 46 42 44 33
          4 11 12 9 64 60
          52 50 40 73 54 71
          23 15 41 25 44 35
          36 50 39 18 43 48
          10 9 23 25 43 54
          39 48 23 16 30 29
          85 81 65 72 60 50
          49 55 21 17 32 16
          49 35 44 50 81 62
          79 80 39 22 36 25
          26 38 20 16 81 85
          65 80 81 63 65 72
          8 9 22 25 20 38
          30 16 46 44 49 33
          20 16 19 26 70 40
          48 73 7 4 12 13
          61 59 69 73 45 51
          58 29 52 39 36 55
          69 73 78 71 36 35
          44 25 42 15 41 29
          19 21 3 14 77 63
          61 71 78 82 77 86
          40 73 53 34 18 48
          39 27 68 61 77 63
          17 40 53 34 23 13
          12 9 49 50 44 55
          17 37 32 16 48 54
          34 43 81 77 63 85
          18 8 22 25 44 35
          49 33 36 39 44 55
          61 54 43 59 86 73
          84 71 59 45 53 34
          11 9 3 16 10 13
          23 9 52 50 60 55
          11 1 3 9 77 72
          63 85 86 81 77 71
          6 17 21 16 4 1
          11 9 54 73 61 71
          39 62 56 48 43 15
          42 29 70 48 79 71
          67 59 69 51 4 2
          3 9 37 16 17 29
          43 34 18 25 43 18
          39 25 52 62 39 55
          86 84 79 71 15 34
          17 29 12 13 4 9
          32 17 45 37 3 1
          4 9 45 34 51 29
          79 62 81 71 69 78
          61 71 45 37 17 29
          48 73 40 71 57 58
          67 51 10 2 4 9
          6 8 18 15 31 26
          20 19 67 61 57 51
          54 73 40 34 62 48
          54 71 18 27 39 22
          11 20 12 9 41 58
          57 51 56 62 79 48
          46 41 57 51 41 42
          46 33 47 37 30 38
          46 42 41 51 3 2
          4 1 43 51 59 34
          23 20 30 16 77 86
          85 81 8 15 6 9
          0 2 3 1 24 22
          10 25 41 33 23 25
          87 85 77 86 69 61
          67 51 52 60 64 55
          59 51 45 34 41 51
          42 29 39 55 62 54
          12 20 23 9 15 34
          43 25 15 16 23 29
          22 9 10 25 44 39
          43 54 44 55 39 54
          23 9 15 25 84 70
          79 71 35 33 44 25
          44 33 42 25 61 73
          69 71 84 73 70 71
          17 15 18 34 36 22
          35 25 36 50 55 44
          79 81 86 71 2 8
          6 9 18 17 6 15
          27 22 18 8 4 13
          10 9 42 51 43 29
          22 8 10 9 31 11
          28 19 15 9 8 25
          43 59 54 34 78 73
          86 71 86 77 78 71
          41 15 42 25 18 40
          17 34 54 63 81 71
          70 73 48 71 3 2
          6 9 17 34 45 29
          74 65 64 72 64 55
          60 72 64 65 55 72
          57 61 67 66 69 76
          67 66 67 61 69 66
          21 26 19 16 77 86
          82 87 24 33 35 25
          20 26 31 38 35 22
          24 25 55 68 60 72
          17 16 15 29 76 82
          77 78 77 66 69 61
          77 72 68 63 61 78
          77 71 48 40 54 71
          30 16 37 29 58 51
          41 29 61 63 54 71
          67 58 59 51 59 58
          45 51 37 26 21 16
          23 9 20 16 50 36
          55 52 43 48 18 34
          85 65 80 83 42 15
          43 25 61 59 43 51
          30 38 37 16 45 58
          47 29 43 34 15 29
          62 54 55 63 81 54
          62 63 55 72 65 63
          31 11 19 20 42 33
          41 25 3 9 6 16
          55 65 62 63 62 65
          81 63 48 40 18 34
          74 85 65 72 79 48
          62 71 11 5 1 12
          53 73 59 34 44 39
          36 25 62 80 81 65
          30 41 23 29 53 45
          32 34 3 6 21 16
          12 7 1 4 85 74
          65 83 18 15 8 25
          18 34 15 25 68 61
          66 77 6 15 17 16
          63 72 81 85 47 58
          41 29 47 37 45 29
          20 9 11 16 5 7
          1 12 69 77 78 76
          30 37 47 29 37 38
          26 16 11 3 19 16
          51 34 43 29 6 9
          15 16
        </DataArray>
        <DataArray type="Int64" Name="offsets" format="ascii" RangeMin="4" RangeMax="956">
          4 8 12 16 20 24
          28 32 36 40 44 48
          52 56 60 64 68 72
          76 80 84 88 92 96
          100 104 108 112 116 120
          124 128 132 136 140 144
          148 152 156 160 164 168
          172 176 180 184 188 192
          196 200 204 208 212 216
          220 224 228 232 236 240
          244 248 252 256 260 264
          268 272 276 280 284 288
          292 296 300 304 308 312
          316 320 324 328 332 336
          340 344 348 352 356 360
          364 368 372 376 380 384
          388 392 396 400 404 408
          412 416 420 424 428 432
          436 440 444 448 452 456
          460 464 468 472 476 480
          484 488 492 496 500 504
          508 512 516 520 524 528
          532 536 540 544 548 552
          556 560 564 568 572 576
          580 584 588 592 596 600
          604 608 612 616 620 624
          628 632 636 640 644 648
          652 656 660 664 668 672
          676 680 684 688 692 696
          700 704 708 712 716 720
          724 728 732 736 740 744
          748 752 756 760 764 768
          772 776 780 784 788 792
          796 800 804 808 812 816
          820 824 828 832 836 840
          844 848 852 856 860 864
          868 872 876 880 884 888
          892 896 900 904 908 912
          916 920 924 928 932 936
          940 944 948 952 956
        </DataArray>
        <DataArray type="UInt8" Name="types" format="ascii" RangeMin="10" RangeMax="10">
          10 10 10 10 10 10
          10 10 10 10 10 10
          10 10 10 10 10 10
          10 10 10 10 10 10
          10 10 10 10 10 10
          10 10 10 10 10 10
          10 10 10 10 10 10
          10 10 10 10 10 10
          10 10 10 10 10 10
          10 10 10 10 10 10
          10 10 10 10 10 10
          10 10 10 10 10 10
          10 10 10 10 10 10
          10 10 10 10 10 10
          10 10 10 10 10 10
          10 10 10 10 10 10
          10 10 10 10 10 10
          10 10 10 10 10 10
          10 10 10 10 10 10
          10 10 10 10 10 10
          10 10 10 10 10 10
          10 10 10 10 10 10
          10 10 10 10 10 10
          10 10 10 10 10 10
          10 10 10 10 10 10
          10 10 10 10 10 10
          10 10 10 10 10 10
          10 10 10 10 10 10
          10 10 10 10 10 10
          10 10 10 10 10 10
          10 10 10 10 10 10
          10 10 10 10 10 10
          10 10 10 10 10 10
          10 10 10 10 10 10
          10 10 10 10 10 10
          10 10 10 10 10 10
          10 10 10 10 10 10
          10 10 10 10 10 10
          10 10 10 10 10 10
          10 10 10 10 10
        </DataArray>
      </Cells>
    </Piece>
  </UnstructuredGrid>
</VTKFile>
