<?xml version="1.0"?>
<VTKFile type="UnstructuredGrid" version="0.1" byte_order="LittleEndian" header_type="UInt32" compressor="vtkZLibDataCompressor">
  <UnstructuredGrid>
    <Piece NumberOfPoints="18" NumberOfCells="7">
      <PointData>
        <DataArray type="Float64" Name="nsi_BC" NumberOfComponents="3" format="ascii" RangeMin="0" RangeMax="20">
          0 0 0 0 0 0
          20 0 0 20 0 0
          0 0 0 20 0 0
          0 0 0 0 0 0
          0 0 0 5 0 0
          5 0 0 5 0 0
          5 0 0 20 0 0
          0 0 0 0 0 0
          0 0 0 5 0 0
          <InformationKey name="L2_NORM_RANGE" location="vtkDataArray" length="2">
            <Value index="0">
              0
            </Value>
            <Value index="1">
              20
            </Value>
          </InformationKey>
        </DataArray>
        <DataArray type="Float64" Name="nsi_FIXNO" NumberOfComponents="3" format="ascii" RangeMin="0" RangeMax="1.4142135623730951">
          -1 -1 0 1 1 0
          0 0 0 0 0 0
          1 1 0 0 0 0
          -1 -1 0 -1 -1 0
          -1 -1 0 1 1 0
          1 1 0 1 1 0
          1 1 0 0 0 0
          -1 -1 0 1 1 0
          -1 -1 0 1 1 0
          <InformationKey name="L2_NORM_RANGE" location="vtkDataArray" length="2">
            <Value index="0">
              0
            </Value>
            <Value index="1">
              1.4142135624
            </Value>
          </InformationKey>
        </DataArray>
      </PointData>
      <CellData>
        <DataArray type="UInt8" Name="vtkGhostType" format="ascii" RangeMin="0" RangeMax="1">
          0 1 0 1 0 1
          1 0 0 0 1 0
          0 0 0 1
        </DataArray>
      </CellData>
      <Points>
        <DataArray type="Float32" Name="Points" NumberOfComponents="3" format="ascii" RangeMin="0" RangeMax="0.800000011920929">
          0.1725911945104599 0.44086119532585144 0 0 0.4000000059604645 0
          0.375 0.375 0 0.25 0.25 0
          0 0.20000000298023224 0 0.125 0.125 0
          0.34225231409072876 0.13531960546970367 0 0.22378499805927277 0.08730106800794601 0
          0.49255239963531494 0.19817860424518585 0 0 0 0
          0.20000000298023224 0 0 0.4000000059604645 0 0
          0.6000000238418579 0 0 0.5 0.5 0
          0.23795579373836517 0.5793061256408691 0 0 0.6000000238418579 0
          0.6529573202133179 0.28239479660987854 0 0.800000011920929 0 0
          <InformationKey name="L2_NORM_RANGE" location="vtkDataArray" length="2">
            <Value index="0">
              0
            </Value>
            <Value index="1">
              0.80000001192
            </Value>
          </InformationKey>
        </DataArray>
      </Points>
      <Cells>
        <DataArray type="Int64" Name="connectivity" format="ascii" RangeMin="2" RangeMax="17">
          2 3 6 8 13 2
          8 16 5 9 10 7
          3 5 7 6 11 6
          7 10 6 11 12 8
          8 12 17 16
        </DataArray>
        <DataArray type="Int64" Name="offsets" format="ascii" RangeMin="4" RangeMax="28">
          4 8 12 16 20 24
          28
        </DataArray>
        <DataArray type="UInt8" Name="types" format="ascii" RangeMin="9" RangeMax="9">
          9 9 9 9 9 9
          9
        </DataArray>
      </Cells>
    </Piece>
  </UnstructuredGrid>
</VTKFile>
