<?xml version="1.0"?>
<VTKFile type="UnstructuredGrid" version="0.1" byte_order="LittleEndian" header_type="UInt32" compressor="vtkZLibDataCompressor">
  <UnstructuredGrid>
    <Piece NumberOfPoints="25" NumberOfCells="5">
      <PointData>
        <DataArray type="Float64" Name="nsi_BC" NumberOfComponents="3" format="ascii" RangeMin="0" RangeMax="20">
          5 0 0 5 0 0
          0 0 0 5 0 0
          0 0 0 0 0 0
          0 0 0 0 0 0
          5 0 0 20 0 0
          20 0 0 5 0 0
          0 0 0 20 0 0
          20 0 0 20 0 0
          0 0 0 0 0 0
          5 0 0 0 0 0
          0 0 0 0 0 0
          5 0 0 5 0 0
          0 0 0
          <InformationKey name="L2_NORM_RANGE" location="vtkDataArray" length="2">
            <Value index="0">
              0
            </Value>
            <Value index="1">
              20
            </Value>
          </InformationKey>
        </DataArray>
        <DataArray type="Float64" Name="nsi_FIXNO" NumberOfComponents="3" format="ascii" RangeMin="0" RangeMax="1.4142135623730951">
          1 1 0 1 1 0
          1 1 0 1 1 0
          1 1 0 -1 -1 0
          -1 -1 0 -1 -1 0
          1 1 0 0 0 0
          0 0 0 1 1 0
          -1 -1 0 0 0 0
          0 0 0 0 0 0
          1 1 0 -1 -1 0
          1 1 0 -1 -1 0
          -1 -1 0 -1 -1 0
          1 1 0 1 1 0
          -1 -1 0
          <InformationKey name="L2_NORM_RANGE" location="vtkDataArray" length="2">
            <Value index="0">
              0
            </Value>
            <Value index="1">
              1.4142135624
            </Value>
          </InformationKey>
        </DataArray>
        <DataArray type="Float64" Name="Velocity" NumberOfComponents="3" format="ascii" RangeMin="0" RangeMax="5.000000000000001">
          5 0 0 4.999999999999998 0 0
          0 0 0 4.999999999999999 0 0
          0 0 0 -0.062134001173555234 0.16319494848749733 0
          -0.32013264986278284 -0.06485829401568471 0 1.1184561504807964 0.05161632028254108 0
          4.999999999999999 0 0 -0.6362556501627836 0.11648244088680466 0
          -0.5945702483282636 0.08339000877022365 0 5.000000000000001 0 0
          0.18947531322331623 0.08639708965080128 0 -0.021257519240765646 -0.11738736951135084 0
          2.1599225889680276 -0.010910889128051271 0 -0.10685306049642962 -0.15806533381553725 0
          0 0 0 -0.11307706321874579 -0.30623222739211653 0
          4.999999999999999 0 0 1.475161286082479 -0.1238644014349792 0
          -0.5364747146715528 0.43785197021942157 0 -0.16881172232079988 -0.11142175618000215 0
          4.999999999999999 0 0 4.999999999999999 0 0
          0.9633539294574123 0.3188075316096857 0
          <InformationKey name="L2_NORM_RANGE" location="vtkDataArray" length="2">
            <Value index="0">
              0
            </Value>
            <Value index="1">
              5
            </Value>
          </InformationKey>
        </DataArray>
        <DataArray type="Float64" Name="Pressure" format="ascii" RangeMin="-0.22663831412284335" RangeMax="2.3047948290612923">
          0 -0.145372773237737 0.14537277323771108 0.46464106623907886 0.0893273145264221 0.0946480239606834
          0.10696959297461023 0.3639596151127622 0.38466262492984693 0.39603386206295854 0.5592079947119639 1.135326372957682
          0.6526526657801427 0.8344275019259448 1.3967597566947039 0.18486824728779422 -0.22663831412284335 -0.05424053291380067
          2.3047948290612923 0.4185075973379627 0.8119292686049773 0.9572792779034084 0.6392103640611023 1.0207248817359535
          1.5863752289378328
        </DataArray>
        <DataArray type="Float64" Name="stream" format="ascii" RangeMin="-1.1823011774715293" RangeMax="0.007408373604034568">
          -8.326672684688674e-17 0.007408373604034568 -0.5185750270555523 -0.01283908606635594 -0.5098341483181177 -0.5703653254567873
          -0.49906131270757653 -0.5654736380770805 -0.02873629231583899 -0.48735543947174265 -0.5878013946254307 -0.04345731800136726
          -0.4528092653861111 -0.6181725009606314 -0.4894098109007217 -0.43333357486844243 -0.5040798737121873 -0.4785251197839427
          -0.040665963235294145 -0.5308352736032185 -0.5163745180155869 -0.6088550933406257 -1.1727006372984317 -1.1823011774715293
          -0.569627662904039
        </DataArray>
      </PointData>
      <CellData>
        <DataArray type="UInt8" Name="vtkGhostType" format="ascii" RangeMin="0" RangeMax="0">
          0 0 0 0 0 0
          0 0 0 0 0 0
          0 0 0 0 0 0
          0 0 0 0 0 0
        </DataArray>
        <DataArray type="Float64" Name="NN-Viscosity" format="ascii" RangeMin="0.019840294126174066" RangeMax="0.055791659845870686">
          0.04844754897142498 0.055666854996923754 0.04275564805379115 0.05399565706743488 0.05572828691243266 0.055791659845870686
          0.05574059904023275 0.055708898447342836 0.019840294126174066 0.05568789817824717 0.032297958849518305 0.03781746873456944
          0.040994801176599566 0.054515633392441185 0.05571034074642142 0.04836504084597482 0.04855737633804565 0.055759473237566956
          0.05572828691243266 0.04831238240687186 0.044160894300903045 0.05054869628605311 0.055708231842272915 0.05546323170913381
        </DataArray>
      </CellData>
      <Points>
        <DataArray type="Float32" Name="Points" NumberOfComponents="3" format="ascii" RangeMin="0.4000000059604645" RangeMax="1.4142135623730951">
          0 1 0 0.20000000298023224 1 0
          0 0.800000011920929 0 0.4000000059604645 1 0
          0 0.6000000238418579 0 0.37005218863487244 0.758519172668457 0
          0.23795579373836517 0.5793061256408691 0 0.5576828122138977 0.8173171877861023 0
          0.6000000238418579 1 0 0.5 0.5 0
          0.625 0.625 0 0.800000011920929 1 0
          0.6529573202133179 0.28239479660987854 0 0.75 0.75 0
          0.875 0.875 0 0.375 0.375 0
          0 0.4000000059604645 0 0.1725911945104599 0.44086119532585144 0
          1 1 0 0.49255239963531494 0.19817860424518585 0
          0.808244526386261 0.42757150530815125 0 0.8697689175605774 0.6379501223564148 0
          0.6000000238418579 0 0 0.800000011920929 0 0
          0.8694148063659668 0.2091905027627945 0
          <InformationKey name="L2_NORM_RANGE" location="vtkDataArray" length="2">
            <Value index="0">
              0.40000000596
            </Value>
            <Value index="1">
              1.4142135624
            </Value>
          </InformationKey>
        </DataArray>
      </Points>
      <Cells>
        <DataArray type="Int64" Name="connectivity" format="ascii" RangeMin="9" RangeMax="24">
          9 15 19 12 10 9
          12 20 13 10 20 21
          19 22 23 12 20 12
          23 24
        </DataArray>
        <DataArray type="Int64" Name="offsets" format="ascii" RangeMin="4" RangeMax="20">
          4 8 12 16 20
        </DataArray>
        <DataArray type="UInt8" Name="types" format="ascii" RangeMin="9" RangeMax="9">
          9 9 9 9 9
        </DataArray>
      </Cells>
    </Piece>
  </UnstructuredGrid>
</VTKFile>
