<?xml version="1.0"?>
<VTKFile type="UnstructuredGrid" version="0.1" byte_order="LittleEndian" header_type="UInt32" compressor="vtkZLibDataCompressor">
  <UnstructuredGrid>
    <Piece NumberOfPoints="16" NumberOfCells="18">
      <PointData>
        <DataArray type="Float64" Name="nsi_BC" NumberOfComponents="3" format="ascii" RangeMin="0" RangeMax="0">
          0 0 0 0 0 0
          0 0 0 0 0 0
          0 0 0 0 0 0
          0 0 0 0 0 0
          0 0 0 0 0 0
          0 0 0 0 0 0
          0 0 0 0 0 0
          0 0 0 0 0 0
          <InformationKey name="L2_NORM_RANGE" location="vtkDataArray" length="2">
            <Value index="0">
              0
            </Value>
            <Value index="1">
              0
            </Value>
          </InformationKey>
        </DataArray>
        <DataArray type="Float64" Name="nsi_FIXNO" NumberOfComponents="3" format="ascii" RangeMin="1.4142135623730951" RangeMax="1.4142135623730951">
          1 1 0 1 1 0
          1 1 0 -1 -1 0
          -1 -1 0 1 1 0
          1 1 0 -1 -1 0
          -1 -1 0 1 1 0
          1 1 0 1 1 0
          1 1 0 1 1 0
          1 1 0 1 1 0
          <InformationKey name="L2_NORM_RANGE" location="vtkDataArray" length="2">
            <Value index="0">
              1.4142135624
            </Value>
            <Value index="1">
              1.4142135624
            </Value>
          </InformationKey>
        </DataArray>
        <DataArray type="Float64" Name="tem_BC" format="ascii" RangeMin="-273" RangeMax="300">
          300 300 0 0 0 300
          0 0 0 300 -273 0
          -273 0 -273 -273
        </DataArray>
        <DataArray type="Float64" Name="tem_FIXNO" format="ascii" RangeMin="-1" RangeMax="1">
          1 1 -1 -1 -1 1
          -1 -1 -1 1 1 -1
          1 -1 1 1
        </DataArray>
        <DataArray type="Float64" Name="Velocity" NumberOfComponents="3" format="ascii" RangeMin="0" RangeMax="1.0382653091731422">
          0 0 0 0 0 0
          0 0 0 0.9554314264444989 0.4063811530996864 0
          -0.12213048888630954 0.7482433093277361 0 0 0 0
          0 0 0 -0.6412010726911096 -0.17027879379423727 0
          -0.021288715037074624 -0.737314205008853 0 0 0 0
          0 0 0 0 0 0
          0 0 0 0 0 0
          0 0 0 0 0 0
          <InformationKey name="L2_NORM_RANGE" location="vtkDataArray" length="2">
            <Value index="0">
              0
            </Value>
            <Value index="1">
              1.0382653092
            </Value>
          </InformationKey>
        </DataArray>
        <DataArray type="Float64" Name="Pressure" format="ascii" RangeMin="-19.12193008440032" RangeMax="96.07950008285304">
          0 26.22206104884857 -4.952151733883942 17.153910573975146 38.331548958671426 51.58178813465135
          -13.229403574766176 59.78191641907988 37.911908958153504 77.31390406189001 -19.12193008440032 81.92206327115855
          19.576772910637896 91.53476794823189 57.16545521192442 96.07950008285304
        </DataArray>
        <DataArray type="Float64" Name="stream" format="ascii" RangeMin="-0.9713087644546009" RangeMax="0.30803147105205925">
          0 0.06349774829478552 0.30803147105205925 -0.9713087644546009 -0.6748635219507961 0.25716837877546955
          -0.6860774990958527 -0.9141483990425696 -0.8524249231440134 0.22877092434991042 -0.5097719442694866 -0.05990993464191177
          -0.3097617493554945 -0.2837571859868879 -0.4173603992958761 -0.23922278155055857
        </DataArray>
        <DataArray type="Float64" Name="Sigma" NumberOfComponents="6" format="ascii" RangeMin="0.2500243569319465" RangeMax="2.0388677185063133">
          1.4102385175124892 -1.317411297065936 0 0.1791611550012954 0 0
          -0.4446718123004262 0.5550026962085824 0 0.05139256116938349 0 0
          0.7171240976723054 -0.9872811207059968 0 -0.42327094171129687 0 0
          0.3535972650288199 -0.08554612616038718 0 -0.010543986435618694 0 0
          0.1559326763500564 -0.13923820533270984 0 0.13714919497127243 0 0
          0.3690187869230955 -0.4344340131303105 0 1.146647484288853 0 0
          -0.5183256579774559 0.8063589298165164 0 -0.38268019758451943 0 0
          0.18103052831279393 -0.15873839839439033 0 0.6700579242994177 0 0
          -0.1098735618129653 0.06221324574303538 0 -0.6618087461634247 0 0
          -1.3504037250442014 1.4576702350652955 0 -0.12147091884869742 0 0
          -1.3071778145118114 1.480025315437125 0 -0.5077330011733552 0 0
          -0.9372466098242738 0.7480770455314271 0 -0.9273213573487157 0 0
          -0.3045344559992727 -0.4704695090045524 0 1.3256507407767906 0 0
          0.7537713975148342 -0.6589685670718457 0 -0.33213678166607447 0 0
          -0.013115354522423746 0.32884575732743687 0 0.6779349109630989 0 0
          1.0152733083568173 -1.224299372904861 0 -0.16699798131275959 0 0
          <InformationKey name="L2_NORM_RANGE" location="vtkDataArray" length="2">
            <Value index="0">
              0.25002435693
            </Value>
            <Value index="1">
              2.0388677185
            </Value>
          </InformationKey>
        </DataArray>
        <DataArray type="Float64" Name="Temperature" format="ascii" RangeMin="-272.99999999959215" RangeMax="299.99999999955173">
          299.99999999955173 299.99999999955173 56.01337929928741 10.834373576073036 50.99068027099801 299.99999999955173
          -28.630145812480514 1.3430831523939515 -44.54817139369391 299.99999999955173 -272.9999999995921 31.79461492014963
          -272.99999999959215 -24.030852570135377 -272.99999999959215 -272.9999999995921
        </DataArray>
      </PointData>
      <CellData>
        <DataArray type="UInt8" Name="vtkGhostType" format="ascii" RangeMin="0" RangeMax="0">
          0 0 0 0 0 0
          0 0 0 0 0 0
          0 0 0 0 0 0
        </DataArray>
      </CellData>
      <Points>
        <DataArray type="Float32" Name="Points" NumberOfComponents="3" format="ascii" RangeMin="0" RangeMax="14.142135623730951">
          0 10 0 0 6.6666669845581055 0
          3.3333330154418945 10 0 5 7.197329044342041 0
          2.802670955657959 5 0 0 3.3333330154418945 0
          6.6666669845581055 10 0 5 2.802670955657959 0
          7.197329044342041 5 0 0 0 0
          10 10 0 3.3333330154418945 0 0
          10 6.6666669845581055 0 6.6666669845581055 0 0
          10 3.3333330154418945 0 10 0 0
          <InformationKey name="L2_NORM_RANGE" location="vtkDataArray" length="2">
            <Value index="0">
              0
            </Value>
            <Value index="1">
              14.142135624
            </Value>
          </InformationKey>
        </DataArray>
      </Points>
      <Cells>
        <DataArray type="Int64" Name="connectivity" format="ascii" RangeMin="0" RangeMax="15">
          9 11 5 14 12 8
          8 12 6 14 8 13
          2 0 1 13 15 14
          10 6 12 1 5 4
          4 5 11 1 3 2
          11 13 7 7 13 8
          7 8 4 7 4 11
          6 2 3 3 1 4
          6 3 8 3 4 8
        </DataArray>
        <DataArray type="Int64" Name="offsets" format="ascii" RangeMin="3" RangeMax="54">
          3 6 9 12 15 18
          21 24 27 30 33 36
          39 42 45 48 51 54
        </DataArray>
        <DataArray type="UInt8" Name="types" format="ascii" RangeMin="5" RangeMax="5">
          5 5 5 5 5 5
          5 5 5 5 5 5
          5 5 5 5 5 5
        </DataArray>
      </Cells>
    </Piece>
  </UnstructuredGrid>
</VTKFile>
