<?xml version="1.0"?>
<VTKFile type="UnstructuredGrid" version="0.1" byte_order="LittleEndian" header_type="UInt32" compressor="vtkZLibDataCompressor">
  <UnstructuredGrid>
    <Piece NumberOfPoints="16" NumberOfCells="18">
      <PointData>
        <DataArray type="Float64" Name="nsi_BC" NumberOfComponents="3" format="ascii" RangeMin="0" RangeMax="0">
          0 0 0 0 0 0
          0 0 0 0 0 0
          0 0 0 0 0 0
          0 0 0 0 0 0
          0 0 0 0 0 0
          0 0 0 0 0 0
          0 0 0 0 0 0
          0 0 0 0 0 0
          <InformationKey name="L2_NORM_RANGE" location="vtkDataArray" length="2">
            <Value index="0">
              0
            </Value>
            <Value index="1">
              0
            </Value>
          </InformationKey>
        </DataArray>
        <DataArray type="Float64" Name="nsi_FIXNO" NumberOfComponents="3" format="ascii" RangeMin="1.4142135623730951" RangeMax="1.4142135623730951">
          1 1 0 1 1 0
          1 1 0 -1 -1 0
          -1 -1 0 1 1 0
          1 1 0 -1 -1 0
          -1 -1 0 1 1 0
          1 1 0 1 1 0
          1 1 0 1 1 0
          1 1 0 1 1 0
          <InformationKey name="L2_NORM_RANGE" location="vtkDataArray" length="2">
            <Value index="0">
              1.4142135624
            </Value>
            <Value index="1">
              1.4142135624
            </Value>
          </InformationKey>
        </DataArray>
        <DataArray type="Float64" Name="tem_BC" format="ascii" RangeMin="-273" RangeMax="300">
          300 300 0 0 0 300
          0 0 0 300 -273 0
          -273 0 -273 -273
        </DataArray>
        <DataArray type="Float64" Name="tem_FIXNO" format="ascii" RangeMin="-1" RangeMax="1">
          1 1 -1 -1 -1 1
          -1 -1 -1 1 1 -1
          1 -1 1 1
        </DataArray>
        <DataArray type="Float64" Name="Velocity" NumberOfComponents="3" format="ascii" RangeMin="0" RangeMax="3.866797305654876">
          0 0 0 0 0 0
          0 0 0 1.4090977005514878 1.3921962492605093 0
          -0.5061211261170269 3.452255459918574 0 0 0 0
          0 0 0 -1.3455691752182843 -0.14598756650216324 0
          0.17352469065122503 -3.862901834729198 0 0 0 0
          0 0 0 0 0 0
          0 0 0 0 0 0
          0 0 0 0 0 0
          <InformationKey name="L2_NORM_RANGE" location="vtkDataArray" length="2">
            <Value index="0">
              0
            </Value>
            <Value index="1">
              3.8667973057
            </Value>
          </InformationKey>
        </DataArray>
        <DataArray type="Float64" Name="Pressure" format="ascii" RangeMin="-13.66420129146679" RangeMax="95.86720881389165">
          0 28.40510992095002 -3.4229543312835005 17.920573495981294 35.4598870029417 50.15232954435432
          -9.847585331003167 59.364250818685356 35.72269540400394 80.94738470059893 -13.66420129146679 83.50121139303604
          17.644474253906033 95.04364968332419 58.31408822328255 95.86720881389165
        </DataArray>
        <DataArray type="Float64" Name="stream" format="ascii" RangeMin="-4.534347210090215" RangeMax="1.2498621243260686">
          0 -0.20736270939201462 -0.7570105504990562 -4.534347210090215 -2.68988830742683 0.6247833010374065
          -0.8857551914098414 -4.039310426881166 -2.426207049207235 0.007042270667013906 0.5528750794994454 -0.9960308043893232
          1.2498621243260686 -1.7745934052984562 -1.1417486946006787 -1.9855416421977152
        </DataArray>
        <DataArray type="Float64" Name="Sigma" NumberOfComponents="6" format="ascii" RangeMin="0.3654422548827801" RangeMax="2.52489070832927">
          0.47560004545714746 -0.7565911657256806 0 0.3714042805519112 0 0
          0.4309754268577831 0.04484909781151298 0 0.1212300580896747 0 0
          0.5914072717651773 -0.9031157852269766 0 -0.688937209859838 0 0
          0.2880058839436598 0.01975625441156048 0 0.22532562567263492 0 0
          -0.33468566109893105 0.3893868875168709 0 -0.10032773904518491 0 0
          0.7098303753738701 -0.9910409745047598 0 1.3634185736312037 0 0
          -0.5839907434478161 0.6215216114925485 0 -0.878904017159214 0 0
          0.2089682429306998 -0.1565459088019158 0 0.31042665562642957 0 0
          -0.32972814140221257 0.15746712580592476 0 0.005612371305819052 0 0
          -0.10866510320630753 0.6411065660110276 0 -0.19967136727243456 0 0
          -0.569483942345956 1.1486763546596728 0 -0.0759472618952655 0 0
          -1.9117617813392813 1.4354967547209243 0 -0.81215087736432 0 0
          -0.38249802012435774 -0.5018178890851606 0 1.1721618056492662 0 0
          1.7775835246009848 -1.429340980025663 0 -0.8442412432769784 0 0
          0.395983450892046 0.35087729985446603 0 0.6096037848790977 0 0
          -0.7062960509766386 -0.13277797600405697 0 0.26961477792031646 0 0
          <InformationKey name="L2_NORM_RANGE" location="vtkDataArray" length="2">
            <Value index="0">
              0.36544225488
            </Value>
            <Value index="1">
              2.5248907083
            </Value>
          </InformationKey>
        </DataArray>
        <DataArray type="Float64" Name="Temperature" format="ascii" RangeMin="-273.0000000000032" RangeMax="300.0000000000035">
          300.0000000000035 300.0000000000035 130.21555817732516 27.70311633132275 81.7624622884529 300.00000000000347
          -45.31134386258972 -15.128432562357528 -80.490383916631 300.0000000000035 -273.0000000000032 67.83367626196076
          -273.0000000000032 -61.34569083893488 -273.0000000000031 -273.0000000000032
        </DataArray>
      </PointData>
      <CellData>
        <DataArray type="UInt8" Name="vtkGhostType" format="ascii" RangeMin="0" RangeMax="0">
          0 0 0 0 0 0
          0 0 0 0 0 0
          0 0 0 0 0 0
        </DataArray>
      </CellData>
      <Points>
        <DataArray type="Float32" Name="Points" NumberOfComponents="3" format="ascii" RangeMin="0" RangeMax="14.142135623730951">
          0 10 0 0 6.6666669845581055 0
          3.3333330154418945 10 0 5 7.197329044342041 0
          2.802670955657959 5 0 0 3.3333330154418945 0
          6.6666669845581055 10 0 5 2.802670955657959 0
          7.197329044342041 5 0 0 0 0
          10 10 0 3.3333330154418945 0 0
          10 6.6666669845581055 0 6.6666669845581055 0 0
          10 3.3333330154418945 0 10 0 0
          <InformationKey name="L2_NORM_RANGE" location="vtkDataArray" length="2">
            <Value index="0">
              0
            </Value>
            <Value index="1">
              14.142135624
            </Value>
          </InformationKey>
        </DataArray>
      </Points>
      <Cells>
        <DataArray type="Int64" Name="connectivity" format="ascii" RangeMin="0" RangeMax="15">
          9 11 5 14 12 8
          8 12 6 14 8 13
          2 0 1 13 15 14
          10 6 12 1 5 4
          4 5 11 1 3 2
          11 13 7 7 13 8
          7 8 4 7 4 11
          6 2 3 3 1 4
          6 3 8 3 4 8
        </DataArray>
        <DataArray type="Int64" Name="offsets" format="ascii" RangeMin="3" RangeMax="54">
          3 6 9 12 15 18
          21 24 27 30 33 36
          39 42 45 48 51 54
        </DataArray>
        <DataArray type="UInt8" Name="types" format="ascii" RangeMin="5" RangeMax="5">
          5 5 5 5 5 5
          5 5 5 5 5 5
          5 5 5 5 5 5
        </DataArray>
      </Cells>
    </Piece>
  </UnstructuredGrid>
</VTKFile>
