<?xml version="1.0"?>
<VTKFile type="UnstructuredGrid" version="0.1" byte_order="LittleEndian" header_type="UInt32" compressor="vtkZLibDataCompressor">
  <UnstructuredGrid>
    <Piece NumberOfPoints="46" NumberOfCells="65">
      <PointData>
        <DataArray type="Float64" Name="nsi_BC" NumberOfComponents="3" format="ascii" RangeMin="0" RangeMax="40">
          0 0 0 0 0 0
          0 0 0 0 0 0
          0 0 0 0 0 0
          0 0 0 0 0 0
          0 0 0 0 0 0
          0 0 0 0 0 0
          0 0 0 0 0 0
          0 0 0 0 0 0
          0 0 0 0 0 0
          0 0 0 0 0 0
          0 0 0 0 0 0
          0 0 0 0 0 0
          0 0 0 0 0 0
          0 0 0 0 0 0
          0 0 0 0 0 0
          40 0 0 40 0 0
          40 0 0 40 0 0
          0 0 0 0 0 0
          0 0 0 0 0 0
          0 0 0 0 0 0
          0 0 0 0 0 0
          0 0 0 0 0 0
          40 0 0 0 0 0
          <InformationKey name="L2_NORM_RANGE" location="vtkDataArray" length="2">
            <Value index="0">
              0
            </Value>
            <Value index="1">
              40
            </Value>
          </InformationKey>
        </DataArray>
        <DataArray type="Float64" Name="nsi_FIXNO" NumberOfComponents="3" format="ascii" RangeMin="1" RangeMax="1.4142135623730951">
          -1 -1 0 -1 -1 0
          0 1 0 -1 -1 0
          -1 -1 0 0 1 0
          -1 -1 0 -1 -1 0
          -1 -1 0 -1 -1 0
          0 1 0 -1 -1 0
          -1 -1 0 -1 -1 0
          1 1 0 -1 -1 0
          0 1 0 1 1 0
          -1 -1 0 -1 -1 0
          -1 -1 0 0 1 0
          -1 -1 0 -1 -1 0
          -1 -1 0 0 1 0
          0 1 0 -1 -1 0
          -1 -1 0 -1 -1 0
          1 1 0 1 1 0
          1 1 0 1 1 0
          0 1 0 -1 -1 0
          -1 -1 0 -1 -1 0
          -1 -1 0 1 1 0
          1 1 0 -1 -1 0
          -1 -1 0 -1 -1 0
          1 1 0 -1 -1 0
          <InformationKey name="L2_NORM_RANGE" location="vtkDataArray" length="2">
            <Value index="0">
              1
            </Value>
            <Value index="1">
              1.4142135624
            </Value>
          </InformationKey>
        </DataArray>
        <DataArray type="Float64" Name="Velocity" NumberOfComponents="3" format="ascii" RangeMin="0" RangeMax="52.376172864418095">
          41.35052654212901 -2.1932093607019985 0 50.06345310165268 0.8600837480002625 0
          44.16279960241462 0 0 46.63162828288354 0.38339180770274617 0
          51.31198257715009 1.9194180270780468 0 45.49228775144034 0 0
          35.55869370152887 -1.4853758136659636 0 45.443811814357026 0.5140448762009295 0
          -3.3155883405940054 0.10282612286024025 0 50.18528274884308 4.742314244563054 0
          44.33405071826373 0 0 19.354381207195143 -2.7872840933527616 0
          44.805258359820854 1.3408401161370882 0 45.09239355541853 3.8753646246719566 0
          0 0 0 50.64911846619072 13.339051035256741 0
          44.37036981413093 0 0 0 0 0
          41.9519807324435 0.7471098822374349 0 42.40195263251185 8.715623096235769 0
          33.54108241159243 7.040870865895786 0 41.99384404849138 0 0
          41.10919251092128 3.152503149931588 0 40.849184855048144 0.5624186362970606 0
          38.72262251099518 2.3811090828910104 0 40.67306755045727 0 0
          40.09216895172498 0 0 40.172529589700986 0.5536789243122816 0
          40.003095452347814 0.6308822270454927 0 39.85813038027189 0.7543624000744121 0
          40.000000000000234 0 0 40.000000000000234 0 0
          40.000000000000185 0 0 40.00000000000025 0 0
          44.863120009662204 0 0 39.6171828780749 2.0088704043812275 0
          23.53256043173776 0.39557596337524126 0 52.3002243973374 0.5046236849579463 0
          33.64766714425986 -0.9958513728965901 0 0 0 0
          0 0 0 33.04987394492404 -6.702458311706989 0
          16.08491694040289 2.9831278956020224 0 36.877770829052935 -0.1341054131378004 0
          40.0000000000003 0 0 39.825173889829564 -0.053469415090858174 0
          <InformationKey name="L2_NORM_RANGE" location="vtkDataArray" length="2">
            <Value index="0">
              0
            </Value>
            <Value index="1">
              52.376172864
            </Value>
          </InformationKey>
        </DataArray>
        <DataArray type="Float64" Name="Pressure" format="ascii" RangeMin="-544.5911638698501" RangeMax="999.2234121087096">
          -43.76626611611441 -6.63188141624896 -0.6581767238333271 0.2707179693935033 -41.30095315724597 -9.63754232821862
          -249.2263391462616 15.901589438772845 -114.17763723978639 -112.89962324108897 68.03456152716936 -480.63467760925704
          60.885093850053444 70.80147575977867 -402.33222067059666 -271.3746935781742 64.65053938267087 398.5725826091225
          188.23237449617278 169.73107394091278 618.2150613703247 164.41868203052502 229.20514781209667 225.63315671476764
          366.9482832387377 219.51903208140206 242.96352119832073 257.11219292265605 293.7504914789414 323.21328496409745
          249.59880973875664 255.5021321969259 277.8765444405071 304.1152192971819 -30.045379251375522 -220.5242557510163
          -24.241004413317754 -61.013076551246826 -3.7234397572414495 999.2234121087096 -544.5911638698501 650.2101373060872
          -475.0713973850834 443.25588580656455 327.5577468186372 338.89235447917963
        </DataArray>
        <DataArray type="Float64" Name="stream" format="ascii" RangeMin="-174.99875932328246" RangeMax="2.859621984564356">
          -103.40526670472228 -40.79525175722501 2.2831283007016054 -39.86881402885691 -85.36480261865043 2.645253643401844
          -136.59525971435812 -39.224123753015334 -157.72922761494618 -120.66307505929237 2.5287587416725614 -151.4054444453101
          -38.23617709725772 -88.21334112666774 -150.4996755122882 -135.1999184774267 2.859621984564356 -149.84227558702696
          -36.602253176098145 -109.39578599370695 -144.12986842530444 2.5366186676232587 -73.84602793903036 -35.37730365378715
          -120.61411375540449 2.518281116788444 2.56090712923168 -50.862602674524645 -86.23265921982035 -121.37376810738387
          2.519486179587659 -32.952774955145316 -68.31910201059233 -103.61462532422557 2.4382288645448824 -174.99875932328246
          -164.12090963020225 -42.25695708086964 -106.23266185258892 -160.06915246229676 -156.0332457975269 -174.12368341252989
          -162.57054104775452 -157.27642069652342 -139.0456908931875 -156.5696141248975
        </DataArray>
        <DataArray type="Float64" Name="Sigma" NumberOfComponents="6" format="ascii" RangeMin="0.12788360277606753" RangeMax="374.7157498007801">
          -3.2449144304617423 4.901217782339813 0 10.029439274918381 0 0
          3.192624123429643 -4.044726005601518 0 -4.341176944992416 0 0
          0.1353884252441213 -0.008679515622693576 0 -0.8444684870257068 0 0
          -0.9204239043439667 0.6275355098333248 0 -3.0828915040260925 0 0
          -1.606392615566647 2.4431831445810004 0 -10.268363117874111 0 0
          1.599538320775954 -1.3092597579179714 0 -0.6875889327515207 0 0
          5.464695318701028 -7.332403853565117 0 49.85986002104759 0 0
          4.3045969724802005 -5.021072862433721 0 1.8455774219648289 0 0
          -12.214605484580055 10.83486590409962 0 -3.7388301990446218 0 0
          -3.30937460896837 4.1265225044399285 0 -13.548926836950315 0 0
          0.9452743126099068 -0.5152893506925649 0 -3.301814248295918 0 0
          -10.760214905289931 12.463035856957198 0 67.33531445220655 0 0
          3.326453744658083 -3.375025119515858 0 1.6582403169596713 0 0
          5.995071474049453 -5.252748704003929 0 -8.455175496754562 0 0
          -65.8357960883239 51.20580462482622 0 77.87013406170139 0 0
          25.96608919513816 -27.293264439154566 0 12.444794295996637 0 0
          4.1456056207223 -4.56709042883404 0 -1.3016938851081594 0 0
          -118.17316264271152 122.78124952445944 0 100.41210785258654 0 0
          4.013804364259534 -3.7197389375537577 0 2.277548200952023 0 0
          11.617647758265063 -12.43959626337056 0 3.212786232884377 0 0
          5.899745653582013 -4.662109115312326 0 43.331206661422 0 0
          4.158539678658297 -4.728383835833476 0 2.095330105399659 0 0
          3.050638580404869 -2.80076278431661 0 0.7608995262386723 0 0
          0.970605810488123 -0.7173474314218712 0 0.520897352918085 0 0
          -3.92264798623603 3.676512978573827 0 5.389890248746888 0 0
          2.0108220704160966 -2.1736156729015224 0 0.31649750273378485 0 0
          0.662605714423291 -0.6555301743812116 0 0.38374623680765324 0 0
          0.6895136816904107 -0.6347778791916487 0 0.18942376712913095 0 0
          0.5504664579351296 -0.6513761949534569 0 2.5949726485268174 0 0
          -1.1481215051007756 1.305993482003852 0 -0.6508093233647028 0 0
          0.6213569470678851 -0.6698934897977079 0 -0.003763822125717327 0 0
          -0.06887303278444963 0.06670162848190028 0 0.08462631961701811 0 0
          -0.13976642235112754 0.11609624051637694 0 0.9135299322698478 0 0
          -0.0704782852464752 0.13056002096897057 0 0.6633053506899809 0 0
          2.02249847869649 -1.789708020723855 0 -10.26173929052867 0 0
          2.2552176146201512 -3.2116366975990336 0 -50.11241606186119 0 0
          3.003979816084546 -3.616258983855363 0 -7.2955721696444416 0 0
          -2.057460847893066 2.0180818862043415 0 -2.624583331140617 0 0
          0.1839818068912247 -0.3789635838841046 0 16.558073983771457 0 0
          -251.4695455098777 277.62948074432717 0 -9.840337974460422 0 0
          47.31920891655895 -59.313244333992756 0 2.1394674998167886 0 0
          3.094609426494481 -1.9182980654261452 0 -41.51665502898065 0 0
          -11.5860657778005 12.325373139090377 0 -62.23938567768275 0 0
          -14.453907558573748 13.705938508157924 0 0.7081281919755799 0 0
          -0.3383619001653361 0.21153429781213107 0 0.9511435551604548 0 0
          0.448034606684956 -0.41560427583246246 0 0.08663426647540293 0 0
          <InformationKey name="L2_NORM_RANGE" location="vtkDataArray" length="2">
            <Value index="0">
              0.12788360278
            </Value>
            <Value index="1">
              374.7157498
            </Value>
          </InformationKey>
        </DataArray>
      </PointData>
      <CellData>
        <DataArray type="UInt8" Name="vtkGhostType" format="ascii" RangeMin="0" RangeMax="1">
          0 1 0 0 0 1
          0 1 0 1 1 0
          0 0 0 0 0 0
          0 0 1 1 1 0
          0 0 0 0 0 0
          0 0 0 0 0 0
          0 0 0 0 0 1
          0 0 0 0 0 0
          0 0 0 0 0 0
          0 0 0 0 0 0
          0 0 0 0 0
        </DataArray>
      </CellData>
      <Points>
        <DataArray type="Float32" Name="Points" NumberOfComponents="3" format="ascii" RangeMin="4.105142617938469" RangeMax="10.703639660792414">
          7.111111164093018 5.749299049377441 0 6.6666669845581055 7.076855182647705 0
          6.222221851348877 8 0 5.777778148651123 7.076855182647705 0
          5.675971031188965 6.142068862915039 0 5.3333330154418945 8 0
          5.699848175048828 4.957938194274902 0 4.888888835906982 7.076855182647705 0
          5.571450233459473 4 0 4.785725116729736 5.3609161376953125 0
          4.444444179534912 8 0 4.824699878692627 4.476140975952148 0
          4 7.076855182647705 0 4.020326137542725 5.951079845428467 0
          4.25 4.433012962341309 0 4 4.952281951904297 0
          3.555556058883667 8 0 3.75 4.433012962341309 0
          3.1111109256744385 7.076855182647705 0 3.2142748832702637 5.3609161376953125 0
          3.175299882888794 4.476140975952148 0 2.6666669845581055 8 0
          2.324028968811035 6.142068862915039 0 2.222222089767456 7.076855182647705 0
          2.300152063369751 4.957938194274902 0 1.7777780294418335 8 0
          0.8888888955116272 8 0 0.9231445789337158 6.6666669845581055 0
          0.9231445789337158 5.777778148651123 0 0.9231445789337158 4.888888835906982 0
          0 8 0 0 7.111111164093018 0
          0 6.222221851348877 0 0 5.3333330154418945 0
          7.111111164093018 8 0 5.699848175048828 3.0420620441436768 0
          6.700017929077148 3.6636950969696045 0 7.555555820465088 7.076855182647705 0
          8.88888931274414 5.749299049377441 0 3.5 4 0
          4.5 4 0 3.175299882888794 3.5238590240478516 0
          4.824699878692627 3.5238590240478516 0 2.4285500049591064 4 0
          0 4.444444179534912 0 0.9231445789337158 4 0
          <InformationKey name="L2_NORM_RANGE" location="vtkDataArray" length="2">
            <Value index="0">
              4.1051426179
            </Value>
            <Value index="1">
              10.703639661
            </Value>
          </InformationKey>
        </DataArray>
      </Points>
      <Cells>
        <DataArray type="Int64" Name="connectivity" format="ascii" RangeMin="0" RangeMax="45">
          2 5 3 34 2 1
          5 10 7 9 11 6
          11 8 6 8 35 36
          13 9 7 6 8 36
          9 6 4 37 34 1
          37 1 0 7 10 12
          7 12 13 1 2 3
          1 3 4 4 3 7
          7 3 5 4 6 0
          9 4 7 1 4 0
          38 37 0 0 6 36
          38 0 36 17 14 15
          39 17 20 14 40 11
          15 14 11 20 17 15
          41 39 20 11 40 42
          10 16 12 21 25 23
          16 21 18 20 15 19
          19 15 13 20 19 24
          15 11 9 15 9 13
          41 20 43 43 20 24
          11 42 8 8 42 35
          24 19 22 19 13 18
          18 21 23 18 23 22
          22 23 27 27 28 22
          12 16 18 12 18 13
          22 19 18 24 22 28
          33 44 29 26 30 31
          31 32 27 25 26 27
          32 33 28 43 24 45
          23 25 27 29 44 45
          29 45 24 27 32 28
          28 33 29 28 29 24
          31 27 26
        </DataArray>
        <DataArray type="Int64" Name="offsets" format="ascii" RangeMin="3" RangeMax="195">
          3 6 9 12 15 18
          21 24 27 30 33 36
          39 42 45 48 51 54
          57 60 63 66 69 72
          75 78 81 84 87 90
          93 96 99 102 105 108
          111 114 117 120 123 126
          129 132 135 138 141 144
          147 150 153 156 159 162
          165 168 171 174 177 180
          183 186 189 192 195
        </DataArray>
        <DataArray type="UInt8" Name="types" format="ascii" RangeMin="5" RangeMax="5">
          5 5 5 5 5 5
          5 5 5 5 5 5
          5 5 5 5 5 5
          5 5 5 5 5 5
          5 5 5 5 5 5
          5 5 5 5 5 5
          5 5 5 5 5 5
          5 5 5 5 5 5
          5 5 5 5 5 5
          5 5 5 5 5 5
          5 5 5 5 5
        </DataArray>
      </Cells>
    </Piece>
  </UnstructuredGrid>
</VTKFile>
