<?xml version="1.0"?>
<VTKFile type="UnstructuredGrid" version="0.1" byte_order="LittleEndian" header_type="UInt32" compressor="vtkZLibDataCompressor">
  <UnstructuredGrid>
    <Piece NumberOfPoints="44" NumberOfCells="59">
      <PointData>
        <DataArray type="Float64" Name="nsi_BC" NumberOfComponents="3" format="ascii" RangeMin="0" RangeMax="0">
          0 0 0 0 0 0
          0 0 0 0 0 0
          0 0 0 0 0 0
          0 0 0 0 0 0
          0 0 0 0 0 0
          0 0 0 0 0 0
          0 0 0 0 0 0
          0 0 0 0 0 0
          0 0 0 0 0 0
          0 0 0 0 0 0
          0 0 0 0 0 0
          0 0 0 0 0 0
          0 0 0 0 0 0
          0 0 0 0 0 0
          0 0 0 0 0 0
          0 0 0 0 0 0
          0 0 0 0 0 0
          0 0 0 0 0 0
          0 0 0 0 0 0
          0 0 0 0 0 0
          0 0 0 0 0 0
          0 0 0 0 0 0
          <InformationKey name="L2_NORM_RANGE" location="vtkDataArray" length="2">
            <Value index="0">
              0
            </Value>
            <Value index="1">
              0
            </Value>
          </InformationKey>
        </DataArray>
        <DataArray type="Float64" Name="nsi_FIXNO" NumberOfComponents="3" format="ascii" RangeMin="0" RangeMax="1.4142135623730951">
          0 1 0 0 0 0
          0 1 0 -1 -1 0
          0 0 0 0 1 0
          -1 -1 0 -1 -1 0
          0 1 0 0 0 0
          -1 -1 0 -1 -1 0
          -1 -1 0 0 1 0
          0 0 0 -1 -1 0
          -1 -1 0 0 1 0
          0 0 0 -1 -1 0
          -1 -1 0 -1 -1 0
          -1 -1 0 0 1 0
          0 0 0 -1 -1 0
          0 1 0 -1 -1 0
          0 1 0 -1 -1 0
          -1 -1 0 0 1 0
          -1 -1 0 0 1 0
          0 0 0 -1 -1 0
          -1 -1 0 -1 -1 0
          -1 -1 0 -1 -1 0
          0 1 0 -1 -1 0
          -1 -1 0 -1 -1 0
          <InformationKey name="L2_NORM_RANGE" location="vtkDataArray" length="2">
            <Value index="0">
              0
            </Value>
            <Value index="1">
              1.4142135624
            </Value>
          </InformationKey>
        </DataArray>
        <DataArray type="Float64" Name="Velocity" NumberOfComponents="3" format="ascii" RangeMin="23.53588495927421" RangeMax="52.302658795469156">
          47.313862558130126 0 0 46.9042640115135 -0.0913683526053973 0
          47.62905329894737 0 0 46.48640824118227 -0.24500892484781583 0
          40.3651273303148 -0.4095054566006479 0 47.489112667982006 0 0
          46.01374935138242 -0.128784846474142 0 37.18825475336405 0.025906003492863434 0
          48.07632306882218 0 0 34.418303544587765 -0.2468315833740011 0
          33.65736453018858 -0.0222100837464208 0 46.160046998975915 -0.2569368672025 0
          32.97716053942956 -0.20117488283870877 0 47.98586247570358 0 0
          33.85981964821515 0.24639722401773825 0 34.6856650554858 -0.002152578238569336 0
          48.313435300695176 -0.26556067323548255 0 47.630821267470544 0 0
          34.55953620547521 -0.19079749077368988 0 49.08982136448756 -0.39699678243409886 0
          34.885763868120755 -0.03219760681705908 0 34.78770516759554 -0.07081276870866243 0
          34.80621811625356 0.27883006382521025 0 46.443341537493836 0 0
          35.669345859507786 0.23773461586054417 0 49.34572407959123 0.06516759469271377 0
          46.41600760600839 0 0 50.472520643993946 0.22399165578536134 0
          46.69944696372077 0 0 33.64766714425986 -0.9958513728965901 0
          50.797859525567596 0.024051625605186353 0 44.23210286327482 0 0
          52.3002243973374 0.5046236849579463 0 44.863120009662204 0 0
          39.13833403216907 0.3512314294477985 0 37.76170044440113 0.2544202037394065 0
          35.47914494509991 -0.12467046451760333 0 34.74565485781602 0.0425227275054167 0
          33.48949472301208 -0.2695441263065186 0 35.016797638158245 0.7809625279186672 0
          44.16279960241462 0 0 50.06345310165268 0.8600837480002625 0
          41.35052654212901 -2.1932093607019985 0 23.53256043173776 0.39557596337524126 0
          <InformationKey name="L2_NORM_RANGE" location="vtkDataArray" length="2">
            <Value index="0">
              23.535884959
            </Value>
            <Value index="1">
              52.302658795
            </Value>
          </InformationKey>
        </DataArray>
        <DataArray type="Float64" Name="Pressure" format="ascii" RangeMin="-61.013076551246826" RangeMax="30.801575811102413">
          4.86714281336809 -1.1663715239879708 -10.98929556047607 1.4812213523081408 9.980150329665953 3.42838222358844
          -0.14888445822334312 -10.015007632496182 -12.04769546420882 8.62267329923038 -12.345131667974915 1.5774674634454136
          10.26020769868277 2.795227588302815 6.247667839019428 -2.843131760021986 -2.0977401238951443 -21.75142745198718
          4.819342811573673 6.6881886771487995 -6.774364806773359 -18.704107452352456 2.8956642550482687 -7.060576842412077
          5.68611027743137 -30.846870756779445 4.375504295963589 -25.578332096463953 -41.98029148567167 -3.7234397572414495
          5.4673927957572905 10.200900749294481 -61.013076551246826 -30.045379251375522 0.4539074955914085 -3.3876471109795276
          -6.915459547714732 2.4557826815241146 30.801575811102413 -21.183511629512104 -0.6581767238333271 -6.63188141624896
          -43.76626611611441 -24.241004413317754
        </DataArray>
        <DataArray type="Float64" Name="stream" format="ascii" RangeMin="-239.06079695613147" RangeMax="0.17810605205243726">
          -0.04973829186672418 -41.94975393586153 0.001249135277613315 -47.446852603134026 -80.8090033599484 -0.1877878253164269
          -54.31134751722474 -98.30193612862088 -0.011253457318621448 -114.02358136189292 -126.17305562866215 -53.46120935883983
          -114.06094655250111 -0.0036473398185445185 -144.34811327388215 -159.36936306439347 -44.29956080807407 0.006010005091953967
          -174.7952422325254 -39.38687183989528 -190.43810772313316 -99.54590600288947 -175.2159300984724 -0.2174241795025201
          -205.9857725302651 -50.04707466456548 -0.08888234054979922 -44.694588028213374 0.17810605205243726 -102.03571385092006
          -39.4697380993853 -0.19733907545122756 -44.07217079178847 0.05649457379487188 -239.06079695613147 -232.46007092984595
          -220.68471630402487 -220.08022784449915 -160.30716193461421 -218.26180276872864 0.09557974374472167 -43.6460419028791
          -104.8311807126471 -167.78403097188803
        </DataArray>
        <DataArray type="Float64" Name="Sigma" NumberOfComponents="6" format="ascii" RangeMin="0.3602104895085555" RangeMax="17.53112280467089">
          -0.722183470287157 0.9279314913881452 0 0.3547500651801 0 0
          -0.3436180638142338 0.29182226460179606 0 2.768984908817163 0 0
          0.15337156474117014 -0.28924980208538176 0 -0.5161816882127755 0 0
          -0.5500677320226002 0.6012712504758865 0 3.851934979825976 0 0
          0.49341690519143294 -0.4121960009252505 0 8.751436406625514 0 0
          -0.277781419613843 0.2249541099927045 0 0.04455028694297536 0 0
          0.03226101463302904 0.0011602111695970451 0 5.876103794243704 0 0
          0.0523809566888805 -0.09366387734570643 0 10.455506545570165 0 0
          -0.2983612045979281 0.31094045723287267 0 -2.211490144698735 0 0
          0.46304253988944577 -0.32893584132935266 0 2.8412105670598566 0 0
          0.31850507596541017 -0.4531438104935455 0 -0.6274685248323024 0 0
          -0.24360311819575112 0.15634022490582217 0 12.02089075953166 0 0
          0.2616231448167822 -0.264098121471855 0 2.514261938257352 0 0
          -0.43949290649886186 0.6317929634273008 0 -4.6300733756731205 0 0
          -0.2190585997953871 0.2927565244640668 0 -1.2780070197140598 0 0
          0.30179902610446774 -0.294782945941264 0 -1.8047959920652403 0 0
          -0.4602866273226878 0.636002725755276 0 7.3833820345123 0 0
          0.5287506235235536 -0.9225903555595989 0 -4.330481207651014 0 0
          -0.12661009190094263 0.19017067520528644 0 -0.5727726894384471 0 0
          -1.3945258008674055 1.7238056473822134 0 2.3656977343297347 0 0
          -0.28927068886674967 0.22790729497673345 0 2.054959394571961 0 0
          0.542756075889317 -0.5780611012465062 0 3.285375290175851 0 0
          -0.40285596746621843 0.5218630997665992 0 -0.6658869701329457 0 0
          0.20092120308459976 -0.6766627310063752 0 -3.9995272531230834 0 0
          0.6038896618111825 -0.5330446592569511 0 -0.1780885899391511 0 0
          -0.8233904519684071 0.8818894640894003 0 9.772263799301033 0 0
          -0.6310899839468804 1.1393823675494879 0 -10.907377958263472 0 0
          -0.32849479655829866 0.18634020703577855 0 5.466029440453414 0 0
          2.6235672900467817 -2.8644590968355583 0 -9.614626967955017 0 0
          0.1839818068912247 -0.3789635838841046 0 16.558073983771457 0 0
          -1.20965183873768 1.392277475467031 0 2.546703051310823 0 0
          -0.4699028114619392 0.3944375060958428 0 -8.447685684749977 0 0
          -2.057460847893066 2.0180818862043415 0 -2.624583331140617 0 0
          2.02249847869649 -1.789708020723855 0 -10.26173929052867 0 0
          0.2090527062317847 -0.24828493746532865 0 -10.958418521550282 0 0
          0.3632450991316201 -0.3594139086361845 0 -9.192459303296145 0 0
          0.7255512944600125 -0.8056091663529054 0 -7.31073079339754 0 0
          0.44225535745598976 -0.5498464700913122 0 -2.829977113069163 0 0
          -0.17878107121547407 0.2785035453786723 0 -0.37632390248227104 0 0
          1.1794076477941426 -1.0485706299069137 0 -17.45994742337081 0 0
          0.1353884252441213 -0.008679515622693576 0 -0.8444684870257068 0 0
          3.192624123429643 -4.044726005601518 0 -4.341176944992416 0 0
          -3.2449144304617423 4.901217782339813 0 10.029439274918381 0 0
          3.003979816084546 -3.616258983855363 0 -7.2955721696444416 0 0
          <InformationKey name="L2_NORM_RANGE" location="vtkDataArray" length="2">
            <Value index="0">
              0.36021048951
            </Value>
            <Value index="1">
              17.531122805
            </Value>
          </InformationKey>
        </DataArray>
      </PointData>
      <CellData>
        <DataArray type="UInt8" Name="vtkGhostType" format="ascii" RangeMin="0" RangeMax="0">
          0 0 0 0 0 0
          0 0 0 0 0 0
          0 0 0 0 0 0
          0 0 0 0 0 0
          0 0 0 0 0 0
          0 0 0 0 0 0
          0 0 0 0 0 0
          0 0 0 0 0 0
          0 0 0 0 0 0
          0 0 0 0 0
        </DataArray>
      </CellData>
      <Points>
        <DataArray type="Float32" Name="Points" NumberOfComponents="3" format="ascii" RangeMin="7.636288497268445" RangeMax="17.88854381999832">
          16 8 0 16 7.111111164093018 0
          15.111109733581543 8 0 15.064430236816406 6.992426872253418 0
          16 6.222221851348877 0 14.222220420837402 8 0
          13.976409912109375 6.843448162078857 0 15.076860427856445 5.777778148651123 0
          13.333330154418945 8 0 16 5.3333330154418945 0
          15.1806001663208 4.97777795791626 0 12.810070037841797 6.8727240562438965 0
          13.749300003051758 5.3333330154418945 0 12.444439888000488 8 0
          16 4.444444179534912 0 15.076860427856445 4 0
          12 7.076855182647705 0 11.555560111999512 8 0
          16 3.555556058883667 0 11.199999809265137 7.180602073669434 0
          15.076860427856445 3.1111109256744385 0 11.555560111999512 5.749299049377441 0
          13.749300003051758 3.555556058883667 0 10.666669845581055 8 0
          16 2.6666669845581055 0 10.237039566040039 6.959342956542969 0
          9.777777671813965 8 0 9.333333015441895 7.076855182647705 0
          8.88888931274414 8 0 8.88888931274414 5.749299049377441 0
          8.533332824707031 7.180602073669434 0 8 8 0
          7.555555820465088 7.076855182647705 0 7.111111164093018 8 0
          16 1.7777780294418335 0 14.809109687805176 1.9420909881591797 0
          13.333330154418945 2.2507009506225586 0 11.555560111999512 2.2507009506225586 0
          10.222220420837402 3.9827520847320557 0 8.88888931274414 2.2507009506225586 0
          6.222221851348877 8 0 6.6666669845581055 7.076855182647705 0
          7.111111164093018 5.749299049377441 0 6.700017929077148 3.6636950969696045 0
          <InformationKey name="L2_NORM_RANGE" location="vtkDataArray" length="2">
            <Value index="0">
              7.6362884973
            </Value>
            <Value index="1">
              17.88854382
            </Value>
          </InformationKey>
        </DataArray>
      </Points>
      <Cells>
        <DataArray type="Int64" Name="connectivity" format="ascii" RangeMin="0" RangeMax="43">
          17 23 19 9 4 7
          34 24 35 2 5 3
          26 28 27 1 0 2
          18 14 15 8 13 11
          23 26 25 4 1 3
          24 18 20 5 8 6
          28 31 30 14 9 10
          13 17 16 16 17 19
          16 19 21 7 4 3
          20 18 15 20 15 22
          15 14 10 15 12 22
          19 23 25 19 25 21
          11 13 16 11 16 21
          10 9 7 10 7 12
          27 28 30 27 30 29
          3 5 6 3 6 7
          35 24 20 35 20 36
          25 26 27 25 27 29
          6 8 11 6 11 12
          2 3 1 7 6 12
          10 12 15 20 22 36
          36 22 37 22 12 21
          11 21 12 21 25 29
          37 22 21 38 37 21
          39 38 29 38 21 29
          31 33 32 33 40 41
          32 33 41 32 41 42
          30 31 32 30 32 29
          29 32 42 29 42 43
          43 39 29
        </DataArray>
        <DataArray type="Int64" Name="offsets" format="ascii" RangeMin="3" RangeMax="177">
          3 6 9 12 15 18
          21 24 27 30 33 36
          39 42 45 48 51 54
          57 60 63 66 69 72
          75 78 81 84 87 90
          93 96 99 102 105 108
          111 114 117 120 123 126
          129 132 135 138 141 144
          147 150 153 156 159 162
          165 168 171 174 177
        </DataArray>
        <DataArray type="UInt8" Name="types" format="ascii" RangeMin="5" RangeMax="5">
          5 5 5 5 5 5
          5 5 5 5 5 5
          5 5 5 5 5 5
          5 5 5 5 5 5
          5 5 5 5 5 5
          5 5 5 5 5 5
          5 5 5 5 5 5
          5 5 5 5 5 5
          5 5 5 5 5 5
          5 5 5 5 5
        </DataArray>
      </Cells>
    </Piece>
  </UnstructuredGrid>
</VTKFile>
