<?xml version="1.0"?>
<VTKFile type="UnstructuredGrid" version="0.1" byte_order="LittleEndian" header_type="UInt32" compressor="vtkZLibDataCompressor">
  <UnstructuredGrid>
    <Piece NumberOfPoints="36" NumberOfCells="53">
      <PointData>
        <DataArray type="Float64" Name="nsi_BC" NumberOfComponents="3" format="ascii" RangeMin="0" RangeMax="100">
          0 0 0 0 0 0
          0 0 0 0 0 0
          0 0 0 0 0 0
          0 0 0 0 0 0
          0 0 0 0 0 0
          0 0 0 0 0 0
          0 0 0 0 0 0
          0 0 0 0 0 0
          0 0 0 0 0 0
          0 0 0 0 0 0
          0 0 0 0 0 0
          0 0 0 0 0 0
          0 0 0 0 0 0
          0 0 0 0 0 0
          0 0 0 0 0 0
          0 0 0 100 0 0
          100 0 0 100 0 0
          100 0 0 100 0 0
          <InformationKey name="L2_NORM_RANGE" location="vtkDataArray" length="2">
            <Value index="0">
              0
            </Value>
            <Value index="1">
              100
            </Value>
          </InformationKey>
        </DataArray>
        <DataArray type="Float64" Name="nsi_FIXNO" NumberOfComponents="3" format="ascii" RangeMin="1" RangeMax="1.4142135623730951">
          0 1 0 -1 -1 0
          0 1 0 -1 -1 0
          0 1 0 -1 -1 0
          0 1 0 -1 -1 0
          0 1 0 -1 -1 0
          -1 -1 0 0 1 0
          0 1 0 -1 -1 0
          -1 -1 0 -1 -1 0
          -1 -1 0 1 1 0
          -1 -1 0 1 1 0
          -1 -1 0 1 1 0
          0 1 0 0 1 0
          -1 -1 0 -1 -1 0
          -1 -1 0 -1 -1 0
          -1 -1 0 0 1 0
          -1 -1 0 1 1 0
          1 1 0 1 1 0
          1 1 0 1 1 0
          <InformationKey name="L2_NORM_RANGE" location="vtkDataArray" length="2">
            <Value index="0">
              1
            </Value>
            <Value index="1">
              1.4142135624
            </Value>
          </InformationKey>
        </DataArray>
        <DataArray type="Float64" Name="Velocity" NumberOfComponents="3" format="ascii" RangeMin="0" RangeMax="123.28681948683595">
          84.01356529706035 0 0 96.27394640842736 0.5813455286550286 0
          -8.235472871133663 0 0 -26.29850598570714 0.3368355375220205 0
          1.8879035988061705 0 0 8.839289741348201 0.007167730739528588 0
          123.28681948683595 0 0 17.66879747107087 0.04120325628198218 0
          -46.06958218032943 0 0 1.420184834958743 -0.013549744392508778 0
          -3.350379856859623 -0.08815154841568629 0 1.6821942713589673 0 0
          6.37706826505859 0 0 4.113691680092136 -0.3018862429159159 0
          1.3991391435810456 -0.2154181731687035 0 2.549733294301033 -0.16034612495639822 0
          4.9324621082766225 0.4110372165191961 0 0 0 0
          5.397517304112792 -0.2430771098665856 0 0 0 0
          -1.4099218360268857 -1.4077039756086194 0 0 0 0
          1.545749927525896 0 0 14.93732741091989 0 0
          0.3821085349280846 0.2005884349709779 0 -0.8885753319315803 -0.7701187370376203 0
          -1.8128781658294653 0.5167935735352729 0 22.99743172197267 0.8485333039697451 0
          24.147432849199706 0.8353877381732727 0 6.939573518155315 0 0
          22.249528989305453 1.5328294216078986 0 100 0 0
          100.00000000000001 0 0 100 0 0
          100.00000000000001 0 0 100 0 0
          <InformationKey name="L2_NORM_RANGE" location="vtkDataArray" length="2">
            <Value index="0">
              0
            </Value>
            <Value index="1">
              123.28681949
            </Value>
          </InformationKey>
        </DataArray>
        <DataArray type="Float64" Name="Pressure" format="ascii" RangeMin="25656.59295726165" RangeMax="314535.2796686391">
          41737.84509175011 25656.59295726165 78464.79656201808 65220.67132122745 113701.57766794992 109549.68084427212
          32237.8089434025 99341.8492374648 65358.023235923734 135262.10098916947 126672.7958981522 143714.42497745977
          116371.61804660084 147423.68478493748 159137.68341784863 143596.66314197975 161266.55775550986 163749.6777714018
          164773.6074712409 181585.4770792733 185536.25326254944 182108.70498242334 149128.20240535846 191766.44405289288
          169861.6297043886 202445.83890122743 195299.91564487308 227873.62859434346 236947.44520755706 195293.74973340312
          229073.3707133 302664.20262268354 300489.34373908135 314535.2796686391 307087.87062274443 286111.13609909394
        </DataArray>
      </PointData>
      <CellData>
        <DataArray type="UInt8" Name="vtkGhostType" format="ascii" RangeMin="0" RangeMax="0">
          0 0 0 0 0 0
          0 0 0 0 0 0
          0 0 0 0 0 0
          0 0 0 0 0 0
          0 0 0 0 0 0
          0 0 0 0 0 0
          0 0 0 0 0 0
          0 0 0 0 0 0
          0 0 0 0 0
        </DataArray>
      </CellData>
      <Points>
        <DataArray type="Float32" Name="Points" NumberOfComponents="3" format="ascii" RangeMin="0" RangeMax="17.88854381999832">
          16 0 0 16 3.9845468997955322 0
          11.453479766845703 0 0 12.217379570007324 3.3701679706573486 0
          8.368659973144531 0 0 8.773821830749512 2.904007911682129 0
          16 8 0 9.623482704162598 5.332449913024902 0
          11.453479766845703 8 0 6.414117813110352 2.3587939739227295 0
          7.382616996765137 4.82568883895874 0 5.579105854034424 0 0
          8.368659973144531 8 0 5.491477966308594 4.187727928161621 0
          4.728445053100586 1.5895390510559082 0 5.938247203826904 6.11269998550415 0
          4.574699878692627 3.0045900344848633 0 4.5 4 0
          4.574699878692627 4.995409965515137 0 3.75 3.5669870376586914 0
          3.413969039916992 2.5047481060028076 0 3.75 4.433012962341309 0
          5.579105854034424 8 0 2.789552927017212 0 0
          4.232917785644531 6.667374134063721 0 2.888730049133301 3.850830078125 0
          3.079637050628662 5.158480167388916 0 1.7905149459838867 2.8673698902130127 0
          1.5482569932937622 4.574378967285156 0 2.789552927017212 8 0
          1.5213489532470703 6.280706882476807 0 0 0 0
          0 2.162787914276123 0 0 4.072348117828369 0
          0 5.883182048797607 0 0 8 0
          <InformationKey name="L2_NORM_RANGE" location="vtkDataArray" length="2">
            <Value index="0">
              0
            </Value>
            <Value index="1">
              17.88854382
            </Value>
          </InformationKey>
        </DataArray>
      </Points>
      <Cells>
        <DataArray type="Int64" Name="connectivity" format="ascii" RangeMin="0" RangeMax="35">
          17 19 16 19 21 25
          21 17 18 16 19 20
          25 21 26 18 17 13
          17 16 13 19 25 20
          21 18 26 16 20 14
          25 26 28 18 13 15
          14 20 23 28 26 30
          15 13 10 16 14 9
          25 28 27 18 15 24
          30 26 24 9 14 11
          24 15 22 10 13 9
          27 28 33 33 28 34
          28 30 34 34 30 35
          16 9 13 18 24 26
          15 10 12 25 27 20
          11 14 23 33 32 27
          27 32 23 24 22 29
          24 29 30 20 27 23
          32 31 23 22 15 12
          35 30 29 9 11 4
          10 9 5 5 9 4
          10 5 7 5 4 2
          7 5 3 10 7 12
          8 12 7 8 3 1
          3 5 2 3 2 0
          7 3 8 0 1 3
          1 6 8
        </DataArray>
        <DataArray type="Int64" Name="offsets" format="ascii" RangeMin="3" RangeMax="159">
          3 6 9 12 15 18
          21 24 27 30 33 36
          39 42 45 48 51 54
          57 60 63 66 69 72
          75 78 81 84 87 90
          93 96 99 102 105 108
          111 114 117 120 123 126
          129 132 135 138 141 144
          147 150 153 156 159
        </DataArray>
        <DataArray type="UInt8" Name="types" format="ascii" RangeMin="5" RangeMax="5">
          5 5 5 5 5 5
          5 5 5 5 5 5
          5 5 5 5 5 5
          5 5 5 5 5 5
          5 5 5 5 5 5
          5 5 5 5 5 5
          5 5 5 5 5 5
          5 5 5 5 5 5
          5 5 5 5 5
        </DataArray>
      </Cells>
    </Piece>
  </UnstructuredGrid>
</VTKFile>
