<?xml version="1.0"?>
<VTKFile type="UnstructuredGrid" version="0.1" byte_order="LittleEndian" header_type="UInt32" compressor="vtkZLibDataCompressor">
  <UnstructuredGrid>
    <Piece NumberOfPoints="36" NumberOfCells="53">
      <PointData>
        <DataArray type="Float64" Name="nsi_BC" NumberOfComponents="3" format="ascii" RangeMin="0" RangeMax="100">
          0 0 0 0 0 0
          0 0 0 0 0 0
          0 0 0 0 0 0
          0 0 0 0 0 0
          0 0 0 0 0 0
          0 0 0 0 0 0
          0 0 0 0 0 0
          0 0 0 0 0 0
          0 0 0 0 0 0
          0 0 0 0 0 0
          0 0 0 0 0 0
          0 0 0 0 0 0
          0 0 0 0 0 0
          0 0 0 0 0 0
          0 0 0 0 0 0
          0 0 0 100 0 0
          100 0 0 100 0 0
          100 0 0 100 0 0
          <InformationKey name="L2_NORM_RANGE" location="vtkDataArray" length="2">
            <Value index="0">
              0
            </Value>
            <Value index="1">
              100
            </Value>
          </InformationKey>
        </DataArray>
        <DataArray type="Float64" Name="nsi_FIXNO" NumberOfComponents="3" format="ascii" RangeMin="1" RangeMax="1.4142135623730951">
          0 1 0 -1 -1 0
          0 1 0 -1 -1 0
          0 1 0 -1 -1 0
          0 1 0 -1 -1 0
          0 1 0 -1 -1 0
          -1 -1 0 0 1 0
          0 1 0 -1 -1 0
          -1 -1 0 -1 -1 0
          -1 -1 0 1 1 0
          -1 -1 0 1 1 0
          -1 -1 0 1 1 0
          0 1 0 0 1 0
          -1 -1 0 -1 -1 0
          -1 -1 0 -1 -1 0
          -1 -1 0 0 1 0
          -1 -1 0 1 1 0
          1 1 0 1 1 0
          1 1 0 1 1 0
          <InformationKey name="L2_NORM_RANGE" location="vtkDataArray" length="2">
            <Value index="0">
              1
            </Value>
            <Value index="1">
              1.4142135624
            </Value>
          </InformationKey>
        </DataArray>
        <DataArray type="Float64" Name="Velocity" NumberOfComponents="3" format="ascii" RangeMin="0" RangeMax="123.66344781230549">
          80.7755165912273 0 0 97.69767439807221 0.007626195246325018 0
          -8.159950635309 0 0 -28.765969849965877 0.024198323082229578 0
          -0.14497013528318448 0 0 6.311182200918471 0.012074499554318052 0
          123.66344781230549 0 0 17.873991234143695 -0.015969375581452283 0
          -48.31704550807336 0 0 -0.08878743729083283 0.041077773872224554 0
          -5.126130637385568 -0.016886532720914005 0 0.13389636441291586 0 0
          4.1073792762772925 0 0 1.6662555194574047 -0.029586590795027234 0
          -0.019468108986778532 0.010849172133525542 0 0.5203100936426353 -0.027451044512297074 0
          1.0017708469592925 0.1806779831940979 0 0 0 0
          1.2012251974244137 -0.07792004077065684 0 0 0 0
          -1.9003884364633663 -0.31113511246729547 0 0 0 0
          -0.3613421899322873 0 0 4.380891182080141 0 0
          -0.6680893640346071 -0.0018339870961794347 0 -1.9485844498716176 -0.22076076918134824 0
          -1.9920739802041965 0.1110086813937663 0 7.670945651537153 0.8861775272627765 0
          7.9794189081515725 -0.026402765271054562 0 1.4926418354654771 0 0
          7.4855673909826805 0.28472090756905644 0 100 0 0
          100 0 0 100 0 0
          99.99999999999999 0 0 100 0 0
          <InformationKey name="L2_NORM_RANGE" location="vtkDataArray" length="2">
            <Value index="0">
              0
            </Value>
            <Value index="1">
              123.66344781
            </Value>
          </InformationKey>
        </DataArray>
        <DataArray type="Float64" Name="Pressure" format="ascii" RangeMin="1124728.963997063" RangeMax="1167721.407628116">
          1125079.8512056915 1124728.963997063 1128254.8515377275 1127423.630736325 1133490.4523422397 1132161.8743675326
          1124958.3863269093 1130660.315821151 1127538.0863362895 1137363.545278856 1135027.742456328 1140922.952438529
          1133420.450981352 1140086.8067106134 1145552.596050117 1138873.617164832 1144336.0796357014 1144423.3584455966
          1145084.7904732504 1150860.0508057154 1152456.962631901 1150453.1132399645 1140695.0217630125 1152808.9489190646
          1147294.5644216717 1156139.3498220022 1153995.2874456528 1158876.7187002045 1161913.5649078526 1153255.3814764477
          1160140.8882401185 1160123.7366034794 1165019.1731392788 1167721.407628116 1166222.4012382026 1165472.8779110876
        </DataArray>
      </PointData>
      <CellData>
        <DataArray type="UInt8" Name="vtkGhostType" format="ascii" RangeMin="0" RangeMax="0">
          0 0 0 0 0 0
          0 0 0 0 0 0
          0 0 0 0 0 0
          0 0 0 0 0 0
          0 0 0 0 0 0
          0 0 0 0 0 0
          0 0 0 0 0 0
          0 0 0 0 0 0
          0 0 0 0 0
        </DataArray>
      </CellData>
      <Points>
        <DataArray type="Float32" Name="Points" NumberOfComponents="3" format="ascii" RangeMin="0" RangeMax="17.88854381999832">
          16 0 0 16 3.9845468997955322 0
          11.453479766845703 0 0 12.217379570007324 3.3701679706573486 0
          8.368659973144531 0 0 8.773821830749512 2.904007911682129 0
          16 8 0 9.623482704162598 5.332449913024902 0
          11.453479766845703 8 0 6.414117813110352 2.3587939739227295 0
          7.382616996765137 4.82568883895874 0 5.579105854034424 0 0
          8.368659973144531 8 0 5.491477966308594 4.187727928161621 0
          4.728445053100586 1.5895390510559082 0 5.938247203826904 6.11269998550415 0
          4.574699878692627 3.0045900344848633 0 4.5 4 0
          4.574699878692627 4.995409965515137 0 3.75 3.5669870376586914 0
          3.413969039916992 2.5047481060028076 0 3.75 4.433012962341309 0
          5.579105854034424 8 0 2.789552927017212 0 0
          4.232917785644531 6.667374134063721 0 2.888730049133301 3.850830078125 0
          3.079637050628662 5.158480167388916 0 1.7905149459838867 2.8673698902130127 0
          1.5482569932937622 4.574378967285156 0 2.789552927017212 8 0
          1.5213489532470703 6.280706882476807 0 0 0 0
          0 2.162787914276123 0 0 4.072348117828369 0
          0 5.883182048797607 0 0 8 0
          <InformationKey name="L2_NORM_RANGE" location="vtkDataArray" length="2">
            <Value index="0">
              0
            </Value>
            <Value index="1">
              17.88854382
            </Value>
          </InformationKey>
        </DataArray>
      </Points>
      <Cells>
        <DataArray type="Int64" Name="connectivity" format="ascii" RangeMin="0" RangeMax="35">
          17 19 16 19 21 25
          21 17 18 16 19 20
          25 21 26 18 17 13
          17 16 13 19 25 20
          21 18 26 16 20 14
          25 26 28 18 13 15
          14 20 23 28 26 30
          15 13 10 16 14 9
          25 28 27 18 15 24
          30 26 24 9 14 11
          24 15 22 10 13 9
          27 28 33 33 28 34
          28 30 34 34 30 35
          16 9 13 18 24 26
          15 10 12 25 27 20
          11 14 23 33 32 27
          27 32 23 24 22 29
          24 29 30 20 27 23
          32 31 23 22 15 12
          35 30 29 9 11 4
          10 9 5 5 9 4
          10 5 7 5 4 2
          7 5 3 10 7 12
          8 12 7 8 3 1
          3 5 2 3 2 0
          7 3 8 0 1 3
          1 6 8
        </DataArray>
        <DataArray type="Int64" Name="offsets" format="ascii" RangeMin="3" RangeMax="159">
          3 6 9 12 15 18
          21 24 27 30 33 36
          39 42 45 48 51 54
          57 60 63 66 69 72
          75 78 81 84 87 90
          93 96 99 102 105 108
          111 114 117 120 123 126
          129 132 135 138 141 144
          147 150 153 156 159
        </DataArray>
        <DataArray type="UInt8" Name="types" format="ascii" RangeMin="5" RangeMax="5">
          5 5 5 5 5 5
          5 5 5 5 5 5
          5 5 5 5 5 5
          5 5 5 5 5 5
          5 5 5 5 5 5
          5 5 5 5 5 5
          5 5 5 5 5 5
          5 5 5 5 5 5
          5 5 5 5 5
        </DataArray>
      </Cells>
    </Piece>
  </UnstructuredGrid>
</VTKFile>
