<?xml version="1.0"?>
<VTKFile type="UnstructuredGrid" version="0.1" byte_order="LittleEndian" header_type="UInt32" compressor="vtkZLibDataCompressor">
  <UnstructuredGrid>
    <Piece NumberOfPoints="25" NumberOfCells="15">
      <PointData>
        <DataArray type="Float64" Name="Velocity" NumberOfComponents="3" format="ascii" RangeMin="0" RangeMax="1.004288096828378">
          0 0 0 0 0 0
          0 0 0 -0.4869999560970942 -0.1093550523617733 0
          0.8406879402715116 0.15330518395603454 0 0 0 0
          0 0 0 0 0 0
          -0.26719315366847324 -0.16528877889498503 0 0 0 0
          0 0 0 0 0 0
          0 0 0 0 0 0
          -0.47783742940463425 0.007869344955266061 0 0.226797833156428 0.47141379562039304 0
          -0.15046195694872 -0.04164971518605806 0 -0.23032490151467752 -0.19038708182278993 0
          0.5763736910101346 0.6007491785240557 0 0.9668405670177745 0.27168713513877296 0
          0 0 0 0 0 0
          0 0 0 0 0 0
          0 0 0
          <InformationKey name="L2_NORM_RANGE" location="vtkDataArray" length="2">
            <Value index="0">
              0
            </Value>
            <Value index="1">
              1.0042880968
            </Value>
          </InformationKey>
        </DataArray>
        <DataArray type="Float64" Name="Temperature" format="ascii" RangeMin="163.67362817198972" RangeMax="960.0002599550161">
          959.9992765868197 756.6244940164604 960.0001085283667 274.8682839920899 461.2464662603191 960.0002599550161
          163.67362817198972 240.00034263613438 272.4963242047881 237.88131357497622 243.93506167816702 239.99993680240763
          240.00032344861575 959.9996472343004 303.3162802257244 388.00908584151375 264.3764161480558 355.02395020881687
          669.747679439689 514.9233251618919 240.00009193751583 859.3770332276185 959.9999340160368 738.7056869589313
          239.999882024199
        </DataArray>
        <DataArray type="Float64" Name="Density" format="ascii" RangeMin="0.25107426149167406" RangeMax="1.4726340400222744">
          0.25107451867774666 0.3185613976366685 0.25107430109514267 0.8768976645808911 0.5225652095597564 0.25107426149167406
          1.4726340400222744 1.004295884133172 0.8845306702885263 1.0132420772262622 0.9880964000903765 1.0042975823717084
          1.0042959644245053 0.2510744217400675 0.7946535415792653 0.6212002891047569 0.9116976461510041 0.6789157637343951
          0.3598838244600827 0.46809174205546145 1.0042969331977316 0.2804721873876051 0.2510743467363554 0.3262887514678373
          1.0042978115952481
        </DataArray>
      </PointData>
      <CellData>
        <DataArray type="UInt8" Name="vtkGhostType" format="ascii" RangeMin="0" RangeMax="1">
          1 1 1 1 1 1
          1 1 1 1 1 1
          1 0 1
        </DataArray>
      </CellData>
      <Points>
        <DataArray type="Float32" Name="Points" NumberOfComponents="3" format="ascii" RangeMin="0" RangeMax="1.4142135623730951">
          0 0.75 0 0.5 1 0
          0 0.5 0 0.25 0.25 0
          0.75 0.75 0 0 0 0
          0.25 0 0 1 0.75 0
          0.75 0.25 0 0.5 0 0
          0.75 0 0 1 0.25 0
          1 0 0 0 0.25 0
          0.5 0.25 0 0.25 0.5 0
          0.5 0.5 0 0.75 0.5 0
          0.25 0.75 0 0.5 0.75 0
          1 0.5 0 0.25 1 0
          0 1 0 0.75 1 0
          1 1 0
          <InformationKey name="L2_NORM_RANGE" location="vtkDataArray" length="2">
            <Value index="0">
              0
            </Value>
            <Value index="1">
              1.4142135624
            </Value>
          </InformationKey>
        </DataArray>
      </Points>
      <Cells>
        <DataArray type="Int64" Name="connectivity" format="ascii" RangeMin="0" RangeMax="24">
          6 3 13 5 9 14
          3 6 3 15 2 13
          14 16 15 3 8 17
          16 14 15 18 0 2
          17 4 19 16 20 7
          4 17 18 21 22 0
          19 1 21 18 4 23
          1 19 7 24 23 4
          10 8 14 9 12 11
          8 10 11 20 17 8
        </DataArray>
        <DataArray type="Int64" Name="offsets" format="ascii" RangeMin="4" RangeMax="60">
          4 8 12 16 20 24
          28 32 36 40 44 48
          52 56 60
        </DataArray>
        <DataArray type="UInt8" Name="types" format="ascii" RangeMin="9" RangeMax="9">
          9 9 9 9 9 9
          9 9 9 9 9 9
          9 9 9
        </DataArray>
      </Cells>
    </Piece>
  </UnstructuredGrid>
</VTKFile>
