<?xml version="1.0"?>
<VTKFile type="UnstructuredGrid" version="0.1" byte_order="LittleEndian" header_type="UInt32" compressor="vtkZLibDataCompressor">
  <UnstructuredGrid>
    <Piece NumberOfPoints="33" NumberOfCells="20">
      <PointData>
        <DataArray type="Float64" Name="sld_BC" NumberOfComponents="3" format="ascii" RangeMin="0" RangeMax="0">
          0 0 0 0 0 0
          0 0 0 0 0 0
          0 0 0 0 0 0
          0 0 0 0 0 0
          0 0 0 0 0 0
          0 0 0 0 0 0
          0 0 0 0 0 0
          0 0 0 0 0 0
          0 0 0 0 0 0
          0 0 0 0 0 0
          0 0 0 0 0 0
          0 0 0 0 0 0
          0 0 0 0 0 0
          0 0 0 0 0 0
          0 0 0 0 0 0
          0 0 0 0 0 0
          0 0 0
          <InformationKey name="L2_NORM_RANGE" location="vtkDataArray" length="2">
            <Value index="0">
              0
            </Value>
            <Value index="1">
              0
            </Value>
          </InformationKey>
        </DataArray>
        <DataArray type="Float64" Name="sld_FIXNO" NumberOfComponents="3" format="ascii" RangeMin="1.4142135623730951" RangeMax="1.4142135623730951">
          -1 -1 0 -1 -1 0
          -1 -1 0 -1 -1 0
          -1 -1 0 -1 -1 0
          -1 -1 0 -1 -1 0
          -1 -1 0 -1 -1 0
          -1 -1 0 -1 -1 0
          -1 -1 0 -1 -1 0
          -1 -1 0 -1 -1 0
          -1 -1 0 -1 -1 0
          -1 -1 0 -1 -1 0
          -1 -1 0 -1 -1 0
          -1 -1 0 -1 -1 0
          -1 -1 0 -1 -1 0
          1 1 0 -1 -1 0
          -1 -1 0 -1 -1 0
          1 1 0 -1 -1 0
          1 1 0
          <InformationKey name="L2_NORM_RANGE" location="vtkDataArray" length="2">
            <Value index="0">
              1.4142135624
            </Value>
            <Value index="1">
              1.4142135624
            </Value>
          </InformationKey>
        </DataArray>
        <DataArray type="Float64" Name="Disp" NumberOfComponents="3" format="ascii" RangeMin="0" RangeMax="0.029408769358253487">
          0.029124133748196286 0.004081733526839226 0 0.02506219552809642 0.004062641546521604 0
          0.021011114380248917 0.003992824031609044 0 0.029117308742095494 0.00003727906056486853 0
          0.01704505357209228 0.0038456494361649696 0 0.025061643192001912 0.00001560283706365795 0
          0.013256595184868967 0.0036050679440444594 0 0.02098565412651784 0.00002279227736408276 0
          0.029118976820155608 -0.004006731235791388 0 0.009751602780666935 0.003262648889722773 0
          0.0170141443344812 -0.000008361169561152144 0 0.025055944474214553 -0.0039888117707441734 0
          0.013189094787380394 0.000015084203941979739 0 0.006634658926379686 0.0028167182938440565 0
          0.02100382891078692 -0.00392196307657597 0 0.009648589148788762 0.000007387897511140795 0
          0.01703594962730304 -0.0037797258703470026 0 0.004009823467955411 0.0022662500595148558 0
          0.006496305938484957 0.000010392725316619094 0 0.013247511507988165 -0.0035451818016254766 0
          0.0019758945942436406 0.0016118722329358163 0 0.009741007759152164 -0.0032108268987483726 0
          0.003876207428011543 0.000021683857591996565 0 0.0006661504104050908 0.0008367159583378954 0
          0.006623178682134353 -0.0027738683745439884 0 0.0018258584519706648 0.000005489031287982826 0
          0 0 0 0.0039999968370359575 -0.0022337009678337085 0
          0.00044742138001605355 0.0000032752605618391303 0 0.001962872271967728 -0.0015908329631741218 0
          0 0 0 0.0006543064059959512 -0.0008259997953197652 0
          0 0 0
          <InformationKey name="L2_NORM_RANGE" location="vtkDataArray" length="2">
            <Value index="0">
              0
            </Value>
            <Value index="1">
              0.029408769358
            </Value>
          </InformationKey>
        </DataArray>
        <DataArray type="Float64" Name="Sld_traction" NumberOfComponents="3" format="ascii" RangeMin="0" RangeMax="2180.056150665829">
          17.57686965446244 8.751759023545153 0 -22.940371963351673 -59.600177055214424 0
          -96.50785683499903 -98.10720790611474 0 34.488257845656385 -2.874611366634931 0
          -194.64017735058545 -122.56727806707796 0 0 0 0
          -307.81461908207353 -136.17878831358095 0 0 0 0
          5.025755766275576 -10.39340961883373 0 -425.37344142847724 -143.38942521358075 0
          0 0 0 -51.22928755381664 62.0066525493519 0
          0 0 0 -541.9090298339838 -147.02547864492487 0
          -125.9193252000528 100.16038030364791 0 0 0 0
          -225.3922754331967 123.42779422535958 0 -662.5276759628707 -149.0447464180024 0
          0 0 0 -338.1320416630269 137.0958449038629 0
          -784.3526790305814 -138.2967889701954 0 -457.4572802135465 144.68820088668704 0
          0 0 0 -937.5178062796192 -254.28612574252654 0
          -575.739249581982 147.71271338164013 0 0 0 0
          -1225.112335603033 -1803.2594336947727 0 -695.2037142743833 150.1738395484029 0
          0 0 0 -822.0479527764205 139.55417518496552 0
          -797.2636190321315 -21.301719332189162 0 -965.338183368778 247.67214668917305 0
          -1217.3261293050791 1770.0011417426847 0
          <InformationKey name="L2_NORM_RANGE" location="vtkDataArray" length="2">
            <Value index="0">
              0
            </Value>
            <Value index="1">
              2180.0561507
            </Value>
          </InformationKey>
        </DataArray>
        <DataArray type="Float64" Name="Fld_traction" NumberOfComponents="3" format="ascii" RangeMin="0" RangeMax="38.27198046487218">
          24.261332622780007 -0.1819973856389001 0 37.76348852443684 6.217991891944312 0
          37.24056825359256 3.7685239508187216 0 14.826194896104257 -3.6523700652554654 0
          36.33690587768322 2.4302227231035793 0 0 0 0
          35.97122191970894 1.597172476807967 0 0 0 0
          12.528838796158938 -1.9210609679130248 0 35.61926395556566 0.9736636961055228 0
          0 0 0 10.235562960571102 -1.4831989004807222 0
          0 0 0 35.17118273747048 0.5326315504029846 0
          6.490474010430478 -0.04148479866874018 0 0 0 0
          4.33360795658961 0.2742554154462613 0 34.74512358393431 0.2567540847636673 0
          0 0 0 2.913158322073079 0.3974384662799203 0
          34.50641871744869 0.08892636727407374 0 2.027584792352064 0.42851649999941455 0
          0 0 0 34.29078116435394 0.01130022760423855 0
          1.2995401240163647 0.39832088774713836 0 0 0 0
          17.372879111158316 -16.82811544254956 0 0.8400756619758003 0.319377805681414 0
          0 0 0 0.5221045650480767 0.20792494870192113 0
          0 0 0 0.42614323304397284 0.06453421014307736 0
          0.24297447164780817 0.2435875679005715 0
          <InformationKey name="L2_NORM_RANGE" location="vtkDataArray" length="2">
            <Value index="0">
              0
            </Value>
            <Value index="1">
              38.271980465
            </Value>
          </InformationKey>
        </DataArray>
        <DataArray type="Float64" Name="Velocity" NumberOfComponents="3" format="ascii" RangeMin="0" RangeMax="0.14912913310908074">
          0.14718256575206934 0.019298726054038234 0 0.12663201569422516 0.018992813260010562 0
          0.10619793370083529 0.018482862035196126 0 0.14738842591589818 -0.0011084654581924955 0
          0.08645542622236427 0.017613325783440922 0 0.12693721052168008 -0.0013468630528980208 0
          0.0679087434943685 0.016401491547707314 0 0.10641466474816084 -0.0013276023831912446 0
          0.14757342088137954 -0.021484501186509717 0 0.05091873794700669 0.014920359746335305 0
          0.08668377001054682 -0.001412566307797751 0 0.12708647961857852 -0.021438920217601083 0
          0.0680107814346059 -0.001168838865432333 0 0.035663937757469864 0.013194103439073209 0
          0.10673718670009136 -0.02097938688288436 0 0.05091750560608309 -0.0010384186475425159 0
          0.0870455805408035 -0.02000635357518745 0 0.02231657486992722 0.01109741603510797 0
          0.03554503219592835 -0.0008269790434883541 0 0.06854309439679551 -0.018577476459392537 0
          0.011265788338554161 0.008352849724034961 0 0.051575587132691066 -0.01680496401312664 0
          0.02223157206654856 -0.0005552537461997124 0 0.0035573749366579954 0.004554223476086127 0
          0.03633818847711229 -0.014734306680163688 0 0.011053207292519249 -0.0004031453900367882 0
          0 0 0 0.023013916615659123 -0.012255679637901366 0
          0.0029015433588068726 -0.0001236292375705279 0 0.011974253930976819 -0.009106696311346507 0
          0 0 0 0.004301676572909419 -0.004931844039868178 0
          0 0 0
          <InformationKey name="L2_NORM_RANGE" location="vtkDataArray" length="2">
            <Value index="0">
              0
            </Value>
            <Value index="1">
              0.14912913311
            </Value>
          </InformationKey>
        </DataArray>
      </PointData>
      <CellData>
        <DataArray type="UInt8" Name="vtkGhostType" format="ascii" RangeMin="0" RangeMax="0">
          0 0 0 0 0 0
          0 0 0 0 0 0
          0 0 0 0 0 0
          0 0
        </DataArray>
        <DataArray type="Float64" Name="Gauss Stress" NumberOfComponents="6" format="ascii" RangeMin="60.205013318063486" RangeMax="2056.62678635637">
          4.442438049705441 -36.16758012146445 0 47.925092811179624 0 0
          -32.141470510041174 29.579150428117742 0 46.27017367015195 0 0
          -29.64268770772123 142.6999400583806 0 102.17150230640561 0 0
          -0.41858681242690743 -144.88056265937368 0 103.5306457683842 0 0
          -390.8716585031804 -1974.71084629758 0 208.87493069236922 0 0
          380.3102819060448 2009.624279615222 0 215.61095198545516 0 0
          -3.2722899631057203 -312.0050394633146 0 140.58695090470619 0 0
          -29.95535611906871 313.39776917964264 0 139.7481606860173 0 0
          -98.08020320838159 1672.4591033792628 0 193.64367038423848 0 0
          59.00111260391796 -1643.4468757966854 0 194.76439035604932 0 0
          -27.54601752552317 519.417561160427 0 161.55451935010348 0 0
          -6.9639326239980335 -514.5881032425549 0 161.21290315878502 0 0
          -16.16403253348315 1442.911446339814 0 180.1515211213626 0 0
          -19.42954219118411 -1410.2600328969302 0 181.56246701753906 0 0
          -9.036994023923853 -733.1560924175635 0 170.6087062246055 0 0
          -25.7862563694555 745.1877679671669 0 170.17358876121767 0 0
          -0.48544689073958125 -1181.0945809340585 0 174.16026230322333 0 0
          -33.421451444691684 1209.6141889588114 0 174.56310220348692 0 0
          -24.971514764334998 973.9424928955126 0 172.41643749429525 0 0
          -12.634387617466928 -957.9127512089667 0 173.00408831684916 0 0
          <InformationKey name="L2_NORM_RANGE" location="vtkDataArray" length="2">
            <Value index="0">
              60.205013318
            </Value>
            <Value index="1">
              2056.6267864
            </Value>
          </InformationKey>
        </DataArray>
        <DataArray type="Float64" Name="Gauss Strain" NumberOfComponents="6" format="ascii" RangeMin="0.0006529949187503612" RangeMax="0.00912371119145034">
          0.00009073987436301542 -0.00017322524374958884 0 0.0006230262065453351 0 0
          -0.0002039230341555169 0.00019726100194251598 0 0.0006015122577119753 0 0
          -0.0004131391121839738 0.0007070879682956881 0 0.0013282295299832728 0 0
          0.00028061252718923624 -0.0006583903158159177 0 0.0013458983949889945 0 0
          0.0020722201040908094 -0.008222734616572787 0 0.0027153740990007993 0 0
          -0.0021883555625771783 0.00840218542253247 0 0.002802942375810916 0 0
          0.0005935209076213324 -0.0014132419641300251 0 0.0018276303617611803 0 0
          -0.0007474225202420657 0.0014843727941995578 0 0.0018167260889182246 0 0
          -0.0037075601761876985 0.00780094531663199 0 0.0025173677149951 0 0
          0.0034731764701513637 -0.007592735454452557 0 0.002531937074628642 0 0
          -0.001138198624003963 0.0024170646374547127 0 0.0021002087515513447 0 0
          0.000971760907883791 -0.0023277962011368277 0 0.002095767741064205 0 0
          -0.0028872236683899852 0.0065967669442864455 0 0.0023419697745777133 0 0
          0.002661602647179126 -0.006378795542408223 0 0.0023603120712280086 0 0
          0.0013885360574053959 -0.003318238082153263 0 0.0022179131809198713 0 0
          -0.0015704436140169982 0.0034408875441710473 0 0.002212256653895829 0 0
          0.00230092564946855 -0.005373033721813026 0 0.0022640834099419034 0 0
          -0.0025108152725430294 0.0055689163900797395 0 0.0022693203286453297 0 0
          -0.0020128082533239743 0.004480132796465036 0 0.0022414136874258383 0 0
          0.0018104434011980107 -0.004333865962146737 0 0.0022490531481190387 0 0
          <InformationKey name="L2_NORM_RANGE" location="vtkDataArray" length="2">
            <Value index="0">
              0.00065299491875
            </Value>
            <Value index="1">
              0.0091237111915
            </Value>
          </InformationKey>
        </DataArray>
        <DataArray type="Float64" Name="Btraction" NumberOfComponents="3" format="ascii" RangeMin="0.18416323140708235" RangeMax="18.916492526099436">
          6.838758423065798 -1.3933577582921226 0 15.50620528680421 1.5089986265763529 0
          18.75101419450735 2.4966289606907575 0 4.181509242750395 -0.3811709247873656 0
          0.16727942617294522 0.07703044451091222 0 12.91591506887806 -4.2042038037363305 0
          2.7060204917550217 0.058192654194380286 0 18.394368532818945 1.549686668480575 0
          17.19929997045065 0.025056648719578068 0 0.23706194952301235 0.06811478971124962 0
          18.07703194934804 1.0068487999778866 0 1.8116915696656721 0.1679234704315454 0
          17.31288557534575 0.08642011300943525 0 0.3405450567559692 0.13182568859583377 0
          1.2351857786062856 0.2064887415698337 0 17.89762146881865 0.6427090432283724 0
          0.5349039464980412 0.1794246733571381 0 17.479076580351194 0.19734640879166293 0
          17.697611673259033 0.3765738116271268 0 0.831781229092107 0.2067093469366382 0
          <InformationKey name="L2_NORM_RANGE" location="vtkDataArray" length="2">
            <Value index="0">
              0.18416323141
            </Value>
            <Value index="1">
              18.916492526
            </Value>
          </InformationKey>
        </DataArray>
      </CellData>
      <Points>
        <DataArray type="Float32" Name="Points" NumberOfComponents="3" format="ascii" RangeMin="1.4500000476837158" RangeMax="1.6286497021092299">
          1.4500000476837158 0.5 0 1.4500000476837158 0.44999998807907104 0
          1.4500000476837158 0.4000000059604645 0 1.5 0.5 0
          1.4500000476837158 0.3499999940395355 0 1.5002609491348267 0.45016080141067505 0
          1.4500000476837158 0.30000001192092896 0 1.5001590251922607 0.4000298082828522 0
          1.5499999523162842 0.5 0 1.4500000476837158 0.25 0
          1.5005459785461426 0.35020819306373596 0 1.5499999523162842 0.44999998807907104 0
          1.5002089738845825 0.30000561475753784 0 1.4500000476837158 0.20000000298023224 0
          1.5499999523162842 0.4000000059604645 0 1.5002909898757935 0.24981409311294556 0
          1.5499999523162842 0.3499999940395355 0 1.4500000476837158 0.15000000596046448 0
          1.5001939535140991 0.19956040382385254 0 1.5499999523162842 0.30000001192092896 0
          1.4500000476837158 0.10000000149011612 0 1.5499999523162842 0.25 0
          1.499879002571106 0.15004639327526093 0 1.4500000476837158 0.05000000074505806 0
          1.5499999523162842 0.20000000298023224 0 1.5001660585403442 0.10008130222558975 0
          1.4500000476837158 0 0 1.5499999523162842 0.15000000596046448 0
          1.5000410079956055 0.050020311027765274 0 1.5499999523162842 0.10000000149011612 0
          1.5 0 0 1.5499999523162842 0.05000000074505806 0
          1.5499999523162842 0 0
          <InformationKey name="L2_NORM_RANGE" location="vtkDataArray" length="2">
            <Value index="0">
              1.4500000477
            </Value>
            <Value index="1">
              1.6286497021
            </Value>
          </InformationKey>
        </DataArray>
      </Points>
      <Cells>
        <DataArray type="Int64" Name="connectivity" format="ascii" RangeMin="0" RangeMax="32">
          11 8 3 5 3 0
          1 5 1 2 7 5
          11 5 7 14 32 31
          28 30 26 30 28 23
          16 14 7 10 7 2
          4 10 20 23 28 25
          28 31 29 25 4 6
          12 10 16 10 12 19
          17 20 25 22 25 29
          27 22 21 19 12 15
          12 6 9 15 27 24
          18 22 17 22 18 13
          9 13 18 15 15 18
          24 21
        </DataArray>
        <DataArray type="Int64" Name="offsets" format="ascii" RangeMin="4" RangeMax="80">
          4 8 12 16 20 24
          28 32 36 40 44 48
          52 56 60 64 68 72
          76 80
        </DataArray>
        <DataArray type="UInt8" Name="types" format="ascii" RangeMin="9" RangeMax="9">
          9 9 9 9 9 9
          9 9 9 9 9 9
          9 9 9 9 9 9
          9 9
        </DataArray>
      </Cells>
    </Piece>
  </UnstructuredGrid>
</VTKFile>
