<?xml version="1.0"?>
<VTKFile type="UnstructuredGrid" version="0.1" byte_order="LittleEndian" header_type="UInt32" compressor="vtkZLibDataCompressor">
  <UnstructuredGrid>
    <Piece NumberOfPoints="33" NumberOfCells="20">
      <PointData>
        <DataArray type="Float64" Name="sld_BC" NumberOfComponents="3" format="ascii" RangeMin="0" RangeMax="0">
          0 0 0 0 0 0
          0 0 0 0 0 0
          0 0 0 0 0 0
          0 0 0 0 0 0
          0 0 0 0 0 0
          0 0 0 0 0 0
          0 0 0 0 0 0
          0 0 0 0 0 0
          0 0 0 0 0 0
          0 0 0 0 0 0
          0 0 0 0 0 0
          0 0 0 0 0 0
          0 0 0 0 0 0
          0 0 0 0 0 0
          0 0 0 0 0 0
          0 0 0 0 0 0
          0 0 0
          <InformationKey name="L2_NORM_RANGE" location="vtkDataArray" length="2">
            <Value index="0">
              0
            </Value>
            <Value index="1">
              0
            </Value>
          </InformationKey>
        </DataArray>
        <DataArray type="Float64" Name="sld_FIXNO" NumberOfComponents="3" format="ascii" RangeMin="1.4142135623730951" RangeMax="1.4142135623730951">
          -1 -1 0 -1 -1 0
          -1 -1 0 -1 -1 0
          -1 -1 0 -1 -1 0
          -1 -1 0 -1 -1 0
          -1 -1 0 -1 -1 0
          -1 -1 0 -1 -1 0
          -1 -1 0 -1 -1 0
          -1 -1 0 -1 -1 0
          -1 -1 0 -1 -1 0
          -1 -1 0 -1 -1 0
          -1 -1 0 -1 -1 0
          -1 -1 0 -1 -1 0
          -1 -1 0 -1 -1 0
          1 1 0 -1 -1 0
          -1 -1 0 -1 -1 0
          1 1 0 -1 -1 0
          1 1 0
          <InformationKey name="L2_NORM_RANGE" location="vtkDataArray" length="2">
            <Value index="0">
              1.4142135624
            </Value>
            <Value index="1">
              1.4142135624
            </Value>
          </InformationKey>
        </DataArray>
        <DataArray type="Float64" Name="Disp" NumberOfComponents="3" format="ascii" RangeMin="0" RangeMax="0.021324687473576645">
          0.02112932258606761 0.002879934530438122 0 0.018285618049176465 0.0028681919396746033 0
          0.015450128696902377 0.0028280986722261795 0 0.021123481291720748 0.000046061919238644423 0
          0.012657830977642871 0.002745154894944413 0 0.018284579570339077 0.00003024258733530711 0
          0.009958000172731334 0.002605386905120606 0 0.015433640541447944 0.00003368939380049931 0
          0.021124409094026214 -0.002787649289474193 0 0.007416044118756061 0.002395235652601931 0
          0.012639974347949712 0.000009410196072711621 0 0.018279141683058005 -0.0027778424077896115 0
          0.009915456017190523 0.000023609549510935355 0 0.005108784532943872 0.0021035456483158885 0
          0.015442018240692227 -0.0027428738492274543 0 0.007347411031171809 0.000015514116617620238 0
          0.012648204330701768 -0.002667528448292296 0 0.0031251394596931463 0.0017205430564406906 0
          0.005011642282091604 0.000015369044530950753 0 0.009948085793872598 -0.0025367060958780387 0
          0.001558757591604133 0.0012412063142485327 0 0.007405142686885166 -0.002337021763053475 0
          0.0030279746057542364 0.00002180009345917749 0 0.0005336949448692967 0.0006516518750269728 0
          0.005097282941979561 -0.00205633423699807 0 0.0014454665949493453 0.0000076240741023966705 0
          0 0 0 0.0031149073235760614 -0.0016850407479436437 0
          0.00036316486539952414 0.000003983227308155428 0 0.0015462132694651174 -0.0012182458406147958 0
          0 0 0 0.0005218365996017995 -0.0006400227641272695 0
          0 0 0
          <InformationKey name="L2_NORM_RANGE" location="vtkDataArray" length="2">
            <Value index="0">
              0
            </Value>
            <Value index="1">
              0.021324687474
            </Value>
          </InformationKey>
        </DataArray>
        <DataArray type="Float64" Name="Sld_traction" NumberOfComponents="3" format="ascii" RangeMin="0" RangeMax="1715.0245239086437">
          14.708103662885485 4.979755072072144 0 -1.9709557790134018 -32.037575259640256 0
          -41.72647757309945 -54.20287852367987 0 20.102872503725155 -0.241234767249354 0
          -98.38434847385166 -75.125807112945 0 0 0 0
          -171.75186182706258 -94.61276869645025 0 0 0 0
          3.2840680906169464 -3.9597100126156723 0 -258.8581859365399 -112.5396852369232 0
          0 0 0 -28.40563208470592 34.99062785948137 0
          0 0 0 -356.41581243659755 -126.79843010937425 0
          -69.78843619226546 56.66031661189951 0 0 0 0
          -127.72497512318338 76.33551618480689 0 -465.35375273126806 -135.91651737944898 0
          0 0 0 -201.13894034056705 95.5391205469786 0
          -578.3983261761339 -128.93284695938576 0 -289.41176391438944 113.47853786314451 0
          0 0 0 -716.3550364771529 -219.2986067544185 0
          -388.14188907803447 127.2327091374148 0 0 0 0
          -965.3780508227292 -1417.516961661404 0 -496.0977172110677 136.74012711362897 0
          0 0 0 -613.2209275802624 130.12125098229018 0
          -642.9572507179198 -24.67672243650602 0 -742.074622694072 212.7218864328539 0
          -956.5404436280927 1381.2336630406407 0
          <InformationKey name="L2_NORM_RANGE" location="vtkDataArray" length="2">
            <Value index="0">
              0
            </Value>
            <Value index="1">
              1715.0245239
            </Value>
          </InformationKey>
        </DataArray>
        <DataArray type="Float64" Name="Fld_traction" NumberOfComponents="3" format="ascii" RangeMin="0" RangeMax="38.9312816591336">
          24.678381726958815 -0.12244700449055697 0 38.37432177575546 6.561716229278189 0
          37.891696719679764 4.09257684293629 0 15.181277050239178 -4.022613118963054 0
          37.01978661086447 2.7351894683495686 0 0 0 0
          36.69892619892867 1.8662594659765939 0 0 0 0
          12.987817455047995 -2.4861714511099615 0 36.38593419807656 1.1943176436810607 0
          0 0 0 10.73491356208085 -2.1261389811883666 0
          0 0 0 35.95582381815853 0.6925788427973267 0
          6.836197764187668 -0.5892995459288172 0 0 0 0
          4.661968732894485 -0.22003420325251985 0 35.512177105644085 0.3549901773600126 0
          0 0 0 3.257508140785242 -0.023609433907121013 0
          35.25137000940676 0.13348790734263205 0 2.404553734261617 0.10042970336377303 0
          0 0 0 34.989686978054024 0.020643884735055337 0
          1.6653557415283082 0.16381135280835113 0 0 0 0
          17.714846358208572 -17.157860625673724 0 1.2000517054832618 0.18678244299407787 0
          0 0 0 0.8088628524745147 0.15610108138717396 0
          0 0 0 0.6305551766891384 0.05810762443549904 0
          0.32631452393053695 0.3246849654649536 0
          <InformationKey name="L2_NORM_RANGE" location="vtkDataArray" length="2">
            <Value index="0">
              0
            </Value>
            <Value index="1">
              38.931281659
            </Value>
          </InformationKey>
        </DataArray>
        <DataArray type="Float64" Name="Velocity" NumberOfComponents="3" format="ascii" RangeMin="0" RangeMax="0.17499162811435356">
          0.17260988073307773 0.028773233802005912 0 0.14443108346257302 0.028785171013869446 0
          0.11624149363302633 0.02810615234011846 0 0.17236467209909168 0.0007571511112414598 0
          0.08903347755561211 0.02640645586538134 0 0.14414533434483334 0.0007612730420320543 0
          0.06403505699113682 0.02358575000924682 0 0.11566587865463505 0.000891717725734582 0
          0.17220928816379621 -0.027278776666178076 0 0.042503608529428305 0.019776169738498363 0
          0.08828302945071274 0.0007017116824432 0 0.1439856320276834 -0.026999854300581397 0
          0.06293476937298892 0.0008278250426741079 0 0.025371037979962714 0.015332802382053508 0
          0.11573524010369637 -0.02618418221105627 0 0.04112961909859501 0.0007133698832833382 0
          0.08846423132324743 -0.024481543307000822 0 0.013070785460563387 0.010730864087858638 0
          0.02384151405980579 0.0006279262749150878 0 0.06343393416782717 -0.021761551770504976 0
          0.0054196917670261465 0.006473787023456384 0 0.041859015757988866 -0.018147241414669266 0
          0.011697740823743703 0.0005506043115124752 0 0.0017408436847737695 0.0028483398563507777 0
          0.024697641129079382 -0.013967058821673045 0 0.00416246698833353 0.0003177436774602344 0
          0 0 0 0.012389663922736719 -0.009690729157701226 0
          0.0004687172258543043 0.00009531056771787601 0 0.004692106169127604 -0.005796788591026532 0
          0 0 0 0.0009971156828566456 -0.002507237207831654 0
          0 0 0
          <InformationKey name="L2_NORM_RANGE" location="vtkDataArray" length="2">
            <Value index="0">
              0
            </Value>
            <Value index="1">
              0.17499162811
            </Value>
          </InformationKey>
        </DataArray>
      </PointData>
      <CellData>
        <DataArray type="UInt8" Name="vtkGhostType" format="ascii" RangeMin="0" RangeMax="0">
          0 0 0 0 0 0
          0 0 0 0 0 0
          0 0 0 0 0 0
          0 0
        </DataArray>
        <DataArray type="Float64" Name="Gauss Stress" NumberOfComponents="6" format="ascii" RangeMin="33.728193449309764" RangeMax="1608.1841780078998">
          2.4375338916240947 -18.206834245520586 0 28.28711099842797 0 0
          -28.257951572582556 16.047285037639348 0 26.640218775318562 0 0
          -27.17658374613544 81.38267232410941 0 53.95763098694676 0 0
          -0.4787360180561544 -72.00387563350607 0 55.63539814790575 0 0
          -305.577400727557 -1528.0822338054404 0 184.83072223055942 0 0
          297.346485239025 1568.777443348631 0 191.77786981681663 0 0
          -2.354847254512009 -160.13821407635297 0 80.99678500241723 0 0
          -28.067342914342596 177.14962209286884 0 80.01990757822861 0 0
          -81.48655624815771 1273.4239284418786 0 175.92213077941548 0 0
          45.57962953521687 -1237.628840417753 0 177.28771982086965 0 0
          -27.187903156007742 302.9777946415045 0 104.44915553986004 0 0
          -4.418147069120629 -281.16842271590883 0 104.5836992307753 0 0
          -17.27660999976473 1058.9968862848461 0 167.15189710700366 0 0
          -15.688100095762607 -1020.2297071879289 0 168.2207558655354 0 0
          -5.8263022684095205 -431.9328252426648 0 126.2671606474884 0 0
          -26.356839011807168 458.8593325372764 0 125.88762253914352 0 0
          -0.7614233858292039 -806.8939698530913 0 157.45526133285296 0 0
          -30.895772772401656 843.396152170595 0 157.73522485787709 0 0
          -25.437878980528865 638.8554292836188 0 143.8424070109496 0 0
          -8.71015266681222 -609.8263759698489 0 144.3013118882703 0 0
          <InformationKey name="L2_NORM_RANGE" location="vtkDataArray" length="2">
            <Value index="0">
              33.728193449
            </Value>
            <Value index="1">
              1608.184178
            </Value>
          </InformationKey>
        </DataArray>
        <DataArray type="Float64" Name="Gauss Strain" NumberOfComponents="6" format="ascii" RangeMin="0.00038088176568438337" RangeMax="0.007220493124193694">
          0.00004659410598565478 -0.00008759428690578566 0 0.0003677324429795636 0 0
          -0.00015986588547864736 0.000128118152487795 0 0.00034632284407914125 0 0
          -0.0002823496670769296 0.000423285497379662 0 0.0007014492028303079 0 0
          0.00013822930860318133 -0.0003266840988972431 0 0.0007232601759227745 0 0
          0.0015893831826102242 -0.006356898232396016 0 0.0024027993889972716 0 0
          -0.0017061895066922679 0.006558111721020174 0 0.002493112307618616 0 0
          0.00030155496244085866 -0.0007240369219011075 0 0.0010529582050314238 0 0
          -0.00047314817334135305 0.0008607620992055212 0 0.0010402587985169718 0 0
          -0.0028539404913907806 0.005952977659094456 0 0.0022869877001324007 0 0
          0.002620763553199856 -0.00572009150149445 0 0.0023047403576713053 0 0
          -0.000714511658910769 0.0014315653767730601 0 0.0013578390220181803 0 0
          0.0005281758551315234 -0.0012707009365726 0 0.0013595880900000787 0 0
          -0.0021436525037543796 0.004852125222095592 0 0.0021729746623910472 0 0
          0.0019180670735807412 -0.004611453372518339 0 0.0021868698262519602 0 0
          0.0008157593339019331 -0.001953933065430726 0 0.0016414730884173488 0 0
          -0.0010146993159514117 0.0021392057991176314 0 0.0016365390930088656 0 0
          0.0015699787648080056 -0.003669882787229199 0 0.002046918397327088 0 0
          -0.001785198262847088 0.00389769924928239 0 0.002050557923152401 0 0
          -0.0013615104364644633 0.0029563960672524974 0 0.0018699512911423443 0 0
          0.0011495302385072096 -0.0027577252129625286 0 0.0018759170545475136 0 0
          <InformationKey name="L2_NORM_RANGE" location="vtkDataArray" length="2">
            <Value index="0">
              0.00038088176568
            </Value>
            <Value index="1">
              0.0072204931242
            </Value>
          </InformationKey>
        </DataArray>
        <DataArray type="Float64" Name="Btraction" NumberOfComponents="3" format="ascii" RangeMin="0.2576492032355577" RangeMax="19.25165502303423">
          7.042273626321792 -1.627196142518254 0 15.76317587567857 1.6098173061969079 0
          19.066504623858805 2.6635732680536197 0 4.392777831567129 -0.6788596317792959 0
          0.2392174251549188 0.09569814747511315 0 13.176133334065646 -4.284304185234667 0
          2.874541624270538 -0.20233343729533426 0 18.727870832636057 1.7069415778214643 0
          17.560264246865195 0.03853294801942184 0 0.3598545072909133 0.053552176455668246 0
          18.429678202448283 1.1503622335815404 0 1.9798692184199318 -0.06091090928991022 0
          17.69088677876271 0.12211952117566116 0 0.5022286394894442 0.08572088109531296 0
          1.4155154687617149 0.019205067364162998 0 18.271215099251304 0.7651442774144137 0
          0.7163518617528924 0.08764844895060725 0 17.867000230950648 0.2618922550393348 0
          18.08543950405877 0.47172412161959687 0 1.0174773689474812 0.06606026404303104 0
          <InformationKey name="L2_NORM_RANGE" location="vtkDataArray" length="2">
            <Value index="0">
              0.25764920324
            </Value>
            <Value index="1">
              19.251655023
            </Value>
          </InformationKey>
        </DataArray>
      </CellData>
      <Points>
        <DataArray type="Float32" Name="Points" NumberOfComponents="3" format="ascii" RangeMin="1.4500000476837158" RangeMax="1.6286497021092299">
          1.4500000476837158 0.5 0 1.4500000476837158 0.44999998807907104 0
          1.4500000476837158 0.4000000059604645 0 1.5 0.5 0
          1.4500000476837158 0.3499999940395355 0 1.5002609491348267 0.45016080141067505 0
          1.4500000476837158 0.30000001192092896 0 1.5001590251922607 0.4000298082828522 0
          1.5499999523162842 0.5 0 1.4500000476837158 0.25 0
          1.5005459785461426 0.35020819306373596 0 1.5499999523162842 0.44999998807907104 0
          1.5002089738845825 0.30000561475753784 0 1.4500000476837158 0.20000000298023224 0
          1.5499999523162842 0.4000000059604645 0 1.5002909898757935 0.24981409311294556 0
          1.5499999523162842 0.3499999940395355 0 1.4500000476837158 0.15000000596046448 0
          1.5001939535140991 0.19956040382385254 0 1.5499999523162842 0.30000001192092896 0
          1.4500000476837158 0.10000000149011612 0 1.5499999523162842 0.25 0
          1.499879002571106 0.15004639327526093 0 1.4500000476837158 0.05000000074505806 0
          1.5499999523162842 0.20000000298023224 0 1.5001660585403442 0.10008130222558975 0
          1.4500000476837158 0 0 1.5499999523162842 0.15000000596046448 0
          1.5000410079956055 0.050020311027765274 0 1.5499999523162842 0.10000000149011612 0
          1.5 0 0 1.5499999523162842 0.05000000074505806 0
          1.5499999523162842 0 0
          <InformationKey name="L2_NORM_RANGE" location="vtkDataArray" length="2">
            <Value index="0">
              1.4500000477
            </Value>
            <Value index="1">
              1.6286497021
            </Value>
          </InformationKey>
        </DataArray>
      </Points>
      <Cells>
        <DataArray type="Int64" Name="connectivity" format="ascii" RangeMin="0" RangeMax="32">
          11 8 3 5 3 0
          1 5 1 2 7 5
          11 5 7 14 32 31
          28 30 26 30 28 23
          16 14 7 10 7 2
          4 10 20 23 28 25
          28 31 29 25 4 6
          12 10 16 10 12 19
          17 20 25 22 25 29
          27 22 21 19 12 15
          12 6 9 15 27 24
          18 22 17 22 18 13
          9 13 18 15 15 18
          24 21
        </DataArray>
        <DataArray type="Int64" Name="offsets" format="ascii" RangeMin="4" RangeMax="80">
          4 8 12 16 20 24
          28 32 36 40 44 48
          52 56 60 64 68 72
          76 80
        </DataArray>
        <DataArray type="UInt8" Name="types" format="ascii" RangeMin="9" RangeMax="9">
          9 9 9 9 9 9
          9 9 9 9 9 9
          9 9 9 9 9 9
          9 9
        </DataArray>
      </Cells>
    </Piece>
  </UnstructuredGrid>
</VTKFile>
