<?xml version="1.0"?>
<VTKFile type="UnstructuredGrid" version="0.1" byte_order="LittleEndian" header_type="UInt32" compressor="vtkZLibDataCompressor">
  <UnstructuredGrid>
    <Piece NumberOfPoints="33" NumberOfCells="20">
      <PointData>
        <DataArray type="Float64" Name="sld_BC" NumberOfComponents="3" format="ascii" RangeMin="0" RangeMax="0">
          0 0 0 0 0 0
          0 0 0 0 0 0
          0 0 0 0 0 0
          0 0 0 0 0 0
          0 0 0 0 0 0
          0 0 0 0 0 0
          0 0 0 0 0 0
          0 0 0 0 0 0
          0 0 0 0 0 0
          0 0 0 0 0 0
          0 0 0 0 0 0
          0 0 0 0 0 0
          0 0 0 0 0 0
          0 0 0 0 0 0
          0 0 0 0 0 0
          0 0 0 0 0 0
          0 0 0
          <InformationKey name="L2_NORM_RANGE" location="vtkDataArray" length="2">
            <Value index="0">
              0
            </Value>
            <Value index="1">
              0
            </Value>
          </InformationKey>
        </DataArray>
        <DataArray type="Float64" Name="sld_FIXNO" NumberOfComponents="3" format="ascii" RangeMin="1.4142135623730951" RangeMax="1.4142135623730951">
          -1 -1 0 -1 -1 0
          -1 -1 0 -1 -1 0
          -1 -1 0 -1 -1 0
          -1 -1 0 -1 -1 0
          -1 -1 0 -1 -1 0
          -1 -1 0 -1 -1 0
          -1 -1 0 -1 -1 0
          -1 -1 0 -1 -1 0
          -1 -1 0 -1 -1 0
          -1 -1 0 -1 -1 0
          -1 -1 0 -1 -1 0
          -1 -1 0 -1 -1 0
          -1 -1 0 -1 -1 0
          1 1 0 -1 -1 0
          -1 -1 0 -1 -1 0
          1 1 0 -1 -1 0
          1 1 0
          <InformationKey name="L2_NORM_RANGE" location="vtkDataArray" length="2">
            <Value index="0">
              1.4142135624
            </Value>
            <Value index="1">
              1.4142135624
            </Value>
          </InformationKey>
        </DataArray>
        <DataArray type="Float64" Name="Disp" NumberOfComponents="3" format="ascii" RangeMin="0" RangeMax="0.04035003090470188">
          0.040013530801924435 0.0052002256464350905 0 0.03481505600293168 0.0051892827866540725 0
          0.029617449585198782 0.005146075645302024 0 0.04000762668546667 0.000014242574580883988 0
          0.02446177687014663 0.005042279781276914 0 0.03482158504089071 -0.00001318972934864597 0
          0.019420430713193066 0.004844745802522929 0 0.029600538098154636 -0.0000029546003535031295 0
          0.040008139765187356 -0.005171002560871058 0 0.01460619484467881 0.004517465120257442 0
          0.024446219218324235 -0.00004236833723097501 0 0.034808963524886556 -0.005160685128042811 0
          0.019360569855939758 -0.000009106691351751174 0 0.010167275968363176 0.0040272336926946645 0
          0.029610676960642145 -0.005118879491575938 0 0.014496504025529986 -0.000016687005792631712 0
          0.024453838134555494 -0.00501754538291695 0 0.00628780078905198 0.003343777848375078 0
          0.009999835355616543 -0.000008398042517934821 0 0.019412706274846543 -0.004822664495137132 0
          0.0031717150033029797 0.002447005701862701 0 0.014597436688383215 -0.004499151009405056 0
          0.006115597054766568 0.00001333581012877966 0 0.0010955346426257805 0.0013008025956602472 0
          0.010157853956307293 -0.004012479528292207 0 0.0029624396201627066 -0.000004600373743912043 0
          0 0 0 0.006281064097827833 -0.003332868446421147 0
          0.0007647157720721513 -6.207876896112408e-7 0 0.003161198843173375 -0.0024409532007465882 0
          0 0 0 0.0010870099838370306 -0.001297575713632369 0
          0 0 0
          <InformationKey name="L2_NORM_RANGE" location="vtkDataArray" length="2">
            <Value index="0">
              0
            </Value>
            <Value index="1">
              0.040350030905
            </Value>
          </InformationKey>
        </DataArray>
        <DataArray type="Float64" Name="Sld_traction" NumberOfComponents="3" format="ascii" RangeMin="0" RangeMax="3453.843436693142">
          17.779505786844158 0.8607211359179631 0 -2.8841682784891858 -42.9086036929431 0
          -56.100161512288096 -82.92762630504137 0 24.356846324497916 -4.358486248921166 0
          -145.10782941090065 -128.97324742003462 0 0 0 0
          -274.89922715011227 -178.07950851280341 0 0 0 0
          4.329701043434064 -4.164095773025026 0 -443.703010696642 -226.7572904007543 0
          0 0 0 -32.96316518043583 45.26464999161304 0
          0 0 0 -645.910782366883 -268.6243170675168 0
          -87.54136766736809 84.78961812656672 0 0 0 0
          -177.58643705681845 129.53765026475673 0 -882.4937918855846 -300.22696697911596 0
          0 0 0 -306.8658134094292 178.49253510796083 0
          -1138.3832575777385 -296.72317555011375 0 -477.11849074072484 227.42646987782186 0
          0 0 0 -1444.0083804249803 -478.05743570330634 0
          -681.0830935118953 268.67728929079084 0 0 0 0
          -1961.31823511921 -2842.932511646585 0 -915.2951941368027 301.0999306141666 0
          0 0 0 -1176.1829522741275 297.2165802516673 0
          -1343.5979896598444 -0.5644684587491605 0 -1473.8833492025901 473.12287474430093 0
          -1960.9099766276593 2832.6741860228103 0
          <InformationKey name="L2_NORM_RANGE" location="vtkDataArray" length="2">
            <Value index="0">
              0
            </Value>
            <Value index="1">
              3453.8434367
            </Value>
          </InformationKey>
        </DataArray>
        <DataArray type="Float64" Name="Fld_traction" NumberOfComponents="3" format="ascii" RangeMin="0" RangeMax="38.40089835710485">
          24.386708239141658 -0.29926343807946637 0 37.92358714452658 6.035771096073523 0
          37.309595986331296 3.5590581772122496 0 14.83499912662647 -3.6062733232471293 0
          36.322396275999154 2.216240839537633 0 0 0 0
          35.88153299366889 1.4012409271521749 0 0 0 0
          12.340493129758771 -1.6145635449427362 0 35.46924076795084 0.8140558010925469 0
          0 0 0 9.922299967252606 -1.0277809110128915 0
          0 0 0 34.992695954153334 0.42133616293269516 0
          6.254627443614588 0.3758702708665806 0 0 0 0
          4.1057767752202725 0.6691432690206546 0 34.57658038095372 0.1906555261302504 0
          0 0 0 2.662520844093454 0.7473883374589229 0
          34.348361258816894 0.058652504640492945 0 1.7411457580769871 0.7054200556926258 0
          0 0 0 34.15936911604871 0.004476728225853911 0
          1.0192110730886927 0.5911720321690209 0 0 0 0
          17.31485402167569 -16.77299004769255 0 0.5688933002211819 0.41789359642232865 0
          0 0 0 0.3321373834824202 0.23771165409364378 0
          0 0 0 0.3142705636833787 0.0653516155651499 0
          0.2006752124502233 0.20301949998086508 0
          <InformationKey name="L2_NORM_RANGE" location="vtkDataArray" length="2">
            <Value index="0">
              0
            </Value>
            <Value index="1">
              38.400898357
            </Value>
          </InformationKey>
        </DataArray>
        <DataArray type="Float64" Name="Velocity" NumberOfComponents="3" format="ascii" RangeMin="0" RangeMax="0.0811927871200506">
          0.08044468510678118 0.01099642298170965 0 0.07093475676433872 0.01084919608031609 0
          0.06140128083115458 0.010855047250368968 0 0.08064462152077677 0.001503758431406826 0
          0.05175946380521077 0.010846237572428115 0 0.07123651574208198 0.0013246905803849399 0
          0.042074025743153526 0.010641803687561985 0 0.06171534507939716 0.0013069996367842838 0
          0.08078582129925378 -0.007970382626354975 0 0.032614463060146294 0.01011280057562345 0
          0.052089983014460335 0.0012148902992726953 0 0.07132372522927666 -0.008081728083795946 0
          0.04230022386765275 0.0012286617053411668 0 0.023716665637755464 0.009224364968994297 0
          0.06183179605547406 -0.008175760805855206 0 0.03272032784421372 0.001110735950602912 0
          0.052175586086392 -0.008224406995735066 0 0.015642433275244103 0.007964747295499789 0
          0.023696843344087035 0.0009666180117250987 0 0.04244948254456779 -0.008131052467731624 0
          0.008587280319803825 0.006205347398749256 0 0.03293863029318274 -0.007813287687474664 0
          0.015606393540366859 0.0008033549161036937 0 0.003141695673565154 0.0035611415471403095 0
          0.023992140175143107 -0.007247139525296502 0 0.008436264430526395 0.0005162036750031079 0
          0 0 0 0.015882808653274037 -0.006408146072688795 0
          0.002625242892888482 0.00028037339215085334 0 0.008799799352004952 -0.00513959186523894 0
          0 0 0 0.0033867263181500836 -0.0030267475729846673 0
          0 0 0
          <InformationKey name="L2_NORM_RANGE" location="vtkDataArray" length="2">
            <Value index="0">
              0
            </Value>
            <Value index="1">
              0.08119278712
            </Value>
          </InformationKey>
        </DataArray>
      </PointData>
      <CellData>
        <DataArray type="UInt8" Name="vtkGhostType" format="ascii" RangeMin="0" RangeMax="0">
          0 0 0 0 0 0
          0 0 0 0 0 0
          0 0 0 0 0 0
          0 0
        </DataArray>
        <DataArray type="Float64" Name="Gauss Stress" NumberOfComponents="6" format="ascii" RangeMin="38.8762094474699" RangeMax="3211.5928320985176">
          1.011119327389168 -21.40048450271088 0 32.44004564976072 0 0
          -30.13426305779123 12.018077572252105 0 30.58640032615382 0 0
          -30.882749917122652 82.25520551432614 0 74.44067326368294 0 0
          -0.9735374505611238 -91.6081670603977 0 76.06000452173836 0 0
          -627.8997241549043 -3120.723413199409 0 425.62405230649756 0 0
          609.4259020428572 3119.510228295115 0 430.0418083965867 0 0
          -2.10092049771292 -223.69349248403148 0 128.38548831566257 0 0
          -32.45774160144636 214.67250263224264 0 127.53401669840116 0 0
          -140.07772714400534 2459.6131909166693 0 404.6075288411238 0 0
          99.37182067787259 -2467.7750332839464 0 404.564097667408 0 0
          -31.746653751035538 419.90659588531867 0 186.61563845990813 0 0
          -3.938474502817918 -429.46617926867805 0 186.285087507639 0 0
          -11.517135627991507 1969.4069642945226 0 376.05298028868805 0 0
          -25.10066613115862 -1968.5358059461598 0 377.5716790495366 0 0
          -5.831104754700576 -712.7878065145244 0 245.28199056458357 0 0
          -30.475487580051464 705.1468828446108 0 245.27615524041238 0 0
          3.7654237940477344 -1493.7298148935843 0 341.83236565149707 0 0
          -38.4958059671217 1493.6884222819053 0 342.6096030915026 0 0
          -28.49964340250949 1063.359328331191 0 298.416143959878 0 0
          -10.910801537101065 -1072.5202144474974 0 298.76952667786435 0 0
          <InformationKey name="L2_NORM_RANGE" location="vtkDataArray" length="2">
            <Value index="0">
              38.876209447
            </Value>
            <Value index="1">
              3211.5928321
            </Value>
          </InformationKey>
        </DataArray>
        <DataArray type="Float64" Name="Gauss Strain" NumberOfComponents="6" format="ascii" RangeMin="0.0004357339535127765" RangeMax="0.01453793357155719">
          0.000046331537719906946 -0.00009934388717574342 0 0.0004217205934468893 0 0
          -0.00016054614817884172 0.00011344406591644001 0 0.00039762320423999964 0 0
          -0.0003009141628758441 0.00043448254742857326 0 0.0009677287524278779 0 0
          0.00017420633036772243 -0.00041491876209621536 0 0.0009887800587825984 0 0
          0.0032284669108340338 -0.01297488706795525 0 0.005533112679984466 0 0
          -0.003310157090880476 0.013005391029759204 0 0.005590543509155627 0 0
          0.0004266431220792677 -0.001013708595831803 0 0.0016690113481036134 0 0
          -0.0005662941044194542 0.0010400524830995247 0 0.0016579422170792148 0 0
          -0.005433599380792731 0.011464391586601657 0 0.005259897874934609 0 0
          0.005264303098988017 -0.011422151451763807 0 0.005259333269676304 0 0
          -0.0009632651365435833 0.001972480986092719 0 0.002426003299978805 0 0
          0.0008195389905861009 -0.0019463910903919903 0 0.002421706137599306 0 0
          -0.0038927465474816805 0.00898326010201466 0 0.004888688743752944 0 0
          0.0037244367906982398 -0.008907891618099267 0 0.004908431827643975 0 0
          0.001363404696069435 -0.0032318138653694194 0 0.003188665877339586 0 0
          -0.0015136998900362256 0.00326784551772408 0 0.0031885900181253604 0 0
          0.0029299058173054074 -0.006803813234164203 0 0.004443820753469461 0 0
          -0.00308784834060012 0.006871349143018558 0 0.004453924840189536 0 0
          -0.0022032240677272406 0.004893859248541812 0 0.0038794098714784136 0 0
          0.00204177027117881 -0.004858690912738767 0 0.0038840038468122354 0 0
          <InformationKey name="L2_NORM_RANGE" location="vtkDataArray" length="2">
            <Value index="0">
              0.00043573395351
            </Value>
            <Value index="1">
              0.014537933572
            </Value>
          </InformationKey>
        </DataArray>
        <DataArray type="Float64" Name="Btraction" NumberOfComponents="3" format="ascii" RangeMin="0.1451706340865057" RangeMax="18.960637833391672">
          6.79387306409631 -1.3052092170474663 0 15.577573845917058 1.4341269144985143 0
          18.808295782714467 2.398707318321443 0 4.0442318527167975 -0.16297766003657768 0
          0.12873644403340048 0.06709277888650374 0 12.868555784431102 -4.192128329866673 0
          2.5901010547087147 0.26125338497180883 0 18.40799806558261 1.4438247541874707 0
          17.126932593716397 0.01578230821658671 0 0.16160198679144971 0.07576581741469843 0
          18.05098231741701 0.904370441672452 0 1.6920744048284315 0.3541329016198943 0
          17.231235409942652 0.06232700769268584 0 0.2252576709259005 0.1639013126289931 0
          1.1009166505426105 0.36320209828788713 0 17.837693440404934 0.5538241820611803 0
          0.39702609332746863 0.2522664071478374 0 17.392319083776762 0.15299792226573639 0
          17.615484180526046 0.30884799100631055 0 0.6900892077914199 0.3241480219654117 0
          <InformationKey name="L2_NORM_RANGE" location="vtkDataArray" length="2">
            <Value index="0">
              0.14517063409
            </Value>
            <Value index="1">
              18.960637833
            </Value>
          </InformationKey>
        </DataArray>
      </CellData>
      <Points>
        <DataArray type="Float32" Name="Points" NumberOfComponents="3" format="ascii" RangeMin="1.4500000476837158" RangeMax="1.6286497021092299">
          1.4500000476837158 0.5 0 1.4500000476837158 0.44999998807907104 0
          1.4500000476837158 0.4000000059604645 0 1.5 0.5 0
          1.4500000476837158 0.3499999940395355 0 1.5002609491348267 0.45016080141067505 0
          1.4500000476837158 0.30000001192092896 0 1.5001590251922607 0.4000298082828522 0
          1.5499999523162842 0.5 0 1.4500000476837158 0.25 0
          1.5005459785461426 0.35020819306373596 0 1.5499999523162842 0.44999998807907104 0
          1.5002089738845825 0.30000561475753784 0 1.4500000476837158 0.20000000298023224 0
          1.5499999523162842 0.4000000059604645 0 1.5002909898757935 0.24981409311294556 0
          1.5499999523162842 0.3499999940395355 0 1.4500000476837158 0.15000000596046448 0
          1.5001939535140991 0.19956040382385254 0 1.5499999523162842 0.30000001192092896 0
          1.4500000476837158 0.10000000149011612 0 1.5499999523162842 0.25 0
          1.499879002571106 0.15004639327526093 0 1.4500000476837158 0.05000000074505806 0
          1.5499999523162842 0.20000000298023224 0 1.5001660585403442 0.10008130222558975 0
          1.4500000476837158 0 0 1.5499999523162842 0.15000000596046448 0
          1.5000410079956055 0.050020311027765274 0 1.5499999523162842 0.10000000149011612 0
          1.5 0 0 1.5499999523162842 0.05000000074505806 0
          1.5499999523162842 0 0
          <InformationKey name="L2_NORM_RANGE" location="vtkDataArray" length="2">
            <Value index="0">
              1.4500000477
            </Value>
            <Value index="1">
              1.6286497021
            </Value>
          </InformationKey>
        </DataArray>
      </Points>
      <Cells>
        <DataArray type="Int64" Name="connectivity" format="ascii" RangeMin="0" RangeMax="32">
          11 8 3 5 3 0
          1 5 1 2 7 5
          11 5 7 14 32 31
          28 30 26 30 28 23
          16 14 7 10 7 2
          4 10 20 23 28 25
          28 31 29 25 4 6
          12 10 16 10 12 19
          17 20 25 22 25 29
          27 22 21 19 12 15
          12 6 9 15 27 24
          18 22 17 22 18 13
          9 13 18 15 15 18
          24 21
        </DataArray>
        <DataArray type="Int64" Name="offsets" format="ascii" RangeMin="4" RangeMax="80">
          4 8 12 16 20 24
          28 32 36 40 44 48
          52 56 60 64 68 72
          76 80
        </DataArray>
        <DataArray type="UInt8" Name="types" format="ascii" RangeMin="9" RangeMax="9">
          9 9 9 9 9 9
          9 9 9 9 9 9
          9 9 9 9 9 9
          9 9
        </DataArray>
      </Cells>
    </Piece>
  </UnstructuredGrid>
</VTKFile>
