<?xml version="1.0"?>
<VTKFile type="UnstructuredGrid" version="0.1" byte_order="LittleEndian" header_type="UInt32" compressor="vtkZLibDataCompressor">
  <UnstructuredGrid>
    <Piece NumberOfPoints="33" NumberOfCells="20">
      <PointData>
        <DataArray type="Float64" Name="sld_BC" NumberOfComponents="3" format="ascii" RangeMin="0" RangeMax="0">
          0 0 0 0 0 0
          0 0 0 0 0 0
          0 0 0 0 0 0
          0 0 0 0 0 0
          0 0 0 0 0 0
          0 0 0 0 0 0
          0 0 0 0 0 0
          0 0 0 0 0 0
          0 0 0 0 0 0
          0 0 0 0 0 0
          0 0 0 0 0 0
          0 0 0 0 0 0
          0 0 0 0 0 0
          0 0 0 0 0 0
          0 0 0 0 0 0
          0 0 0 0 0 0
          0 0 0
          <InformationKey name="L2_NORM_RANGE" location="vtkDataArray" length="2">
            <Value index="0">
              0
            </Value>
            <Value index="1">
              0
            </Value>
          </InformationKey>
        </DataArray>
        <DataArray type="Float64" Name="sld_FIXNO" NumberOfComponents="3" format="ascii" RangeMin="1.4142135623730951" RangeMax="1.4142135623730951">
          -1 -1 0 -1 -1 0
          -1 -1 0 -1 -1 0
          -1 -1 0 -1 -1 0
          -1 -1 0 -1 -1 0
          -1 -1 0 -1 -1 0
          -1 -1 0 -1 -1 0
          -1 -1 0 -1 -1 0
          -1 -1 0 -1 -1 0
          -1 -1 0 -1 -1 0
          -1 -1 0 -1 -1 0
          -1 -1 0 -1 -1 0
          -1 -1 0 -1 -1 0
          -1 -1 0 -1 -1 0
          1 1 0 -1 -1 0
          -1 -1 0 -1 -1 0
          1 1 0 -1 -1 0
          1 1 0
          <InformationKey name="L2_NORM_RANGE" location="vtkDataArray" length="2">
            <Value index="0">
              1.4142135624
            </Value>
            <Value index="1">
              1.4142135624
            </Value>
          </InformationKey>
        </DataArray>
        <DataArray type="Float64" Name="Disp" NumberOfComponents="3" format="ascii" RangeMin="0" RangeMax="0.003324759781766136">
          0.0033098174251498125 0.0003148590456446604 0 0.0030303629273112365 0.0003132897879741311 0
          0.0027593370898727266 0.00031628571479628724 0 0.0033052594345684763 0.0000347242122201647 0
          0.002479348966360991 0.00033242100767795545 0 0.003026354460891543 0.000032216627897552614 0
          0.00216895083720333 0.00036121048778898926 0 0.002756497894332749 0.000030850850365010955 0
          0.003305061363307536 -0.0002446556497839084 0 0.0018108510799274865 0.00039340844133611727 0
          0.00248053201188178 0.0000257190661632633 0 0.003024702844689788 -0.0002448832709319168 0
          0.002170695639823388 0.00002409889823400812 0 0.0014041993081801356 0.00041265353351509335 0
          0.00275238575528199 -0.00025197179118169744 0 0.0018101941861488737 0.000019098692780718784 0
          0.002471606099117509 -0.0002737784557098609 0 0.0009709331093474059 0.00039937477570711424 0
          0.001396420300195223 0.00001508544570848533 0 0.002160188899260277 -0.00030986821580248757 0
          0.0005533536150691981 0.0003350440005505262 0 0.0018016180687532803 -0.0003506217804144525 0
          0.0009579589361515758 0.000012861291820561542 0 0.00022270200321133248 0.0002003354367111668 0
          0.0013946768609296566 -0.0003791414304957812 0 0.000529750133625279 0.000006333444186024037 0
          0 0 0 0.0009615568486670083 -0.0003751987019126492 0
          0.00017086554313285352 0.000002511359848905668 0 0.000543930201559613 -0.0003200955965923347 0
          0 0 0 0.00021353133218746724 -0.00019310816879774604 0
          0 0 0
          <InformationKey name="L2_NORM_RANGE" location="vtkDataArray" length="2">
            <Value index="0">
              0
            </Value>
            <Value index="1">
              0.0033247597818
            </Value>
          </InformationKey>
        </DataArray>
        <DataArray type="Float64" Name="Sld_traction" NumberOfComponents="3" format="ascii" RangeMin="0" RangeMax="591.6154416313199">
          10.31236716963281 -1.1103198052351053 0 25.89641838234939 8.118954307510096 0
          37.165130122598576 17.44779555043384 0 0.11230178203570748 -0.10389724932875478 0
          53.14383148867396 15.952468554948481 0 0 0 0
          63.71585522264402 3.277498507482942 0 0 0 0
          -0.15842375348233262 2.088466618203331 0 58.80835243904147 -18.821180031343836 0
          0 0 0 1.950131390155007 -4.936650446678147 0
          0 0 0 32.69812473083959 -45.07918713832774 0
          11.408657379880799 -14.550423884295437 0 0 0 0
          25.886968583657143 -13.654125767883059 0 -16.195939033672673 -71.54894431654476 0
          0 0 0 34.99756402315863 -1.6075001782986869 0
          -84.39252187280591 -89.32091000685699 0 29.55307927489886 19.77448056662499 0
          0 0 0 -178.63173706577498 -138.73406635615356 0
          3.2324767442253033 45.52592020517135 0 0 0 0
          -342.5354022858184 -482.36742111953845 0 -45.47903200352623 71.82297932209985 0
          0 0 0 -114.80568111898206 89.85086396087125 0
          -287.0251360971168 -15.482164456535216 0 -202.34544706811513 133.5744777073056 0
          -337.7339359328613 458.3757453706843 0
          <InformationKey name="L2_NORM_RANGE" location="vtkDataArray" length="2">
            <Value index="0">
              0
            </Value>
            <Value index="1">
              591.61544163
            </Value>
          </InformationKey>
        </DataArray>
        <DataArray type="Float64" Name="Fld_traction" NumberOfComponents="3" format="ascii" RangeMin="0" RangeMax="38.70055422642439">
          24.610561765057543 -0.4703833256937031 0 38.246981511299886 5.907732450500712 0
          37.55022427769171 3.4106900948712213 0 14.883756447533449 -3.781586406733932 0
          36.49463910774912 2.0677477004469367 0 0 0 0
          35.998134318973044 1.2685652167462969 0 0 0 0
          12.180614502842229 -1.5572788328701428 0 35.545888207879365 0.7079085262662398 0
          0 0 0 9.617162910809077 -0.7959586178580851 0
          0 0 0 35.05185080413878 0.34725431440136484 0
          6.0061673508110065 0.5856262251126947 0 0 0 0
          3.8951184635599896 0.8614204625827918 0 34.64223135350877 0.14579742551811786 0
          0 0 0 2.478775636236164 0.9137838344094578 0
          34.42130270953913 0.03710653115878718 0 1.5751754645768774 0.8331777756794668 0
          0 0 0 34.250083351356636 -0.0006743396204521183 0
          0.8890069402097397 0.6751359374938792 0 0 0 0
          17.367326401167297 -16.824645412507657 0 0.46710938102441324 0.4540909387449811 0
          0 0 0 0.29229487527042225 0.24175643023021096 0
          0 0 0 0.3237974950296104 0.06175050484846681 0
          0.21151363545932414 0.21478298315286368 0
          <InformationKey name="L2_NORM_RANGE" location="vtkDataArray" length="2">
            <Value index="0">
              0
            </Value>
            <Value index="1">
              38.700554226
            </Value>
          </InformationKey>
        </DataArray>
        <DataArray type="Float64" Name="Velocity" NumberOfComponents="3" format="ascii" RangeMin="0" RangeMax="0.12506139797980315">
          -0.12379996301360581 -0.017717856035438947 0 -0.10760905746594777 -0.017685767682317825 0
          -0.0912660680075772 -0.017797999614553833 0 -0.12377530783754709 -0.001516088716531448 0
          -0.07469102489669785 -0.017613942198887615 0 -0.1076512128958177 -0.0013529271974688929 0
          -0.05818792880587625 -0.016920115723596953 0 -0.09121571992679954 -0.0013912419549017994 0
          -0.12368993733896799 0.014737589594321913 0 -0.042369255137987394 -0.015603083502649039 0
          -0.07458001424748267 -0.0011599624596953335 0 -0.10745989831290842 0.014866094988368002 0
          -0.05789082035883579 -0.0010893349665323374 0 -0.027935615094710077 -0.01355692200533032 0
          -0.09102950383796049 0.014969841157293405 0 -0.04187858099165932 -0.0008802694909986325 0
          -0.07435056050016571 0.014974556456901829 0 -0.01578133865464752 -0.010685046778524577 0
          -0.02722281052888379 -0.0007376355256781885 0 -0.057824695197817404 0.014612804981276387 0
          -0.0069747809399362546 -0.007151564870406157 0 -0.0420182624789715 0.013667073550648888 0
          -0.015023476667336801 -0.000635313149204306 0 -0.0020163582611353575 -0.003405565816997814 0
          -0.027595953117483526 0.011980711582798198 0 -0.006101484459446829 -0.0003606818521161507 0
          0 0 0 -0.015434041512929856 0.009482725365883751 0
          -0.0010745921303687992 -0.00011666198228315483 0 -0.0065375639782608306 0.006362393986552252 0
          0 0 0 -0.0016997836707465692 0.0030200198706252517 0
          0 0 0
          <InformationKey name="L2_NORM_RANGE" location="vtkDataArray" length="2">
            <Value index="0">
              0
            </Value>
            <Value index="1">
              0.12506139798
            </Value>
          </InformationKey>
        </DataArray>
      </PointData>
      <CellData>
        <DataArray type="UInt8" Name="vtkGhostType" format="ascii" RangeMin="0" RangeMax="0">
          0 0 0 0 0 0
          0 0 0 0 0 0
          0 0 0 0 0 0
          0 0
        </DataArray>
        <DataArray type="Float64" Name="Gauss Stress" NumberOfComponents="6" format="ascii" RangeMin="3.1055746013183367" RangeMax="517.853980671272">
          -1.0841951719057072 2.3518395094313256 0 1.7140494028608746 0 0
          -22.394616728548286 -3.8398354547618117 0 -0.3980392110698661 0 0
          -22.33547050732819 -11.892115943756785 0 -18.426710670348335 0 0
          -2.3843669990915335 18.798454460075664 0 -15.995805964794776 0 0
          -104.65491718170682 -463.51388911260545 0 145.02995886414735 0 0
          94.41692568000303 486.3985720964649 0 150.5809367242047 0 0
          -3.2643982557743936 52.890537326142955 0 -22.098268214776557 0 0
          -23.317865262215527 -39.204997877107004 0 -23.847370940455157 0 0
          -44.067046732659904 286.89243628111245 0 125.90092036255147 0 0
          13.916872514754441 -263.18572578210603 0 127.28804387952829 0 0
          -24.53865790042231 -65.43361183500811 0 -15.381424478368714 0 0
          -3.1867090738222608 86.11076619771482 0 -13.923367007514113 0 0
          -21.90157904828939 141.8741946982546 0 100.71492240843715 0 0
          -7.603735731253305 -114.54985261229125 0 101.05222489997067 0 0
          -3.0852959111091387 97.82191942194801 0 7.9733107173707145 0 0
          -25.638007603442468 -71.97332466639659 0 7.159384232625093 0 0
          -3.426591256777604 0.21340035071748353 0 71.52943930375046 0 0
          -25.77216421698488 28.61327415733902 0 71.2502974218564 0 0
          -25.588429514159913 -42.76923519620816 0 38.53722395788837 0 0
          -3.4532576024578403 71.51681531992443 0 39.059745129283414 0 0
          <InformationKey name="L2_NORM_RANGE" location="vtkDataArray" length="2">
            <Value index="0">
              3.1055746013
            </Value>
            <Value index="1">
              517.85398067
            </Value>
          </InformationKey>
        </DataArray>
        <DataArray type="Float64" Name="Gauss Strain" NumberOfComponents="6" format="ascii" RangeMin="0.000027410880225616425" RangeMax="0.0028667211608163295">
          -0.000009519175075562054 0.000012815050353128661 0 0.000022282642237191367 0 0
          -0.00009440782697810917 0.000026198251301502915 0 -0.000005174509743908259 0 0
          -0.00007843676471801751 -0.000010554960054803406 0 -0.00023954723871452826 0 0
          -0.00004750585604301402 0.00009018248344157276 0 -0.00020794547754233206 0 0
          0.00042767221059281465 -0.0019049111069580262 0 0.001885389465233915 0 0
          -0.0005188802037440928 0.002029000497962909 0 0.0019575521774146606 0 0
          -0.00011798955984975226 0.0002470175214327105 0 -0.0002872774867920952 0 0
          -0.000029646541082721956 -0.00013291290307951664 0 -0.000310015822225917 0 0
          -0.0007599453133817721 0.0013912913262077485 0 0.001636711964713169 0 0
          0.0005765339352172395 -0.0012246329537123537 0 0.0016547445704338676 0 0
          0.00001594464963134432 -0.0002498725509434634 0 -0.00019995851821879326 0 0
          -0.00018241552037143519 0.0003980180688935559 0 -0.00018100377109768343 0 0
          -0.0003763068643313132 0.0006882356650212227 0 0.0013092939913096828 0 0
          0.00018877521501676543 -0.0005063745447099812 0 0.001313678923699618 0 0
          -0.0002047908392683452 0.0004511060603965262 0 0.00010365303932581929 0 0
          0.000023695048503810136 -0.0002774845124053917 0 0.00009307199502412615 0 0
          -0.00001600712090223718 0.000007652824546480871 0 0.0009298827109487557 0 0
          -0.00017305923179409231 0.00018044611763901307 0 0.000926253866484133 0 0
          -0.000033027345656821675 -0.00014470258259013528 0 0.0005009839114525488 0 0
          -0.00015517011196503581 0.0003321353620304489 0 0.0005077766866806841 0 0
          <InformationKey name="L2_NORM_RANGE" location="vtkDataArray" length="2">
            <Value index="0">
              2.7410880226e-05
            </Value>
            <Value index="1">
              0.0028667211608
            </Value>
          </InformationKey>
        </DataArray>
        <DataArray type="Float64" Name="Btraction" NumberOfComponents="3" format="ascii" RangeMin="0.1506296734568597" RangeMax="19.091963957632863">
          6.766092737593919 -1.3347163099010189 0 15.714385819089358 1.359337281201752 0
          18.949301447247898 2.3296056363429836 0 3.9058325654050203 -0.0525830981863476 0
          0.1338277826222336 0.06913337200033262 0 12.904352438130982 -4.206329938032027 0
          2.475321453592749 0.36176167192387154 0 18.51121584636021 1.3696094488295394 0
          17.16784651522394 0.009108047884583765 0 0.15402309257500815 0.07587673376966944 0
          18.123193356680538 0.8340782292983082 0 1.5934735249490382 0.4438010742480623 0
          17.26588351576197 0.04572598916922625 0 0.1898510640737089 0.17396184224379801 0
          1.0134877752032603 0.4367404025222311 0 17.886005631713097 0.49411843575313413 0
          0.33902908030853823 0.28230671905971505 0 17.42352053941189 0.12326293497987069 0
          17.649434753004535 0.26379071016690114 0 0.6160456011966542 0.37707842829333643 0
          <InformationKey name="L2_NORM_RANGE" location="vtkDataArray" length="2">
            <Value index="0">
              0.15062967346
            </Value>
            <Value index="1">
              19.091963958
            </Value>
          </InformationKey>
        </DataArray>
      </CellData>
      <Points>
        <DataArray type="Float32" Name="Points" NumberOfComponents="3" format="ascii" RangeMin="1.4500000476837158" RangeMax="1.6286497021092299">
          1.4500000476837158 0.5 0 1.4500000476837158 0.44999998807907104 0
          1.4500000476837158 0.4000000059604645 0 1.5 0.5 0
          1.4500000476837158 0.3499999940395355 0 1.5002609491348267 0.45016080141067505 0
          1.4500000476837158 0.30000001192092896 0 1.5001590251922607 0.4000298082828522 0
          1.5499999523162842 0.5 0 1.4500000476837158 0.25 0
          1.5005459785461426 0.35020819306373596 0 1.5499999523162842 0.44999998807907104 0
          1.5002089738845825 0.30000561475753784 0 1.4500000476837158 0.20000000298023224 0
          1.5499999523162842 0.4000000059604645 0 1.5002909898757935 0.24981409311294556 0
          1.5499999523162842 0.3499999940395355 0 1.4500000476837158 0.15000000596046448 0
          1.5001939535140991 0.19956040382385254 0 1.5499999523162842 0.30000001192092896 0
          1.4500000476837158 0.10000000149011612 0 1.5499999523162842 0.25 0
          1.499879002571106 0.15004639327526093 0 1.4500000476837158 0.05000000074505806 0
          1.5499999523162842 0.20000000298023224 0 1.5001660585403442 0.10008130222558975 0
          1.4500000476837158 0 0 1.5499999523162842 0.15000000596046448 0
          1.5000410079956055 0.050020311027765274 0 1.5499999523162842 0.10000000149011612 0
          1.5 0 0 1.5499999523162842 0.05000000074505806 0
          1.5499999523162842 0 0
          <InformationKey name="L2_NORM_RANGE" location="vtkDataArray" length="2">
            <Value index="0">
              1.4500000477
            </Value>
            <Value index="1">
              1.6286497021
            </Value>
          </InformationKey>
        </DataArray>
      </Points>
      <Cells>
        <DataArray type="Int64" Name="connectivity" format="ascii" RangeMin="0" RangeMax="32">
          11 8 3 5 3 0
          1 5 1 2 7 5
          11 5 7 14 32 31
          28 30 26 30 28 23
          16 14 7 10 7 2
          4 10 20 23 28 25
          28 31 29 25 4 6
          12 10 16 10 12 19
          17 20 25 22 25 29
          27 22 21 19 12 15
          12 6 9 15 27 24
          18 22 17 22 18 13
          9 13 18 15 15 18
          24 21
        </DataArray>
        <DataArray type="Int64" Name="offsets" format="ascii" RangeMin="4" RangeMax="80">
          4 8 12 16 20 24
          28 32 36 40 44 48
          52 56 60 64 68 72
          76 80
        </DataArray>
        <DataArray type="UInt8" Name="types" format="ascii" RangeMin="9" RangeMax="9">
          9 9 9 9 9 9
          9 9 9 9 9 9
          9 9 9 9 9 9
          9 9
        </DataArray>
      </Cells>
    </Piece>
  </UnstructuredGrid>
</VTKFile>
