<?xml version="1.0"?>
<VTKFile type="UnstructuredGrid" version="0.1" byte_order="LittleEndian" header_type="UInt32" compressor="vtkZLibDataCompressor">
  <UnstructuredGrid>
    <Piece NumberOfPoints="33" NumberOfCells="20">
      <PointData>
        <DataArray type="Float64" Name="sld_BC" NumberOfComponents="3" format="ascii" RangeMin="0" RangeMax="0">
          0 0 0 0 0 0
          0 0 0 0 0 0
          0 0 0 0 0 0
          0 0 0 0 0 0
          0 0 0 0 0 0
          0 0 0 0 0 0
          0 0 0 0 0 0
          0 0 0 0 0 0
          0 0 0 0 0 0
          0 0 0 0 0 0
          0 0 0 0 0 0
          0 0 0 0 0 0
          0 0 0 0 0 0
          0 0 0 0 0 0
          0 0 0 0 0 0
          0 0 0 0 0 0
          0 0 0
          <InformationKey name="L2_NORM_RANGE" location="vtkDataArray" length="2">
            <Value index="0">
              0
            </Value>
            <Value index="1">
              0
            </Value>
          </InformationKey>
        </DataArray>
        <DataArray type="Float64" Name="sld_FIXNO" NumberOfComponents="3" format="ascii" RangeMin="1.4142135623730951" RangeMax="1.4142135623730951">
          -1 -1 0 -1 -1 0
          -1 -1 0 -1 -1 0
          -1 -1 0 -1 -1 0
          -1 -1 0 -1 -1 0
          -1 -1 0 -1 -1 0
          -1 -1 0 -1 -1 0
          -1 -1 0 -1 -1 0
          -1 -1 0 -1 -1 0
          -1 -1 0 -1 -1 0
          -1 -1 0 -1 -1 0
          -1 -1 0 -1 -1 0
          -1 -1 0 -1 -1 0
          -1 -1 0 -1 -1 0
          1 1 0 -1 -1 0
          -1 -1 0 -1 -1 0
          1 1 0 -1 -1 0
          1 1 0
          <InformationKey name="L2_NORM_RANGE" location="vtkDataArray" length="2">
            <Value index="0">
              1.4142135624
            </Value>
            <Value index="1">
              1.4142135624
            </Value>
          </InformationKey>
        </DataArray>
        <DataArray type="Float64" Name="Disp" NumberOfComponents="3" format="ascii" RangeMin="0" RangeMax="0.045212137770789564">
          0.04479451400703114 0.006130980074893988 0 0.03866061272378579 0.00610810868936323 0
          0.03253479234011659 0.006020391793542445 0 0.0447870204964283 0.000019793624329023096 0
          0.026513271500187206 0.00582760459608781 0 0.03866459005822952 -0.000012568264331956625 0
          0.020722756425832756 0.0055008974303597385 0 0.03250400873896042 -8.045690341217712e-7 0
          0.04478879840627606 -0.006090790760666041 0 0.015317760606859675 0.005018937017600385 0
          0.026476862630466242 -0.00004677630146810601 0 0.03865395921579882 -0.006068986093122411 0
          0.0206317483559623 -0.000008745273156137356 0 0.010464011794169118 0.004368560953137666 0
          0.03252734543055188 -0.005983729672460597 0 0.015171450050144674 -0.000017366581189002302 0
          0.026503970655371703 -0.005795064669950048 0 0.00633995486107406 0.0035394729652082815 0
          0.010259996530907596 -0.000008336709874118481 0 0.0207142158883976 -0.005472634478974114 0
          0.003123959457601766 0.002529548786474289 0 0.015307934820514327 -0.004996164872786123 0
          0.006139668152383994 0.000014721087848609555 0 0.001047672930261904 0.0013159233820421883 0
          0.010453688484035564 -0.004350719398523247 0 0.002894693391711321 -0.000004383014252920108 0
          0 0 0 0.006332937965495551 -0.0035267131424180963 0
          0.0007082878512410118 -4.902180273809838e-7 0 0.0031127453881691354 -0.002522399032958936 0
          0 0 0 0.0010387755391767532 -0.001312198597642918 0
          0 0 0
          <InformationKey name="L2_NORM_RANGE" location="vtkDataArray" length="2">
            <Value index="0">
              0
            </Value>
            <Value index="1">
              0.045212137771
            </Value>
          </InformationKey>
        </DataArray>
        <DataArray type="Float64" Name="Sld_traction" NumberOfComponents="3" format="ascii" RangeMin="0" RangeMax="3426.2476462643335">
          20.723777313273843 9.662664258490452 0 -33.84397520482668 -79.36368541331056 0
          -131.94560160681476 -136.66139150214798 0 44.12240521356187 -3.9854300292728704 0
          -270.0200399557761 -179.18390864251975 0 0 0 0
          -438.62030283431943 -210.58967955780713 0 0 0 0
          6.73433109615521 -12.345000959511513 0 -625.3331186650466 -234.56778367277073 0
          0 0 0 -64.82435539133976 81.60736603930737 0
          0 0 0 -821.6392886156564 -250.58605097005866 0
          -163.60626960316114 138.4356139936078 0 0 0 0
          -302.8007282173096 179.3531983960005 0 -1030.950790005683 -257.37147051576693 0
          0 0 0 -470.0633085288332 210.81956990315356 0
          -1241.9022800006376 -235.59293791982273 0 -658.6750928578612 235.4080777561916 0
          0 0 0 -1490.6459663832732 -404.85063316926255 0
          -857.111481732518 250.68840877919556 0 0 0 0
          -1932.0877835595713 -2829.5246473836814 0 -1064.0153690508141 258.29264857316036 0
          0 0 0 -1280.8546927488383 236.2166395570369 0
          -1261.1057664497325 -1.477146851524934 0 -1521.0853233005257 399.6738443221069 0
          -1931.2455284393259 2817.9120032520186 0
          <InformationKey name="L2_NORM_RANGE" location="vtkDataArray" length="2">
            <Value index="0">
              0
            </Value>
            <Value index="1">
              3426.2476463
            </Value>
          </InformationKey>
        </DataArray>
        <DataArray type="Float64" Name="Fld_traction" NumberOfComponents="3" format="ascii" RangeMin="0" RangeMax="38.574808767356615">
          24.51448181860558 -0.37167994177015545 0 38.109480954342715 5.973552781111305 0
          37.44932843904625 3.480499944685972 0 14.869413664794514 -3.6690696577508826 0
          36.4215796329508 2.1346761935965692 0 0 0 0
          35.94770206658879 1.326955074738427 0 0 0 0
          12.269334667688268 -1.559490170975026 0 35.51109614241558 0.7539712685966685 0
          0 0 0 9.778021746625559 -0.8818550039473508 0
          0 0 0 35.023276855560454 0.37921378174001236 0
          6.136173314103541 0.5132146868116516 0 0 0 0
          3.9997187997088464 0.7988964134263343 0 34.61020540957218 0.16507107151475492 0
          0 0 0 2.560966837188842 0.8624503751742285 0
          34.38559872096549 0.046275199836043834 0 1.6399220163918866 0.7961354693674499 0
          0 0 0 34.20633399212978 0.001484747404919933 0
          0.9309238570920787 0.6530968458780113 0 0 0 0
          17.34233654732555 -16.800077722385833 0 0.49199415878713565 0.4474846054201721 0
          0 0 0 0.2904452589277397 0.24442051227882125 0
          0 0 0 0.30324046737000593 0.06431898008576513 0
          0.19971807466624064 0.2026927882098966 0
          <InformationKey name="L2_NORM_RANGE" location="vtkDataArray" length="2">
            <Value index="0">
              0
            </Value>
            <Value index="1">
              38.574808767
            </Value>
          </InformationKey>
        </DataArray>
        <DataArray type="Float64" Name="Velocity" NumberOfComponents="3" format="ascii" RangeMin="0" RangeMax="0.010520603849773554">
          -0.001621553553928172 0.00008263622841245266 0 -0.0033491235041094233 0.00002673644555634125 0
          -0.005165955976097987 0.0002313406109457905 0 -0.0014400828846469968 -0.0016238703726328353 0
          -0.007169800600705892 0.00039312777948810607 0 -0.003066356820822694 -0.0016961292095084273 0
          -0.009151148900014477 0.0001973416988666904 0 -0.004827411370702479 -0.0015623623166212243 0
          -0.0013222821329136672 -0.0032926566731322476 0 -0.010477662964505249 -0.0005240335026824661 0
          -0.006857548371709196 -0.0013728569720127255 0 -0.0029550482904664582 -0.0033603758315339724 0
          -0.008949188505690368 -0.0011504361948965814 0 -0.010395994209576272 -0.001614437907857329 0
          -0.004672525073662566 -0.003321595417119856 0 -0.010386751228338126 -0.0009520175028124164 0
          -0.006658898250468864 -0.003101886251554607 0 -0.008553249062780398 -0.002573204756072299 0
          -0.010327246380407398 -0.0007651275300162935 0 -0.008649161660396552 -0.0024960275820802916 0
          -0.005433865206546606 -0.002776962816356171 0 -0.009991451672382762 -0.0013844756177971299 0
          -0.008390295707194233 -0.0005990366626438332 0 -0.0024799119390798733 -0.0018584974269009948 0
          -0.009917900995679043 0.0000730098138758471 0 -0.005078199092766628 -0.0004074023434587787 0
          0 0 0 -0.008072554310739683 0.0013877666065168614 0
          -0.00170910689922611 -0.0001744022834614934 0 -0.004941308366728422 0.0019689346803749156 0
          0 0 0 -0.001899176786926318 0.0014322392839762619 0
          0 0 0
          <InformationKey name="L2_NORM_RANGE" location="vtkDataArray" length="2">
            <Value index="0">
              0
            </Value>
            <Value index="1">
              0.01052060385
            </Value>
          </InformationKey>
        </DataArray>
      </PointData>
      <CellData>
        <DataArray type="UInt8" Name="vtkGhostType" format="ascii" RangeMin="0" RangeMax="0">
          0 0 0 0 0 0
          0 0 0 0 0 0
          0 0 0 0 0 0
          0 0
        </DataArray>
        <DataArray type="Float64" Name="Gauss Stress" NumberOfComponents="6" format="ascii" RangeMin="75.12307850040186" RangeMax="3228.5178613074354">
          4.827814013515159 -44.753024991754685 0 60.14429224220555 0 0
          -35.410824910821155 36.28937334303984 0 58.41321536506362 0 0
          -32.80911395084808 179.80422449907243 0 137.8012105862895 0 0
          -0.06137133364662084 -185.99263959321414 0 139.0480058497377 0 0
          -622.5982262140514 -3150.285010293993 0 333.77145386211384 0 0
          604.0350164165636 3150.7282346313277 0 338.31142236187344 0 0
          -2.888596313633599 -415.83095137851274 0 198.2087397322207 0 0
          -33.335007146415336 410.4905062028469 0 197.57288374885593 0 0
          -138.75625928735013 2608.7574195445036 0 321.2821497132182 0 0
          96.67492547687212 -2615.2787823457943 0 321.2757063872457 0 0
          -30.397286495372853 704.1432566188618 0 241.18548765532782 0 0
          -6.980818415655094 -710.5773645040987 0 240.2562321710987 0 0
          -10.545769226067932 2219.3887273167256 0 310.58404816092497 0 0
          -26.89840661098947 -2215.5742588900853 0 312.4129966238629 0 0
          -9.49316078593128 -1049.8853379100356 0 270.60223573826 0 0
          -27.932875368498713 1045.9700040954 0 270.4476463377903 0 0
          2.9580920294347948 -1811.6709256277093 0 302.36018451458887 0 0
          -38.316078251224496 1815.6750004318842 0 303.18715129529596 0 0
          -26.185009335051035 1415.882706918142 0 290.17226043924575 0 0
          -15.02216148854231 -1422.4895545468498 0 290.71393891364255 0 0
          <InformationKey name="L2_NORM_RANGE" location="vtkDataArray" length="2">
            <Value index="0">
              75.1230785
            </Value>
            <Value index="1">
              3228.5178613
            </Value>
          </InformationKey>
        </DataArray>
        <DataArray type="Float64" Name="Gauss Strain" NumberOfComponents="6" format="ascii" RangeMin="0.0008177091752108017" RangeMax="0.01428300335094726">
          0.0001092349524954156 -0.0002130405010388383 0 0.0007818757991486722 0 0
          -0.00023188353136316395 0.0002341677572869325 0 0.0007593717997458269 0 0
          -0.00049989970624955 0.0008820869936749334 0 0.0017914157376217633 0 0
          0.00036240640763867543 -0.0008461468360485132 0 0.00180762407604659 0 0
          0.003310233840799352 -0.013119730255720264 0 0.004339028900207478 0 0
          -0.003395560732835724 0.013157945185560242 0 0.004398048490704351 0 0
          0.0007977272419610673 -0.001886398065960648 0 0.0025767136165188685 0 0
          -0.0009521307696117412 0.0019327350671584633 0 0.0025684474887351268 0 0
          -0.005718417947869225 0.012140420964537824 0 0.004176667946271835 0 0
          0.005539664536494067 -0.012088034564353263 0 0.004176584183034194 0 0
          -0.001511387003960727 0.003263126526281798 0 0.0031354113395192606 0 0
          0.001353863136991762 -0.003219514412583122 0 0.0031233310182242832 0 0
          -0.004375791268246224 0.010118782959281931 0 0.004037592626092023 0 0
          0.004197982054755665 -0.01002841098505846 0 0.004061368956110216 0 0
          0.0020040825273485822 -0.004758466623958096 0 0.0035178290645973796 0 0
          -0.0021667360909127 0.0048136326256026435 0 0.003515819402391273 0 0
          0.003546217623707962 -0.008248870991063476 0 0.0039306823986896555 0 0
          -0.0037149044068852458 0.008336037604554961 0 0.003941432966838848 0 0
          -0.002880113070964859 0.006493327084680896 0 0.0037722393857101927 0 0
          0.00270550379659349 -0.0064430342582855096 0 0.003779281205877352 0 0
          <InformationKey name="L2_NORM_RANGE" location="vtkDataArray" length="2">
            <Value index="0">
              0.00081770917521
            </Value>
            <Value index="1">
              0.014283003351
            </Value>
          </InformationKey>
        </DataArray>
        <DataArray type="Float64" Name="Btraction" NumberOfComponents="3" format="ascii" RangeMin="0.14236014615571024" RangeMax="19.036991604978976">
          6.784687083120695 -1.307139957181477 0 15.655990693237074 1.4004682098352872 0
          18.889702348347242 2.363513181449319 0 3.978548765182275 -0.09216007928392483 0
          0.12573963550906161 0.06675294207391544 0 12.887167634863834 -4.199648243745227 0
          2.533973028453097 0.32802777505949643 0 18.46772701799926 1.403794034570635 0
          17.14798317827381 0.01193998681024094 0 0.14842143157443638 0.07718487309114659 0
          18.092320424884893 0.8654078170837489 0 1.6401714092244215 0.4153366971501406 0
          17.248951032634416 0.05283656783769969 0 0.1956098544287188 0.17297627942474836 0
          1.050222213395182 0.4146464611354196 0 17.86469955225109 0.5202315858337739 0
          0.3557295039698036 0.2751453628245458 0 17.40837056628316 0.13607121331369182 0
          17.63359324949401 0.2832962625841702 0 0.6427114683709914 0.3623080788113653 0
          <InformationKey name="L2_NORM_RANGE" location="vtkDataArray" length="2">
            <Value index="0">
              0.14236014616
            </Value>
            <Value index="1">
              19.036991605
            </Value>
          </InformationKey>
        </DataArray>
      </CellData>
      <Points>
        <DataArray type="Float32" Name="Points" NumberOfComponents="3" format="ascii" RangeMin="1.4500000476837158" RangeMax="1.6286497021092299">
          1.4500000476837158 0.5 0 1.4500000476837158 0.44999998807907104 0
          1.4500000476837158 0.4000000059604645 0 1.5 0.5 0
          1.4500000476837158 0.3499999940395355 0 1.5002609491348267 0.45016080141067505 0
          1.4500000476837158 0.30000001192092896 0 1.5001590251922607 0.4000298082828522 0
          1.5499999523162842 0.5 0 1.4500000476837158 0.25 0
          1.5005459785461426 0.35020819306373596 0 1.5499999523162842 0.44999998807907104 0
          1.5002089738845825 0.30000561475753784 0 1.4500000476837158 0.20000000298023224 0
          1.5499999523162842 0.4000000059604645 0 1.5002909898757935 0.24981409311294556 0
          1.5499999523162842 0.3499999940395355 0 1.4500000476837158 0.15000000596046448 0
          1.5001939535140991 0.19956040382385254 0 1.5499999523162842 0.30000001192092896 0
          1.4500000476837158 0.10000000149011612 0 1.5499999523162842 0.25 0
          1.499879002571106 0.15004639327526093 0 1.4500000476837158 0.05000000074505806 0
          1.5499999523162842 0.20000000298023224 0 1.5001660585403442 0.10008130222558975 0
          1.4500000476837158 0 0 1.5499999523162842 0.15000000596046448 0
          1.5000410079956055 0.050020311027765274 0 1.5499999523162842 0.10000000149011612 0
          1.5 0 0 1.5499999523162842 0.05000000074505806 0
          1.5499999523162842 0 0
          <InformationKey name="L2_NORM_RANGE" location="vtkDataArray" length="2">
            <Value index="0">
              1.4500000477
            </Value>
            <Value index="1">
              1.6286497021
            </Value>
          </InformationKey>
        </DataArray>
      </Points>
      <Cells>
        <DataArray type="Int64" Name="connectivity" format="ascii" RangeMin="0" RangeMax="32">
          11 8 3 5 3 0
          1 5 1 2 7 5
          11 5 7 14 32 31
          28 30 26 30 28 23
          16 14 7 10 7 2
          4 10 20 23 28 25
          28 31 29 25 4 6
          12 10 16 10 12 19
          17 20 25 22 25 29
          27 22 21 19 12 15
          12 6 9 15 27 24
          18 22 17 22 18 13
          9 13 18 15 15 18
          24 21
        </DataArray>
        <DataArray type="Int64" Name="offsets" format="ascii" RangeMin="4" RangeMax="80">
          4 8 12 16 20 24
          28 32 36 40 44 48
          52 56 60 64 68 72
          76 80
        </DataArray>
        <DataArray type="UInt8" Name="types" format="ascii" RangeMin="9" RangeMax="9">
          9 9 9 9 9 9
          9 9 9 9 9 9
          9 9 9 9 9 9
          9 9
        </DataArray>
      </Cells>
    </Piece>
  </UnstructuredGrid>
</VTKFile>
