<?xml version="1.0"?>
<VTKFile type="UnstructuredGrid" version="0.1" byte_order="LittleEndian" header_type="UInt32" compressor="vtkZLibDataCompressor">
  <UnstructuredGrid>
    <Piece NumberOfPoints="33" NumberOfCells="20">
      <PointData>
        <DataArray type="Float64" Name="sld_BC" NumberOfComponents="3" format="ascii" RangeMin="0" RangeMax="0">
          0 0 0 0 0 0
          0 0 0 0 0 0
          0 0 0 0 0 0
          0 0 0 0 0 0
          0 0 0 0 0 0
          0 0 0 0 0 0
          0 0 0 0 0 0
          0 0 0 0 0 0
          0 0 0 0 0 0
          0 0 0 0 0 0
          0 0 0 0 0 0
          0 0 0 0 0 0
          0 0 0 0 0 0
          0 0 0 0 0 0
          0 0 0 0 0 0
          0 0 0 0 0 0
          0 0 0
          <InformationKey name="L2_NORM_RANGE" location="vtkDataArray" length="2">
            <Value index="0">
              0
            </Value>
            <Value index="1">
              0
            </Value>
          </InformationKey>
        </DataArray>
        <DataArray type="Float64" Name="sld_FIXNO" NumberOfComponents="3" format="ascii" RangeMin="1.4142135623730951" RangeMax="1.4142135623730951">
          -1 -1 0 -1 -1 0
          -1 -1 0 -1 -1 0
          -1 -1 0 -1 -1 0
          -1 -1 0 -1 -1 0
          -1 -1 0 -1 -1 0
          -1 -1 0 -1 -1 0
          -1 -1 0 -1 -1 0
          -1 -1 0 -1 -1 0
          -1 -1 0 -1 -1 0
          -1 -1 0 -1 -1 0
          -1 -1 0 -1 -1 0
          -1 -1 0 -1 -1 0
          -1 -1 0 -1 -1 0
          1 1 0 -1 -1 0
          -1 -1 0 -1 -1 0
          1 1 0 -1 -1 0
          1 1 0
          <InformationKey name="L2_NORM_RANGE" location="vtkDataArray" length="2">
            <Value index="0">
              1.4142135624
            </Value>
            <Value index="1">
              1.4142135624
            </Value>
          </InformationKey>
        </DataArray>
        <DataArray type="Float64" Name="Disp" NumberOfComponents="3" format="ascii" RangeMin="0" RangeMax="0.018887099098878635">
          0.018699875761069275 0.002652764386717371 0 0.016035045859970568 0.0026363970500730507 0
          0.013383586280981973 0.0025802200103052374 0 0.01869369222634693 0.000002110840038788142 0
          0.010803935599756327 0.0024689034404538944 0 0.016032079481686945 -0.00001217119924750397 0
          0.00836117187430355 0.002296283743448656 0 0.013363166650657806 -0.0000071177328382562854 0
          0.018695454055828453 -0.0026475667161476903 0 0.006122494805877595 0.0020613609200766094 0
          0.010779447450466967 -0.000026292308054144664 0 0.01603018999445286 -0.0026320400992137505 0
          0.00831345731541639 -0.000009540566054092156 0 0.004149363445261124 0.0017663853822063606 0
          0.013378506192501291 -0.002577274844346375 0 0.0060532183707302616 -0.000012412678029869204 0
          0.010798081281056157 -0.0024673988222811503 0 0.002500493624579949 0.0014125665349706477 0
          0.004059363768865023 -0.000008001454312234554 0 0.008355781545819677 -0.0022957748159063737 0
          0.0012300442693569682 0.001000636431044179 0 0.006116468465252191 -0.002062162347898307 0
          0.002415238511865619 0.0000020679230042854486 0 0.00041443657397359767 0.0005183294545503883 0
          0.004143232698170018 -0.0017680601874073302 0 0.0011360773123175072 -0.000004526456564829045 0
          0 0 0 0.0024959404159810455 -0.001414872581423097 0
          0.0002783163978676522 -0.0000017458909020924646 0 0.0012240824528181576 -0.0010031954531966936 0
          0 0 0 0.0004094362257559829 -0.0005197075315769219 0
          0 0 0
          <InformationKey name="L2_NORM_RANGE" location="vtkDataArray" length="2">
            <Value index="0">
              0
            </Value>
            <Value index="1">
              0.018887099099
            </Value>
          </InformationKey>
        </DataArray>
        <DataArray type="Float64" Name="Sld_traction" NumberOfComponents="3" format="ascii" RangeMin="0" RangeMax="1352.2232944431244">
          14.797239298564554 7.700277254408416 0 -17.332529475032874 -45.97766318372966 0
          -73.09181372328086 -70.06430147662806 0 28.16346711062241 -2.743869498111575 0
          -140.93883199686908 -81.11230626476684 0 0 0 0
          -213.30304964488 -84.393244840829 0 0 0 0
          4.498367764872697 -9.375528329185393 0 -283.8424774167854 -84.87236949079056 0
          0 0 0 -40.24245727846311 48.17368690515866 0
          0 0 0 -350.7904693703148 -84.84787665211435 0
          -96.55256516546379 71.7973760419816 0 0 0 0
          -165.5858374631843 81.91405128430883 0 -419.2265189533138 -85.62539736320909 0
          0 0 0 -238.012931422164 85.18266805545446 0
          -489.3942107555662 -80.609618992588 0 -310.0407118265897 85.78513479546565 0
          0 0 0 -580.0542129399784 -155.71475571958726 0
          -378.2306798214186 85.1845748300332 0 0 0 0
          -759.5758091311242 -1114.0908383735393 0 -445.77312753674744 85.98808623235429 0
          0 0 0 -518.3504151272613 80.916062273494 0
          -496.57220552046863 7.544047371477511 0 -604.9798073436517 152.7996239751681 0
          -763.1020013153317 1116.3257470931826 0
          <InformationKey name="L2_NORM_RANGE" location="vtkDataArray" length="2">
            <Value index="0">
              0
            </Value>
            <Value index="1">
              1352.2232944
            </Value>
          </InformationKey>
        </DataArray>
        <DataArray type="Float64" Name="Fld_traction" NumberOfComponents="3" format="ascii" RangeMin="0" RangeMax="38.69244057380626">
          24.602918755066423 -0.45669450425570435 0 38.23749214905241 5.9160080889637365 0
          37.54420277179114 3.4180436842619035 0 14.883013376826847 -3.7652969934948968 0
          36.49058086606769 2.0740121120900774 0 0 0 0
          35.995592970905996 1.273581118583128 0 0 0 0
          12.189971310556295 -1.5545600439579015 0 35.54416083431736 0.711586096984939 0
          0 0 0 9.633818384345359 -0.8021900567784744 0
          0 0 0 35.05016859843566 0.3496606585854266 0
          6.0198412116478535 0.580864835951479 0 0 0 0
          3.905989652199608 0.8577903867122776 0 34.64000334924418 0.14717188563343575 0
          0 0 0 2.48687322504995 0.9112243766091135 0
          34.41861124704092 0.037714278817875466 0 1.5810084938635582 0.8317391795833463 0
          0 0 0 34.24669394327408 -0.0005449276654347372 0
          0.892221648563197 0.6747003487619155 0 0 0 0
          17.36540586114283 -16.822758194296334 0 0.4684383547607536 0.4545077980591302 0
          0 0 0 0.29134349390024855 0.24248058152010046 0
          0 0 0 0.32156238387130515 0.06208073753789386 0
          0.21040144445556158 0.21365836729672963 0
          <InformationKey name="L2_NORM_RANGE" location="vtkDataArray" length="2">
            <Value index="0">
              0
            </Value>
            <Value index="1">
              38.692440574
            </Value>
          </InformationKey>
        </DataArray>
        <DataArray type="Float64" Name="Velocity" NumberOfComponents="3" format="ascii" RangeMin="0" RangeMax="0.16400748763442857">
          -0.16212926641374253 -0.022429182675891876 0 -0.13847129689216578 -0.022161833317103245 0
          -0.11500925466786015 -0.02158721539815499 0 -0.1621393179480028 0.0010736296999771468 0
          -0.09256589497597748 -0.020399021833643758 0 -0.13853703840160364 0.001253469731484871 0
          -0.07171032918071665 -0.018747835081229645 0 -0.1148909582290038 0.0011133320355108138 0
          -0.16215288772064268 0.02459465397223328 0 -0.05269048931188717 -0.016804464860001256 0
          -0.09238256239823181 0.0012218012002429943 0 -0.13851342408218106 0.024446767244146385 0
          -0.07137206875638999 0.0010548613387312885 0 -0.03564141806297379 -0.01450312234323491 0
          -0.1150435182909241 0.023701036642845 0 -0.052235480443981144 0.0010400870856303753 0
          -0.09253454777733568 0.022396031641081116 0 -0.02111322794994163 -0.011615654030399906 0
          -0.035032267236618855 0.000910961345728965 0 -0.07168111049298118 0.020684080008370374 0
          -0.010046205252832983 -0.008107757110355987 0 -0.05269474891230118 0.018657579290737147 0
          -0.020527700591566223 0.0006803716522982399 0 -0.0031270074295654923 -0.004104160573918938 0
          -0.035698360936632506 0.01618232126041691 0 -0.009369753403806075 0.0005646006871110995 0
          0 0 0 -0.0212239220934941 0.013018420899426087 0
          -0.0022367482821813926 0.00029826776245958837 0 -0.01015383147466271 0.009134845881736825 0
          0 0 0 -0.003403245196487048 0.004660874599393131 0
          0 0 0
          <InformationKey name="L2_NORM_RANGE" location="vtkDataArray" length="2">
            <Value index="0">
              0
            </Value>
            <Value index="1">
              0.16400748763
            </Value>
          </InformationKey>
        </DataArray>
      </PointData>
      <CellData>
        <DataArray type="UInt8" Name="vtkGhostType" format="ascii" RangeMin="0" RangeMax="0">
          0 0 0 0 0 0
          0 0 0 0 0 0
          0 0 0 0 0 0
          0 0
        </DataArray>
        <DataArray type="Float64" Name="Gauss Stress" NumberOfComponents="6" format="ascii" RangeMin="50.82147678276879" RangeMax="1282.5247825768429">
          5.461014717195248 -30.73583227730009 0 40.10372096030195 0 0
          -28.12528737045354 25.02970812677299 0 38.084893698511095 0 0
          -24.79240944488339 113.31414477133941 0 76.4199363752583 0 0
          0.9040680552187244 -119.2942333432484 0 78.12925435602874 0 0
          -247.76598110814615 -1251.614307929954 0 130.16704926485085 0 0
          229.56766459221603 1234.0497771807795 0 132.90863406369184 0 0
          -1.7968124023412457 -243.32968033158207 0 97.38207928978497 0 0
          -24.744558363293912 233.5490090089985 0 96.17559711919628 0 0
          -67.52835652881868 1028.7162038423605 0 115.58018713838507 0 0
          37.0507795574467 -1048.2330091974259 0 115.87027602579653 0 0
          -22.85404512707659 367.55817802733 0 102.98402083408527 0 0
          -4.830172341152547 -380.2870068537335 0 103.26559209470216 0 0
          -16.018740069292164 897.9441362840367 0 103.44893265806807 0 0
          -12.299276419610322 -911.0173219618265 0 104.28854452434607 0 0
          -6.250047917799094 -516.9950409348618 0 102.87669842507313 0 0
          -21.798744079831906 504.7766885569003 0 102.12864468555608 0 0
          -0.5870344078264367 -779.1398788641121 0 99.0271350918946 0 0
          -26.99325511421236 768.4800443586228 0 99.08701898300427 0 0
          -21.463202799949343 636.477205295987 0 99.54160126060783 0 0
          -8.529713255211007 -650.4741492221829 0 100.23199199185397 0 0
          <InformationKey name="L2_NORM_RANGE" location="vtkDataArray" length="2">
            <Value index="0">
              50.821476783
            </Value>
            <Value index="1">
              1282.5247826
            </Value>
          </InformationKey>
        </DataArray>
        <DataArray type="Float64" Name="Gauss Strain" NumberOfComponents="6" format="ascii" RangeMin="0.0005492190344284292" RangeMax="0.005634719775734783">
          0.00008478248990397355 -0.00015049701556024613 0 0.0005213483724839253 0 0
          -0.00017677798838277095 0.00016872948234920152 0 0.0004951036180806442 0 0
          -0.0003337680452783313 0.0005639245571271169 0 0.0009934591728783578 0 0
          0.0002367372646705796 -0.0005445516944194567 0 0.0010156803066283734 0 0
          0.001313312686421346 -0.005211701437920406 0 0.001692171640443061 0 0
          -0.0013618641916079378 0.005167269540217727 0 0.0017278122428279938 0 0
          0.00046631738021593247 -0.001103646261324133 0 0.0012659670307672043 0 0
          -0.0005680083081205343 0.001110899879799366 0 0.0012502827625495514 0 0
          -0.002313250619698728 0.0048123390227139354 0 0.0015025424327990053 0 0
          0.0022126354149213634 -0.004841709211985308 0 0.0015063135883353544 0 0
          -0.000820724352481492 0.0017169550980221508 0 0.0013387922708431082 0 0
          0.0007195823792125362 -0.0017208870451192399 0 0.001342452697231128 0 0
          -0.0018238763330691511 0.004116882363227487 0 0.0013448361245548851 0 0
          0.001720522070116335 -0.0041211452259080706 0 0.0013557510788164986 0 0
          0.0009797026117969948 -0.002340139842813913 0 0.0013373970795259506 0 0
          -0.001083498828249191 0.002339241483889569 0 0.001327672380912229 0 0
          0.0015166517572294085 -0.0035439417317364484 0 0.0012873527561946293 0 0
          -0.0016213553972689804 0.0035492210493044468 0 0.0012881312467790552 0 0
          -0.001338788123066944 0.0029378245295566424 0 0.0012940408163879015 0 0
          0.0012296143956720467 -0.0029430244381132703 0 0.0013030158958941013 0 0
          <InformationKey name="L2_NORM_RANGE" location="vtkDataArray" length="2">
            <Value index="0">
              0.00054921903443
            </Value>
            <Value index="1">
              0.0056347197757
            </Value>
          </InformationKey>
        </DataArray>
        <DataArray type="Float64" Name="Btraction" NumberOfComponents="3" format="ascii" RangeMin="0.149795186960224" RangeMax="19.08859248278448">
          6.768246171845785 -1.3299642593631997 0 15.710102726029708 1.364828396177008 0
          18.945423730210884 2.3335129433064097 0 3.913414898998303 -0.05533130520674884 0
          0.13299095708171665 0.06893477620865587 0 12.903024951104225 -4.205825780490443 0
          2.481457715961865 0.35966380566593914 0 18.50869590946471 1.3730139490879951 0
          17.166326297578753 0.009292337788110182 0 0.15322646944288842 0.07614032976449858 0
          18.12154345924342 0.8368983076683014 0 1.5982157193123891 0.44225369083034766 0
          17.264653649071278 0.04622154111282781 0 0.18994546216525052 0.17424709489480764 0
          1.016970429728377 0.43574088904811487 0 17.88493845130584 0.4962918038920167 0
          0.34016500083098766 0.2823020367052613 0 17.42254298691996 0.12420813605471559 0
          17.648582358188257 0.2653116888925914 0 0.6183075356066888 0.3766098820863154 0
          <InformationKey name="L2_NORM_RANGE" location="vtkDataArray" length="2">
            <Value index="0">
              0.14979518696
            </Value>
            <Value index="1">
              19.088592483
            </Value>
          </InformationKey>
        </DataArray>
      </CellData>
      <Points>
        <DataArray type="Float32" Name="Points" NumberOfComponents="3" format="ascii" RangeMin="1.4500000476837158" RangeMax="1.6286497021092299">
          1.4500000476837158 0.5 0 1.4500000476837158 0.44999998807907104 0
          1.4500000476837158 0.4000000059604645 0 1.5 0.5 0
          1.4500000476837158 0.3499999940395355 0 1.5002609491348267 0.45016080141067505 0
          1.4500000476837158 0.30000001192092896 0 1.5001590251922607 0.4000298082828522 0
          1.5499999523162842 0.5 0 1.4500000476837158 0.25 0
          1.5005459785461426 0.35020819306373596 0 1.5499999523162842 0.44999998807907104 0
          1.5002089738845825 0.30000561475753784 0 1.4500000476837158 0.20000000298023224 0
          1.5499999523162842 0.4000000059604645 0 1.5002909898757935 0.24981409311294556 0
          1.5499999523162842 0.3499999940395355 0 1.4500000476837158 0.15000000596046448 0
          1.5001939535140991 0.19956040382385254 0 1.5499999523162842 0.30000001192092896 0
          1.4500000476837158 0.10000000149011612 0 1.5499999523162842 0.25 0
          1.499879002571106 0.15004639327526093 0 1.4500000476837158 0.05000000074505806 0
          1.5499999523162842 0.20000000298023224 0 1.5001660585403442 0.10008130222558975 0
          1.4500000476837158 0 0 1.5499999523162842 0.15000000596046448 0
          1.5000410079956055 0.050020311027765274 0 1.5499999523162842 0.10000000149011612 0
          1.5 0 0 1.5499999523162842 0.05000000074505806 0
          1.5499999523162842 0 0
          <InformationKey name="L2_NORM_RANGE" location="vtkDataArray" length="2">
            <Value index="0">
              1.4500000477
            </Value>
            <Value index="1">
              1.6286497021
            </Value>
          </InformationKey>
        </DataArray>
      </Points>
      <Cells>
        <DataArray type="Int64" Name="connectivity" format="ascii" RangeMin="0" RangeMax="32">
          11 8 3 5 3 0
          1 5 1 2 7 5
          11 5 7 14 32 31
          28 30 26 30 28 23
          16 14 7 10 7 2
          4 10 20 23 28 25
          28 31 29 25 4 6
          12 10 16 10 12 19
          17 20 25 22 25 29
          27 22 21 19 12 15
          12 6 9 15 27 24
          18 22 17 22 18 13
          9 13 18 15 15 18
          24 21
        </DataArray>
        <DataArray type="Int64" Name="offsets" format="ascii" RangeMin="4" RangeMax="80">
          4 8 12 16 20 24
          28 32 36 40 44 48
          52 56 60 64 68 72
          76 80
        </DataArray>
        <DataArray type="UInt8" Name="types" format="ascii" RangeMin="9" RangeMax="9">
          9 9 9 9 9 9
          9 9 9 9 9 9
          9 9 9 9 9 9
          9 9
        </DataArray>
      </Cells>
    </Piece>
  </UnstructuredGrid>
</VTKFile>
