<?xml version="1.0"?>
<VTKFile type="UnstructuredGrid" version="0.1" byte_order="LittleEndian" header_type="UInt32" compressor="vtkZLibDataCompressor">
  <UnstructuredGrid>
    <Piece NumberOfPoints="33" NumberOfCells="20">
      <PointData>
        <DataArray type="Float64" Name="sld_BC" NumberOfComponents="3" format="ascii" RangeMin="0" RangeMax="0">
          0 0 0 0 0 0
          0 0 0 0 0 0
          0 0 0 0 0 0
          0 0 0 0 0 0
          0 0 0 0 0 0
          0 0 0 0 0 0
          0 0 0 0 0 0
          0 0 0 0 0 0
          0 0 0 0 0 0
          0 0 0 0 0 0
          0 0 0 0 0 0
          0 0 0 0 0 0
          0 0 0 0 0 0
          0 0 0 0 0 0
          0 0 0 0 0 0
          0 0 0 0 0 0
          0 0 0
          <InformationKey name="L2_NORM_RANGE" location="vtkDataArray" length="2">
            <Value index="0">
              0
            </Value>
            <Value index="1">
              0
            </Value>
          </InformationKey>
        </DataArray>
        <DataArray type="Float64" Name="sld_FIXNO" NumberOfComponents="3" format="ascii" RangeMin="1.4142135623730951" RangeMax="1.4142135623730951">
          -1 -1 0 -1 -1 0
          -1 -1 0 -1 -1 0
          -1 -1 0 -1 -1 0
          -1 -1 0 -1 -1 0
          -1 -1 0 -1 -1 0
          -1 -1 0 -1 -1 0
          -1 -1 0 -1 -1 0
          -1 -1 0 -1 -1 0
          -1 -1 0 -1 -1 0
          -1 -1 0 -1 -1 0
          -1 -1 0 -1 -1 0
          -1 -1 0 -1 -1 0
          -1 -1 0 -1 -1 0
          1 1 0 -1 -1 0
          -1 -1 0 -1 -1 0
          1 1 0 -1 -1 0
          1 1 0
          <InformationKey name="L2_NORM_RANGE" location="vtkDataArray" length="2">
            <Value index="0">
              1.4142135624
            </Value>
            <Value index="1">
              1.4142135624
            </Value>
          </InformationKey>
        </DataArray>
        <DataArray type="Float64" Name="Disp" NumberOfComponents="3" format="ascii" RangeMin="0" RangeMax="0.00546525214891153">
          0.005449685241948887 0.0004122036085074921 0 0.004950412238256599 0.0004240633098779527 0
          0.004460999064413592 0.00043717206333461695 0 0.005431796934759218 -0.00008928408423586874 0
          0.003965225687768304 0.00046213011694904913 0 0.004930243532920749 -0.00008088625139847773 0
          0.0034428238107827597 0.0004996998366546296 0 0.0044402354128557356 -0.00006973140642707598 0
          0.0054230464701924734 -0.0005909280504098243 0 0.002876163638163211 0.0005422789766984507 0
          0.003948508825198884 -0.00006445534705890461 0 0.004921824168520708 -0.0005804954974612273 0
          0.0034256990704783015 -0.00005213912506974167 0 0.0022598439772737295 0.0005739663421128715 0
          0.004430761267672873 -0.0005732205631642487 0 0.0028559921898170873 -0.00004477767780188678 0
          0.003934275934217242 -0.0005792874187577678 0 0.0016089880242379912 0.0005702517369306454 0
          0.0022313539791265 -0.00003564660800528383 0 0.0034109874705889626 -0.0005992072285300608 0
          0.0009642601256303384 0.0004989077273723293 0 0.0028438821595446876 -0.00062505312388944 0
          0.0015750894771340807 -0.000024162921140697956 0 0.0004234647129524211 0.00031378512459666335 0
          0.0022270673819469555 -0.0006406720142148714 0 0.0009151422425770791 -0.00001983246518298942 0
          0 0 0 0.0015760265423834673 -0.0006213848945332223 0
          0.00032312675497813586 -0.000012819338984210616 0 0.0009302545864835076 -0.0005350378074595522 0
          0 0 0 0.0003890455261769955 -0.000332040630102953 0
          0 0 0
          <InformationKey name="L2_NORM_RANGE" location="vtkDataArray" length="2">
            <Value index="0">
              0
            </Value>
            <Value index="1">
              0.0054652521489
            </Value>
          </InformationKey>
        </DataArray>
        <DataArray type="Float64" Name="Sld_traction" NumberOfComponents="3" format="ascii" RangeMin="0" RangeMax="1023.5413625965274">
          64.51032840661018 -49.93836441911941 0 141.4095256091036 12.78816454018769 0
          155.35940232801926 22.747347100261447 0 0.8969240692156392 -90.42113974992793 0
          173.21663278154742 21.366656719870438 0 0 0 0
          186.76196270128673 9.091357004500352 0 0 0 0
          -33.72556808245346 -39.2250997971624 0 185.76840659460177 -14.535969478049989 0
          0 0 0 -61.182570878824066 -9.982961225820416 0
          0 0 0 161.14307186991581 -49.3117191307174 0
          -51.64368485072098 -20.62144031774989 0 0 0 0
          -35.44328246046392 -19.747707064203837 0 102.7391750848651 -97.16629486039481 0
          0 0 0 -23.833254321632655 -7.831172151393345 0
          4.483754993038698 -144.95444042908295 0 -25.8222720389749 15.358287297867376 0
          0 0 0 -170.2965833512595 -274.1904669584283 0
          -51.39494558057064 49.88279381184637 0 0 0 0
          -571.8111951955203 -793.622659264107 0 -110.87807303912975 98.10149767221968 0
          0 0 0 -215.1194140095519 147.93172147600464 0
          -539.6040709991105 62.41019381712581 0 -365.3436696686513 255.2663629349729 0
          -606.1348892268599 824.7650677665115 0
          <InformationKey name="L2_NORM_RANGE" location="vtkDataArray" length="2">
            <Value index="0">
              0
            </Value>
            <Value index="1">
              1023.5413626
            </Value>
          </InformationKey>
        </DataArray>
        <DataArray type="Float64" Name="Fld_traction" NumberOfComponents="3" format="ascii" RangeMin="0" RangeMax="202.57981773486065">
          90.14389112523479 -52.339275140872275 0 178.63724902842378 11.025411057165904 0
          186.57686883098964 7.755229944118059 0 22.46305902795962 -93.14108348864566 0
          191.23173830113402 5.795833039992889 0 0 0 0
          195.16442183813749 4.390429053134508 0 0 0 0
          -8.092602319303083 -39.49314129906889 0 198.15797855748627 3.2597023075908718 0
          0 0 0 -24.27912890088 -8.099900523357256 0
          0 0 0 200.2838501764915 2.31623235830169 0
          -21.009405895662287 -5.293398260721203 0 0 0 0
          -18.191771993450715 -3.9692105628332417 0 201.64834395150874 1.5077093035882994 0
          0 0 0 -15.956450654909679 -2.9785041562656973 0
          202.48206287682137 0.8156490101247682 0 -14.016823541177255 -2.174669551875428 0
          0 0 0 202.5796774877327 0.23837461183631314 0
          -12.790961729091181 -1.5394485117848733 0 0 0 0
          102.74669451363154 -99.55125165706035 0 -11.825011608081455 -0.9728453390554799 0
          0 0 0 -11.414858014490171 -0.500472538679715 0
          0 0 0 -11.412546407695114 -0.1299083730907003 0
          -5.799717841370286 -5.794870728159352 0
          <InformationKey name="L2_NORM_RANGE" location="vtkDataArray" length="2">
            <Value index="0">
              0
            </Value>
            <Value index="1">
              202.57981773
            </Value>
          </InformationKey>
        </DataArray>
        <DataArray type="Float64" Name="Velocity" NumberOfComponents="3" format="ascii" RangeMin="0" RangeMax="0.10930504297823061">
          0.10899370483897775 0.008244072170149842 0 0.09900824476513198 0.008481266197559054 0
          0.08921998128827184 0.00874344126669234 0 0.10863593869518436 -0.0017856816847173747 0
          0.07930451375536608 0.009242602338980983 0 0.09860487065841499 -0.0016177250279695546 0
          0.06885647621565519 0.009993996733092592 0 0.08880470825711471 -0.0013946281285415196 0
          0.10846092940384947 -0.011818561008196487 0 0.057523272763264216 0.010845579533969014 0
          0.07897017650397768 -0.0012891069411780922 0 0.09843648337041416 -0.011609909949224544 0
          0.06851398140956604 -0.0010427825013948333 0 0.04519687954547459 0.01147932684225743 0
          0.08861522535345745 -0.011464411263284974 0 0.057119843796341746 -0.0008955535560377357 0
          0.07868551868434484 -0.011585748375155355 0 0.032179760484759824 0.011405034738612908 0
          0.04462707958253 -0.0007129321601056767 0 0.06821974941177925 -0.011984144570601216 0
          0.019285202512606767 0.009978154547446586 0 0.05687764319089375 -0.0125010624777888 0
          0.03150178954268162 -0.0004832584228139591 0 0.008469294259048422 0.006275702491933267 0
          0.04454134763893911 -0.012813440284297428 0 0.018302844851541582 -0.0003966493036597884 0
          0 0 0 0.03152053084766934 -0.012427697890664446 0
          0.006462535099562718 -0.0002563867796842123 0 0.01860509172967015 -0.010700756149191044 0
          0 0 0 0.00778091052353991 -0.00664081260205906 0
          0 0 0
          <InformationKey name="L2_NORM_RANGE" location="vtkDataArray" length="2">
            <Value index="0">
              0
            </Value>
            <Value index="1">
              0.10930504298
            </Value>
          </InformationKey>
        </DataArray>
      </PointData>
      <CellData>
        <DataArray type="UInt8" Name="vtkGhostType" format="ascii" RangeMin="0" RangeMax="0">
          0 0 0 0 0 0
          0 0 0 0 0 0
          0 0 0 0 0 0
          0 0
        </DataArray>
        <DataArray type="Float64" Name="Gauss Stress" NumberOfComponents="6" format="ascii" RangeMin="59.49240689384506" RangeMax="929.9934563759195">
          -66.77441639702388 -75.838418809209 0 0.3404013921196781 0 0
          -132.95268490652307 -107.33975260260557 0 -1.1099297496734906 0 0
          -141.51664792742585 -111.65390316810822 0 -22.611051202902104 0 0
          -63.378616824228146 -65.35626259092314 0 -21.19736453787489 0 0
          -219.74816812880692 -851.7175946593882 0 301.9531593702723 0 0
          76.97656710539175 694.6615894072106 0 323.07744620444333 0 0
          -61.587004390759844 -33.41215369679149 0 -27.4509842175166 0 0
          -146.03204321004563 -137.87563273382207 0 -28.494569645561032 0 0
          -198.05119852312242 308.73330598262794 0 221.9978469415964 0 0
          -19.351223839621277 -467.3647763745535 0 227.6678370074833 0 0
          -149.69788423099143 -165.7055581687902 0 -20.81344900106593 0 0
          -59.52716875908037 -0.8832889552460834 0 -19.881884316766424 0 0
          -154.19636505711333 74.20811686865886 0 147.75262068360695 0 0
          -60.58050864196711 -232.32632443139417 0 148.65775477675433 0 0
          -57.86747275168645 13.756881865640757 0 1.2042743418565331 0 0
          -153.0435857002949 -177.226419894354 0 0.657320777225225 0 0
          -54.237804967524106 -82.79253272189149 0 85.15754549599178 0 0
          -158.6189254944625 -76.80861510418592 0 85.03969941177593 0 0
          -155.31082201939043 -153.55680139094008 0 35.92673738325675 0 0
          -56.50000544730173 -7.414982177578942 0 36.3176803669475 0 0
          <InformationKey name="L2_NORM_RANGE" location="vtkDataArray" length="2">
            <Value index="0">
              59.492406894
            </Value>
            <Value index="1">
              929.99345638
            </Value>
          </InformationKey>
        </DataArray>
        <DataArray type="Float64" Name="Gauss Strain" NumberOfComponents="6" format="ascii" RangeMin="0.00026551646501593877" RangeMax="0.0052655562033687925">
          -0.0001559386779285011 -0.0002148546936077043 0 0.000004425218097555815 0 0
          -0.0003956221987495992 -0.00022913813877413524 0 -0.000014429086745755375 0 0
          -0.00042617563689197665 -0.00023206779595641197 0 -0.0002939436656377273 0 0
          -0.0001609279944979379 -0.00017378269198145536 0 -0.00027556573899237356 0 0
          0.0006609951445997351 -0.003446806127849042 0 0.003925391071813539 0 0
          -0.0010043467190145282 0.003010605925947294 0 0.0042000068006577615 0 0
          -0.00021506717026921387 -0.00003193064075841958 0 -0.00035686279482771563 0 0
          -0.00039558831277475455 -0.0003425716446793014 0 -0.00037042940539229333 0 0
          -0.0015031628999463318 0.001790936379341046 0 0.0028859720102407524 0 0
          0.0008233132454601027 -0.0020887748460169564 0 0.002959681881097283 0 0
          -0.0003579995348218703 -0.00046204941541756197 0 -0.0002705748370138571 0 0
          -0.00026912620439108583 0.000112059014333837 0 -0.00025846449611796347 0 0
          -0.0008462992889037505 0.0006383298436137691 0 0.0019207840688868897 0 0
          0.00017739501832026838 -0.0009389527843110076 0 0.001932550812097806 0 0
          -0.0002901229206581728 0.00017543538435445404 0 0.000015655566444134923 0 0
          -0.0003507567961423515 -0.0005079452184037355 0 0.000008545170103927912 0 0
          -0.00008533657379454626 -0.00027094230419793424 0 0.001107048091447893 0 0
          -0.0005719393115466418 -0.000040172294009844026 0 0.001105516092353087 0 0
          -0.0004072284774758934 -0.0003958273433909658 0 0.0004670475859823377 0 0
          -0.00024261580953894394 0.00007643684171425419 0 0.00047212984477031745 0 0
          <InformationKey name="L2_NORM_RANGE" location="vtkDataArray" length="2">
            <Value index="0">
              0.00026551646502
            </Value>
            <Value index="1">
              0.0052655562034
            </Value>
          </InformationKey>
        </DataArray>
        <DataArray type="Float64" Name="Btraction" NumberOfComponents="3" format="ascii" RangeMin="4.550858764963104" RangeMax="101.26577792897173">
          3.5926141771641342 -33.158556196928636 0 67.19528503841464 -10.32846602092659 0
          91.30352946485336 4.69516025032099 0 -11.322133699135572 -3.3483246960196142 0
          -4.30306606226635 -1.4811947753125128 0 76.33159300034106 -24.828219261306007 0
          -9.80029447227825 -2.315652205888611 0 94.4521517830309 3.387765746027737 0
          101.26543509113853 0.26350590549027036 0 -5.7068511055463205 -0.1575952279426038 0
          96.59904003481788 2.546565523281849 0 -8.537055662090097 -1.7369286797747345 0
          101.03260170708252 0.5808395784282668 0 -5.809967405642906 -0.3683294694337987 0
          -7.4933185490217324 -1.2882934270352813 0 98.33060009890593 1.9125328401813448 0
          -6.153993334293158 -0.6280734627100883 0 100.48304853200004 0.9559854154724974 0
          99.61045718349443 1.3939836664731406 0 -6.701946317567108 -0.9285295159150752 0
          <InformationKey name="L2_NORM_RANGE" location="vtkDataArray" length="2">
            <Value index="0">
              4.550858765
            </Value>
            <Value index="1">
              101.26577793
            </Value>
          </InformationKey>
        </DataArray>
      </CellData>
      <Points>
        <DataArray type="Float32" Name="Points" NumberOfComponents="3" format="ascii" RangeMin="1.4500000476837158" RangeMax="1.6286497021092299">
          1.4500000476837158 0.5 0 1.4500000476837158 0.44999998807907104 0
          1.4500000476837158 0.4000000059604645 0 1.5 0.5 0
          1.4500000476837158 0.3499999940395355 0 1.5002609491348267 0.45016080141067505 0
          1.4500000476837158 0.30000001192092896 0 1.5001590251922607 0.4000298082828522 0
          1.5499999523162842 0.5 0 1.4500000476837158 0.25 0
          1.5005459785461426 0.35020819306373596 0 1.5499999523162842 0.44999998807907104 0
          1.5002089738845825 0.30000561475753784 0 1.4500000476837158 0.20000000298023224 0
          1.5499999523162842 0.4000000059604645 0 1.5002909898757935 0.24981409311294556 0
          1.5499999523162842 0.3499999940395355 0 1.4500000476837158 0.15000000596046448 0
          1.5001939535140991 0.19956040382385254 0 1.5499999523162842 0.30000001192092896 0
          1.4500000476837158 0.10000000149011612 0 1.5499999523162842 0.25 0
          1.499879002571106 0.15004639327526093 0 1.4500000476837158 0.05000000074505806 0
          1.5499999523162842 0.20000000298023224 0 1.5001660585403442 0.10008130222558975 0
          1.4500000476837158 0 0 1.5499999523162842 0.15000000596046448 0
          1.5000410079956055 0.050020311027765274 0 1.5499999523162842 0.10000000149011612 0
          1.5 0 0 1.5499999523162842 0.05000000074505806 0
          1.5499999523162842 0 0
          <InformationKey name="L2_NORM_RANGE" location="vtkDataArray" length="2">
            <Value index="0">
              1.4500000477
            </Value>
            <Value index="1">
              1.6286497021
            </Value>
          </InformationKey>
        </DataArray>
      </Points>
      <Cells>
        <DataArray type="Int64" Name="connectivity" format="ascii" RangeMin="0" RangeMax="32">
          11 8 3 5 3 0
          1 5 1 2 7 5
          11 5 7 14 32 31
          28 30 26 30 28 23
          16 14 7 10 7 2
          4 10 20 23 28 25
          28 31 29 25 4 6
          12 10 16 10 12 19
          17 20 25 22 25 29
          27 22 21 19 12 15
          12 6 9 15 27 24
          18 22 17 22 18 13
          9 13 18 15 15 18
          24 21
        </DataArray>
        <DataArray type="Int64" Name="offsets" format="ascii" RangeMin="4" RangeMax="80">
          4 8 12 16 20 24
          28 32 36 40 44 48
          52 56 60 64 68 72
          76 80
        </DataArray>
        <DataArray type="UInt8" Name="types" format="ascii" RangeMin="9" RangeMax="9">
          9 9 9 9 9 9
          9 9 9 9 9 9
          9 9 9 9 9 9
          9 9
        </DataArray>
      </Cells>
    </Piece>
  </UnstructuredGrid>
</VTKFile>
