<?xml version="1.0"?>
<VTKFile type="UnstructuredGrid" version="0.1" byte_order="LittleEndian" header_type="UInt32" compressor="vtkZLibDataCompressor">
  <UnstructuredGrid>
    <Piece NumberOfPoints="33" NumberOfCells="20">
      <PointData>
        <DataArray type="Float64" Name="sld_BC" NumberOfComponents="3" format="ascii" RangeMin="0" RangeMax="0">
          0 0 0 0 0 0
          0 0 0 0 0 0
          0 0 0 0 0 0
          0 0 0 0 0 0
          0 0 0 0 0 0
          0 0 0 0 0 0
          0 0 0 0 0 0
          0 0 0 0 0 0
          0 0 0 0 0 0
          0 0 0 0 0 0
          0 0 0 0 0 0
          0 0 0 0 0 0
          0 0 0 0 0 0
          0 0 0 0 0 0
          0 0 0 0 0 0
          0 0 0 0 0 0
          0 0 0
          <InformationKey name="L2_NORM_RANGE" location="vtkDataArray" length="2">
            <Value index="0">
              0
            </Value>
            <Value index="1">
              0
            </Value>
          </InformationKey>
        </DataArray>
        <DataArray type="Float64" Name="sld_FIXNO" NumberOfComponents="3" format="ascii" RangeMin="1.4142135623730951" RangeMax="1.4142135623730951">
          -1 -1 0 -1 -1 0
          -1 -1 0 -1 -1 0
          -1 -1 0 -1 -1 0
          -1 -1 0 -1 -1 0
          -1 -1 0 -1 -1 0
          -1 -1 0 -1 -1 0
          -1 -1 0 -1 -1 0
          -1 -1 0 -1 -1 0
          -1 -1 0 -1 -1 0
          -1 -1 0 -1 -1 0
          -1 -1 0 -1 -1 0
          -1 -1 0 -1 -1 0
          -1 -1 0 -1 -1 0
          1 1 0 -1 -1 0
          -1 -1 0 -1 -1 0
          1 1 0 -1 -1 0
          1 1 0
          <InformationKey name="L2_NORM_RANGE" location="vtkDataArray" length="2">
            <Value index="0">
              1.4142135624
            </Value>
            <Value index="1">
              1.4142135624
            </Value>
          </InformationKey>
        </DataArray>
        <DataArray type="Float64" Name="Disp" NumberOfComponents="3" format="ascii" RangeMin="0" RangeMax="0.04346049360854212">
          0.04306653185054367 0.005838521993127888 0 0.03719744780533175 0.005818446093751803 0
          0.03133390577717557 0.005740713713935119 0 0.04306003306682026 -0.000009662875360730641 0
          0.025561225277829974 0.005566686887139271 0 0.03720272268591742 -0.00004044553301022066 0
          0.019998230756555345 0.005265409803217012 0 0.03130729108077159 -0.00002832715062588793 0
          0.043062117420620036 -0.005856828968259005 0 0.014795584805411733 0.004813288808562068 0
          0.025530223618935935 -0.00007043688223272915 0 0.03719271668620956 -0.005837282485369156 0
          0.019914864206064153 -0.00003094151273112485 0 0.010117096106215284 0.0041966642406751475 0
          0.031329360806528796 -0.005760100010350761 0 0.014658596389998993 -0.00003561886915255403 0
          0.02555596673648946 -0.00558607207019488 0 0.00613704028650435 0.003405980616339612 0
          0.009924041773603022 -0.000022990884061338643 0 0.019994339982686314 -0.005283042416689243 0
          0.0030277299124941656 0.0024386972500247007 0 0.014790840997064712 -0.004829068758056629 0
          0.0059471951063432196 0.000003220295966380052 0 0.0010157109519466716 0.001270814880277867 0
          0.010111992224499853 -0.004209414124264428 0 0.002809451882671181 -0.000011186791925787409 0
          0 0 0 0.006135126916144197 -0.0034156311968749323 0
          0.0006897266991535322 -0.0000033274553745917593 0 0.003021858890527959 -0.00244588825943695 0
          0 0 0 0.001011656070750052 -0.0012740743558499914 0
          0 0 0
          <InformationKey name="L2_NORM_RANGE" location="vtkDataArray" length="2">
            <Value index="0">
              0
            </Value>
            <Value index="1">
              0.043460493609
            </Value>
          </InformationKey>
        </DataArray>
        <DataArray type="Float64" Name="Sld_traction" NumberOfComponents="3" format="ascii" RangeMin="0" RangeMax="3322.240655201961">
          18.550562574106955 7.660527664010159 0 -31.523930229441895 -72.91851448961614 0
          -121.87110449845991 -128.2712578797351 0 40.306583857020115 -3.7040240442862684 0
          -252.47688778276313 -172.47729200049847 0 0 0 0
          -415.57177119828225 -205.73446792836458 0 0 0 0
          7.996956418868568 -10.302902136052003 0 -598.0432483320267 -229.6182109645994 0
          0 0 0 -54.72541015423276 74.71577575642705 0
          0 0 0 -789.7705307703859 -244.4680000758178 0
          -144.88829202836408 129.31603406800002 0 0 0 0
          -276.0916787610148 172.0398385103653 0 -994.0090252582822 -251.57160355849015 0
          0 0 0 -437.8786585324158 205.58463645451573 0
          -1201.2576575395535 -232.26727329840452 0 -622.2796506580527 230.2397061159856 0
          0 0 0 -1443.8907225040366 -395.68291077287245 0
          -816.2176182379621 244.52141824681868 0 0 0 0
          -1870.9329565940334 -2732.2788786891497 0 -1017.9897628420158 252.3426374496268 0
          0 0 0 -1230.0888500108317 232.6056746369076 0
          -1226.9286017237291 14.967894984444131 0 -1468.8068066284216 393.2552751183272 0
          -1876.2841795743416 2741.685731179961 0
          <InformationKey name="L2_NORM_RANGE" location="vtkDataArray" length="2">
            <Value index="0">
              0
            </Value>
            <Value index="1">
              3322.2406552
            </Value>
          </InformationKey>
        </DataArray>
        <DataArray type="Float64" Name="Fld_traction" NumberOfComponents="3" format="ascii" RangeMin="0" RangeMax="38.621359529612214">
          24.548149366501427 -0.3966123121843944 0 38.15946796883153 5.955200773381944 0
          37.48719340161749 3.458756920196593 0 14.875701099902633 -3.6957811217797025 0
          36.4491861095154 2.1126320170708057 0 0 0 0
          35.96690366724161 1.3070820609977338 0 0 0 0
          12.243487613653373 -1.552740345600843 0 35.52418204730299 0.7379184601398513 0
          0 0 0 9.730076869402494 -0.8491141416648489 0
          0 0 0 35.033542055916435 0.36789122770703697 0
          6.097619452028232 0.542455436421609 0 0 0 0
          3.9678984418720873 0.8255350021027077 0 34.62128809704081 0.15814508463108248 0
          0 0 0 2.5342915241958486 0.8854436397579445 0
          34.3977106425815 0.04291682673483045 0 1.6169825180126391 0.813763912986505 0
          0 0 0 34.22114608555922 0.0006743025301920661 0
          0.9140192987962272 0.664642270102561 0 0 0 0
          17.350850544115346 -16.8084526386745 0 0.47979096817417005 0.4523496132516289 0
          0 0 0 0.2875342550569593 0.24477770889991188 0
          0 0 0 0.30762335154108045 0.06371572839829763 0
          0.20277544263191427 0.20588484965623732 0
          <InformationKey name="L2_NORM_RANGE" location="vtkDataArray" length="2">
            <Value index="0">
              0
            </Value>
            <Value index="1">
              38.62135953
            </Value>
          </InformationKey>
        </DataArray>
        <DataArray type="Float64" Name="Velocity" NumberOfComponents="3" format="ascii" RangeMin="0" RangeMax="0.06891611050903933">
          -0.06749773270557069 -0.011780959499056443 0 -0.05517747323405237 -0.011613240270013418 0
          -0.04286950654154276 -0.011418463795238837 0 -0.06763941429967443 0.0004456103850426858 0
          -0.030912048293583363 -0.010829836137429667 0 -0.055408338071661165 0.0005810384623778659 0
          -0.01982987787108198 -0.009616846784575736 0 -0.04304129495685072 0.00046145905295057795 0
          -0.06774495729332727 0.012651128369413697 0 -0.010409369093412448 -0.007701894858850221 0
          -0.031008012089503087 0.0004264337414278006 0 -0.05549465289310378 0.01262852014166416 0
          -0.01972617749023551 0.0002625866118970816 0 -0.0034806333085770982 -0.005261430590643398 0
          -0.043246859887260736 0.0122667819015133 0 -0.010127395177489146 0.0002219259842703473 0
          -0.031261258504820894 0.0114615902417613 0 0.0004366660799919736 -0.002766489198674479 0
          -0.0031109439117755766 0.00017896056252748697 0 -0.020145874568054868 0.01007971007347515 0
          0.0015846834022425933 -0.000857098641627356 0 -0.01069230126560186 0.00806832020697687 0
          0.0006913738655632412 0.0001390049873546532 0 0.0012014328064705831 0.00005415735632814016 0
          -0.003749949385749409 0.005579201156476921 0 0.001668538731161023 0.00013525123654408675 0
          0 0 0 0.00016011233668553233 0.0030555112152096994 0
          0.0009666608157269264 0.000060912789573062384 0 0.0013058484610813754 0.0010914962605045315 0
          0 0 0 0.0008143980498582692 0.00009273038774080481 0
          0 0 0
          <InformationKey name="L2_NORM_RANGE" location="vtkDataArray" length="2">
            <Value index="0">
              0
            </Value>
            <Value index="1">
              0.068916110509
            </Value>
          </InformationKey>
        </DataArray>
      </PointData>
      <CellData>
        <DataArray type="UInt8" Name="vtkGhostType" format="ascii" RangeMin="0" RangeMax="0">
          0 0 0 0 0 0
          0 0 0 0 0 0
          0 0 0 0 0 0
          0 0
        </DataArray>
        <DataArray type="Float64" Name="Gauss Stress" NumberOfComponents="6" format="ascii" RangeMin="67.69129185947926" RangeMax="3141.759977831631">
          7.398627853785829 -39.14679703769985 0 54.72567570323388 0 0
          -30.44158815123205 31.79919207787179 0 52.755232960451096 0 0
          -27.980007854700883 158.02547773083657 0 126.31287960006131 0 0
          3.7810777765461854 -168.5423801127883 0 127.65567902132719 0 0
          -604.9861155317896 -3065.2296861154955 0 330.17348420893495 0 0
          584.7880040616421 3037.081307467868 0 331.9565251287082 0 0
          1.362027247481393 -386.1556519167705 0 187.6552842613607 0 0
          -28.524462968328052 366.9072017048633 0 187.0239485722268 0 0
          -130.3833172216046 2502.795860282129 0 317.5845761655278 0 0
          97.52334731280587 -2539.6359926658306 0 316.8427195041809 0 0
          -25.640034937724906 643.8542128710525 0 234.11696409675147 0 0
          -2.5144893575876637 -672.6000560513816 0 233.29073068480736 0 0
          -6.094964454016576 2118.530575720531 0 304.5179850042757 0 0
          -22.060009429780337 -2146.530457993901 0 306.05041127955 0 0
          -5.319675410033767 -1006.6465768052326 0 265.25679520192205 0 0
          -22.997504328632772 974.6582621541427 0 265.10238514065867 0 0
          6.473179688954303 -1752.441262876339 0 294.62014580899415 0 0
          -32.92955964658529 1724.3844976465793 0 295.3983856884545 0 0
          -21.12525244578046 1335.387584156795 0 283.59282090816356 0 0
          -10.891541147768493 -1372.7416109813594 0 284.13460718644836 0 0
          <InformationKey name="L2_NORM_RANGE" location="vtkDataArray" length="2">
            <Value index="0">
              67.691291859
            </Value>
            <Value index="1">
              3141.7599778
            </Value>
          </InformationKey>
        </DataArray>
        <DataArray type="Float64" Name="Gauss Strain" NumberOfComponents="6" format="ascii" RangeMin="0.0007430942378794384" RangeMax="0.013849875750364952">
          0.00011000001095824023 -0.0001925452508364167 0 0.0007114337841420403 0 0
          -0.00020051765063995586 0.00020404742084921911 0 0.0006858180284858642 0 0
          -0.0004354587173140203 0.000773576938991973 0 0.0016420674348007964 0 0
          0.00034586154510322237 -0.0007742409311774516 0 0.0016595238272772532 0 0
          0.0032245110622555763 -0.01276707214653852 0 0.0042922552947161526 0 0
          -0.0032615231310818716 0.012678383341058598 0 0.004315434826673206 0 0
          0.000759200745213743 -0.0017596641693538948 0 0.002439518695397689 0 0
          -0.0008452553498303761 0.0017250504705453678 0 0.0024313113314389477 0 0
          -0.005473696020908454 0.011641968632865821 0 0.00412859949015186 0 0
          0.0053960214159716365 -0.011745514293889502 0 0.004118955353554351 0 0
          -0.001372177874065201 0.0029795347366918527 0 0.0030435205332577688 0 0
          0.0013001291827231705 -0.0030554270007864897 0 0.003032779498902495 0 0
          -0.004158866710920812 0.00965119930021375 0 0.0039587338050555846 0 0
          0.004085361350182608 -0.00972369656548418 0 0.0039786553466341495 0 0
          0.00193875630165455 -0.004569868557414243 0 0.0034483383376249857 0 0
          -0.0020052222558958575 0.004479540226242183 0 0.0034463310068285624 0 0
          0.0034467134301936035 -0.007986230446480804 0 0.003830061895516923 0 0
          -0.0035123792668027933 0.007910162105602775 0 0.0038401790139499055 0 0
          -0.002700125687734051 0.00611720775018269 0 0.003686706671806126 0 0
          0.0026272896291913046 -0.006224735824727037 0 0.0036937498934238276 0 0
          <InformationKey name="L2_NORM_RANGE" location="vtkDataArray" length="2">
            <Value index="0">
              0.00074309423788
            </Value>
            <Value index="1">
              0.01384987575
            </Value>
          </InformationKey>
        </DataArray>
        <DataArray type="Float64" Name="Btraction" NumberOfComponents="3" format="ascii" RangeMin="0.1443068347265182" RangeMax="19.05754439840012">
          6.779797178389001 -1.3121303668451363 0 15.676904333833239 1.3896471152993872 0
          18.911665342612253 2.3534894233946337 0 3.9569240803576813 -0.07666467631080998 0
          0.12759969854324865 0.06740014451363374 0 12.892999157418641 -4.2019445840360765 0
          2.5163794734750797 0.34199760963107917 0 18.48409487778322 1.3928472343168496 0
          17.15471418203518 0.01089778231625563 0 0.14878940164950993 0.07712335932455237 0
          18.104022444189248 0.8549285195171348 0 1.6255474915169839 0.427744660465163 0
          17.254749684905576 0.050265477841478216 0 0.1918313058077823 0.17428183053788518 0
          1.0378185105521218 0.4248018881861123 0 17.87277142863615 0.5112501302843961 0
          0.3484525667425993 0.27924797083854747 0 17.413707538239308 0.13150907808452983 0
          17.639431025804857 0.27645242196172204 0 0.6327504542022165 0.36960154577226645 0
          <InformationKey name="L2_NORM_RANGE" location="vtkDataArray" length="2">
            <Value index="0">
              0.14430683473
            </Value>
            <Value index="1">
              19.057544398
            </Value>
          </InformationKey>
        </DataArray>
      </CellData>
      <Points>
        <DataArray type="Float32" Name="Points" NumberOfComponents="3" format="ascii" RangeMin="1.4500000476837158" RangeMax="1.6286497021092299">
          1.4500000476837158 0.5 0 1.4500000476837158 0.44999998807907104 0
          1.4500000476837158 0.4000000059604645 0 1.5 0.5 0
          1.4500000476837158 0.3499999940395355 0 1.5002609491348267 0.45016080141067505 0
          1.4500000476837158 0.30000001192092896 0 1.5001590251922607 0.4000298082828522 0
          1.5499999523162842 0.5 0 1.4500000476837158 0.25 0
          1.5005459785461426 0.35020819306373596 0 1.5499999523162842 0.44999998807907104 0
          1.5002089738845825 0.30000561475753784 0 1.4500000476837158 0.20000000298023224 0
          1.5499999523162842 0.4000000059604645 0 1.5002909898757935 0.24981409311294556 0
          1.5499999523162842 0.3499999940395355 0 1.4500000476837158 0.15000000596046448 0
          1.5001939535140991 0.19956040382385254 0 1.5499999523162842 0.30000001192092896 0
          1.4500000476837158 0.10000000149011612 0 1.5499999523162842 0.25 0
          1.499879002571106 0.15004639327526093 0 1.4500000476837158 0.05000000074505806 0
          1.5499999523162842 0.20000000298023224 0 1.5001660585403442 0.10008130222558975 0
          1.4500000476837158 0 0 1.5499999523162842 0.15000000596046448 0
          1.5000410079956055 0.050020311027765274 0 1.5499999523162842 0.10000000149011612 0
          1.5 0 0 1.5499999523162842 0.05000000074505806 0
          1.5499999523162842 0 0
          <InformationKey name="L2_NORM_RANGE" location="vtkDataArray" length="2">
            <Value index="0">
              1.4500000477
            </Value>
            <Value index="1">
              1.6286497021
            </Value>
          </InformationKey>
        </DataArray>
      </Points>
      <Cells>
        <DataArray type="Int64" Name="connectivity" format="ascii" RangeMin="0" RangeMax="32">
          11 8 3 5 3 0
          1 5 1 2 7 5
          11 5 7 14 32 31
          28 30 26 30 28 23
          16 14 7 10 7 2
          4 10 20 23 28 25
          28 31 29 25 4 6
          12 10 16 10 12 19
          17 20 25 22 25 29
          27 22 21 19 12 15
          12 6 9 15 27 24
          18 22 17 22 18 13
          9 13 18 15 15 18
          24 21
        </DataArray>
        <DataArray type="Int64" Name="offsets" format="ascii" RangeMin="4" RangeMax="80">
          4 8 12 16 20 24
          28 32 36 40 44 48
          52 56 60 64 68 72
          76 80
        </DataArray>
        <DataArray type="UInt8" Name="types" format="ascii" RangeMin="9" RangeMax="9">
          9 9 9 9 9 9
          9 9 9 9 9 9
          9 9 9 9 9 9
          9 9
        </DataArray>
      </Cells>
    </Piece>
  </UnstructuredGrid>
</VTKFile>
