<?xml version="1.0"?>
<VTKFile type="UnstructuredGrid" version="0.1" byte_order="LittleEndian" header_type="UInt32" compressor="vtkZLibDataCompressor">
  <UnstructuredGrid>
    <Piece NumberOfPoints="33" NumberOfCells="20">
      <PointData>
        <DataArray type="Float64" Name="sld_BC" NumberOfComponents="3" format="ascii" RangeMin="0" RangeMax="0">
          0 0 0 0 0 0
          0 0 0 0 0 0
          0 0 0 0 0 0
          0 0 0 0 0 0
          0 0 0 0 0 0
          0 0 0 0 0 0
          0 0 0 0 0 0
          0 0 0 0 0 0
          0 0 0 0 0 0
          0 0 0 0 0 0
          0 0 0 0 0 0
          0 0 0 0 0 0
          0 0 0 0 0 0
          0 0 0 0 0 0
          0 0 0 0 0 0
          0 0 0 0 0 0
          0 0 0
          <InformationKey name="L2_NORM_RANGE" location="vtkDataArray" length="2">
            <Value index="0">
              0
            </Value>
            <Value index="1">
              0
            </Value>
          </InformationKey>
        </DataArray>
        <DataArray type="Float64" Name="sld_FIXNO" NumberOfComponents="3" format="ascii" RangeMin="1.4142135623730951" RangeMax="1.4142135623730951">
          -1 -1 0 -1 -1 0
          -1 -1 0 -1 -1 0
          -1 -1 0 -1 -1 0
          -1 -1 0 -1 -1 0
          -1 -1 0 -1 -1 0
          -1 -1 0 -1 -1 0
          -1 -1 0 -1 -1 0
          -1 -1 0 -1 -1 0
          -1 -1 0 -1 -1 0
          -1 -1 0 -1 -1 0
          -1 -1 0 -1 -1 0
          -1 -1 0 -1 -1 0
          -1 -1 0 -1 -1 0
          1 1 0 -1 -1 0
          -1 -1 0 -1 -1 0
          1 1 0 -1 -1 0
          1 1 0
          <InformationKey name="L2_NORM_RANGE" location="vtkDataArray" length="2">
            <Value index="0">
              1.4142135624
            </Value>
            <Value index="1">
              1.4142135624
            </Value>
          </InformationKey>
        </DataArray>
        <DataArray type="Float64" Name="Disp" NumberOfComponents="3" format="ascii" RangeMin="0" RangeMax="0.013121155417619837">
          0.013025945459143408 0.0015778036597611468 0 0.011433364721160293 0.0015737295461778957 0
          0.009849727258855676 0.0015626872635936843 0 0.013020175304415377 -0.000011672600440217626 0
          0.00827640458842448 0.0015440390378562694 0 0.011430711985452412 -0.000019488242943155407 0
          0.006719023768896196 0.0015103953821445002 0 0.009841407521006623 -0.000015646168370935486 0
          0.013020466750018363 -0.0016007625986831022 0 0.005194357149734639 0.0014479805983257984 0
          0.00827143534952089 -0.00002690684634521379 0 0.011426941977750849 -0.0015953958660037935 0
          0.006703290878736634 -0.000015437092727192117 0 0.003736287048054446 0.001338139173213991 0
          0.009842678581290835 -0.0015832530503554479 0 0.005164777765743651 -0.000016472646243604407 0
          0.008269157676486135 -0.0015634223833307728 0 0.002401909223532038 0.001158264881806365 0
          0.003687520946773139 -0.000012101610896378905 0 0.006711820783314267 -0.001528180610586963 0
          0.0012702635734957656 0.0008858770015655251 0 0.005187072248471859 -0.0014639115264209756 0
          0.002348717215818456 -0.0000026976499326555778 0 0.00046793747281744197 0.0004915572939443567 0
          0.0037289170698173693 -0.0013516625157091197 0 0.0011993173610196977 -0.000006823833617069266 0
          0 0 0 0.0023954526644662513 -0.0011689766441784829 0
          0.0003420068748281563 -0.000003206137584597854 0 0.0012626919389857874 -0.0008938966863792724 0
          0 0 0 0.00046095431374592076 -0.0004955747659886364 0
          0 0 0
          <InformationKey name="L2_NORM_RANGE" location="vtkDataArray" length="2">
            <Value index="0">
              0
            </Value>
            <Value index="1">
              0.013121155418
            </Value>
          </InformationKey>
        </DataArray>
        <DataArray type="Float64" Name="Sld_traction" NumberOfComponents="3" format="ascii" RangeMin="0" RangeMax="1370.3814574744688">
          15.496539330742438 -3.3231154851961597 0 23.741815706897853 -6.657971011204458 0
          16.020287985605307 -9.885032078654875 0 7.361416706106342 -9.21530012402125 0
          2.960063911916416 -21.259329229529246 0 0 0 0
          -22.408952369158616 -40.58803409020082 0 0 0 0
          -0.7710677751388526 -5.0731682702722285 0 -66.47913559306656 -67.18088905473496 0
          0 0 0 -13.111229928486091 8.932478681115754 0
          0 0 0 -133.56904815897835 -97.9704590993019 0
          -23.866402996330308 11.54854806405304 0 0 0 0
          -38.30079902103792 22.18538664667807 0 -228.48070241524118 -130.41231142153623 0
          0 0 0 -64.54373911355864 41.19223909091054 0
          -347.76271156107987 -149.36781847836278 0 -109.4527977392498 67.5879886145598 0
          0 0 0 -504.80918265349493 -241.42678256329327 0
          -177.34511990739847 98.06258852318415 0 0 0 0
          -781.571888560521 -1112.3799373669476 0 -271.64517330266676 130.7743639118177 0
          0 0 0 -393.0999694724749 149.81394288684666 0
          -588.7983197607508 15.149050980921842 0 -544.7698299279856 237.51026641133393 0
          -788.9098665484494 1120.5206653392686 0
          <InformationKey name="L2_NORM_RANGE" location="vtkDataArray" length="2">
            <Value index="0">
              0
            </Value>
            <Value index="1">
              1370.3814575
            </Value>
          </InformationKey>
        </DataArray>
        <DataArray type="Float64" Name="Fld_traction" NumberOfComponents="3" format="ascii" RangeMin="0" RangeMax="48.39432608114449">
          29.566837922406304 -2.454148655048 0 47.77051728008641 7.7452227625232135 0
          47.67346539167428 5.088734370053153 0 16.982795998823864 -8.860669751317303 0
          46.96899613128195 3.5946165148273654 0 0 0 0
          46.78538383648569 2.585427813257081 0 0 0 0
          13.768613624602475 -5.164227877167196 0 46.560414432450436 1.7801875346798668 0
          0 0 0 11.241625040491462 -3.822682609492061 0
          0 0 0 46.17308270211384 1.1383994189076723 0
          7.2464797038199515 -1.9529794480263034 0 0 0 0
          5.114109245088233 -1.3552848197328635 0 45.69778557645514 0.6512818520646685 0
          0 0 0 3.732520315350862 -0.938925359335582 0
          45.352455157096685 0.28714110508175694 0 2.9123130309421343 -0.6023898455026124 0
          0 0 0 44.93467338363541 0.05911742139089873 0
          2.1258477456398754 -0.352294165402294 0 0 0 0
          22.711934478834525 -21.992855317147093 0 1.624188592358886 -0.14172000268241805 0
          0 0 0 1.1118819131588449 -0.007003142394433582 0
          0 0 0 0.7610880262015066 0.02362485141723185 0
          0.3337301910870031 0.325487324067878 0
          <InformationKey name="L2_NORM_RANGE" location="vtkDataArray" length="2">
            <Value index="0">
              0
            </Value>
            <Value index="1">
              48.394326081
            </Value>
          </InformationKey>
        </DataArray>
        <DataArray type="Float64" Name="Velocity" NumberOfComponents="3" format="ascii" RangeMin="0" RangeMax="0.1533079806900174">
          0.15152520434389039 0.023312001025073095 0 0.12965904965807387 0.02299332472599886 0
          0.10777456388884167 0.02251030400518135 0 0.1517675673931232 0.0015522296759130222 0
          0.08622357801312351 0.021638178418144402 0 0.13000936905063326 0.0012279601691064465 0
          0.06552399916226873 0.020213910909797413 0 0.10802344216301775 0.00108170476112281 0
          0.15194840559651782 -0.020196690965465555 0 0.04636387023142856 0.018114032432546952 0
          0.08645853048644013 0.0007509700142738164 0 0.1301023561846028 -0.020298007370851325 0
          0.06555183616516665 0.000734040646850991 0 0.029528861415614324 0.015283456622022391 0
          0.10823834627235926 -0.020200649743823986 0 0.04617571151853128 0.0005661006311656476 0
          0.08669763484537787 -0.0196826992914601 0 0.015858423985880936 0.01176026289751439 0
          0.029123339352932785 0.00047089994217809855 0 0.06601666625450608 -0.018579467641138048 0
          0.006120068957308544 0.007739385483863917 0 0.04686380177854342 -0.01677716805063071 0
          0.01547255477368751 0.00042930542416084756 0 0.0008894551973004181 0.0035554433869538675 0
          0.03003699375740828 -0.014219810029884965 0 0.005683502368852372 0.0002601726313184031 0
          0 0 0 0.016388522441655687 -0.01095183499290521 0
          0.00037760239700040856 0.00019226402799225523 0 0.006648747050045596 -0.007177177578394405 0
          0 0 0 0.0014381757513785062 -0.0032706827177136685 0
          0 0 0
          <InformationKey name="L2_NORM_RANGE" location="vtkDataArray" length="2">
            <Value index="0">
              0
            </Value>
            <Value index="1">
              0.15330798069
            </Value>
          </InformationKey>
        </DataArray>
      </PointData>
      <CellData>
        <DataArray type="UInt8" Name="vtkGhostType" format="ascii" RangeMin="0" RangeMax="0">
          0 0 0 0 0 0
          0 0 0 0 0 0
          0 0 0 0 0 0
          0 0
        </DataArray>
        <DataArray type="Float64" Name="Gauss Stress" NumberOfComponents="6" format="ascii" RangeMin="18.064502412855475" RangeMax="1254.076486603594">
          -2.287725203955702 -13.8158875946318 0 11.411126622194068 0 0
          -32.21234405524188 -5.875850216838234 0 9.78169234713339 0 0
          -33.59681941902486 8.487340446342724 0 8.080885443164355 0 0
          -5.139901155379144 -30.23201251950853 0 9.700464935373894 0 0
          -254.34752888653048 -1204.6346413770552 0 238.47546958901944 0 0
          224.3389434163314 1169.7456904901273 0 242.49828402444837 0 0
          -6.277560234754447 -48.17147642400934 0 17.65467401689848 0 0
          -34.9864813910999 24.184970843240077 0 16.56503617663651 0 0
          -80.92318260810313 827.4596997790728 0 210.79235467717783 0 0
          34.77495805257992 -864.3223709985214 0 211.4765049140595 0 0
          -35.665027144883744 56.120499536672185 0 35.146730243688694 0 0
          -6.854090941975992 -82.73203881193315 0 35.8014882482495 0 0
          -29.53397406704501 582.2521812691951 0 175.48633072684385 0 0
          -15.033551950045243 -615.0458631615315 0 176.08905052996818 0 0
          -7.182285637342105 -147.2265389385487 0 63.46231452418259 0 0
          -36.305770228619416 118.36256224123484 0 63.05450829202435 0 0
          -4.273074728057232 -407.97688796429503 0 136.89924781551625 0 0
          -39.454045341728786 376.3848110225855 0 136.98202087477492 0 0
          -36.228708935009266 221.8520233245349 0 98.11234993410083 0 0
          -8.450209251357343 -253.53133714817525 0 98.48140146111011 0 0
          <InformationKey name="L2_NORM_RANGE" location="vtkDataArray" length="2">
            <Value index="0">
              18.064502413
            </Value>
            <Value index="1">
              1254.0764866
            </Value>
          </InformationKey>
        </DataArray>
        <DataArray type="Float64" Name="Gauss Strain" NumberOfComponents="6" format="ascii" RangeMin="0.00016028143521951626" RangeMax="0.005990219280619761">
          0.00001653183113153357 -0.00005840122440786107 0 0.00014834464608852287 0 0
          -0.00013510825752851598 0.0000360789524211077 0 0.00012716200051273406 0 0
          -0.00016941584222693142 0.00010413119689795787 0 0.00010505151076113661 0 0
          0.00003556587415606654 -0.00012753284971077448 0 0.00012610604415986063 0 0
          0.0011917562942515443 -0.004985109936936866 0 0.003100181104657252 0 0
          -0.001260261903911441 0.004884881952068233 0 0.0031524776923178275 0 0
          0.00006537147995868547 -0.00020693897527147126 0 0.00022951076221968016 0 0
          -0.00020634918347382268 0.00017826525604938717 0 0.0002153454702962746 0 0
          -0.0019817468954360616 0.003922741840080583 0 0.002740300610803311 0 0
          0.0018436546825863556 -0.004000477956245803 0 0.0027491945638827724 0 0
          -0.0002717108476057318 0.00032489507582438167 0 0.000456907493167953 0 0
          0.00013014136189727892 -0.0003630652992574427 0 0.0004654193472272434 0 0
          -0.0012697713354799854 0.002706838674205576 0 0.0022813222994489697 0 0
          0.0011309367717922806 -0.00276914325108238 0 0.0022891576568895857 0 0
          0.0002544123512802634 -0.0006558752951775795 0 0.0008250100888143735 0 0
          -0.0003959982509106263 0.0006093459101434263 0 0.0008197086077963165 0 0
          0.0007761124415177149 -0.0018479623445178308 0 0.0017796902216017112 0 0
          -0.0009134662877989077 0.0017894862785691353 0 0.0017807662713720737 0 0
          -0.0005974520711371353 0.001080072688549902 0 0.0012754605491433106 0 0
          0.00045593765534526586 -0.0011370896759840506 0 0.0012802582189944311 0 0
          <InformationKey name="L2_NORM_RANGE" location="vtkDataArray" length="2">
            <Value index="0">
              0.00016028143522
            </Value>
            <Value index="1">
              0.0059902192806
            </Value>
          </InformationKey>
        </DataArray>
        <DataArray type="Float64" Name="Btraction" NumberOfComponents="3" format="ascii" RangeMin="0.28728320521511697" RangeMax="24.075745424503683">
          7.687852405856584 -3.506224407121125 0 19.334338800623176 1.3227685268688032 0
          23.86099566794017 3.208489283144092 0 4.622026186077853 -1.443915514379591 0
          0.27370455432212737 0.08727804387127747 0 16.911651965617484 -5.483434473939049 0
          3.090147237227046 -0.8270660669397916 0 23.660615380739053 2.1708377212201295 0
          22.571782135183025 0.08656463161816393 0 0.46824248484008774 0.0041554272556995646 0
          23.43859499194191 1.5450110820211114 0 2.2116573901097736 -0.5735525447671113 0
          22.762560183387958 0.23460573928660633 0 0.6840176263794326 -0.037180786269212895 0
          1.661208336573249 -0.3853288012095486 0 23.336449567234034 1.0914038369842367 0
          0.9375090844996904 -0.12350354202117797 0 22.96771706964224 0.4474203177430852 0
          23.18337428364107 0.7296467383968847 0 1.2595401941455022 -0.23867100272622657 0
          <InformationKey name="L2_NORM_RANGE" location="vtkDataArray" length="2">
            <Value index="0">
              0.28728320522
            </Value>
            <Value index="1">
              24.075745425
            </Value>
          </InformationKey>
        </DataArray>
      </CellData>
      <Points>
        <DataArray type="Float32" Name="Points" NumberOfComponents="3" format="ascii" RangeMin="1.4500000476837158" RangeMax="1.6286497021092299">
          1.4500000476837158 0.5 0 1.4500000476837158 0.44999998807907104 0
          1.4500000476837158 0.4000000059604645 0 1.5 0.5 0
          1.4500000476837158 0.3499999940395355 0 1.5002609491348267 0.45016080141067505 0
          1.4500000476837158 0.30000001192092896 0 1.5001590251922607 0.4000298082828522 0
          1.5499999523162842 0.5 0 1.4500000476837158 0.25 0
          1.5005459785461426 0.35020819306373596 0 1.5499999523162842 0.44999998807907104 0
          1.5002089738845825 0.30000561475753784 0 1.4500000476837158 0.20000000298023224 0
          1.5499999523162842 0.4000000059604645 0 1.5002909898757935 0.24981409311294556 0
          1.5499999523162842 0.3499999940395355 0 1.4500000476837158 0.15000000596046448 0
          1.5001939535140991 0.19956040382385254 0 1.5499999523162842 0.30000001192092896 0
          1.4500000476837158 0.10000000149011612 0 1.5499999523162842 0.25 0
          1.499879002571106 0.15004639327526093 0 1.4500000476837158 0.05000000074505806 0
          1.5499999523162842 0.20000000298023224 0 1.5001660585403442 0.10008130222558975 0
          1.4500000476837158 0 0 1.5499999523162842 0.15000000596046448 0
          1.5000410079956055 0.050020311027765274 0 1.5499999523162842 0.10000000149011612 0
          1.5 0 0 1.5499999523162842 0.05000000074505806 0
          1.5499999523162842 0 0
          <InformationKey name="L2_NORM_RANGE" location="vtkDataArray" length="2">
            <Value index="0">
              1.4500000477
            </Value>
            <Value index="1">
              1.6286497021
            </Value>
          </InformationKey>
        </DataArray>
      </Points>
      <Cells>
        <DataArray type="Int64" Name="connectivity" format="ascii" RangeMin="0" RangeMax="32">
          11 8 3 5 3 0
          1 5 1 2 7 5
          11 5 7 14 32 31
          28 30 26 30 28 23
          16 14 7 10 7 2
          4 10 20 23 28 25
          28 31 29 25 4 6
          12 10 16 10 12 19
          17 20 25 22 25 29
          27 22 21 19 12 15
          12 6 9 15 27 24
          18 22 17 22 18 13
          9 13 18 15 15 18
          24 21
        </DataArray>
        <DataArray type="Int64" Name="offsets" format="ascii" RangeMin="4" RangeMax="80">
          4 8 12 16 20 24
          28 32 36 40 44 48
          52 56 60 64 68 72
          76 80
        </DataArray>
        <DataArray type="UInt8" Name="types" format="ascii" RangeMin="9" RangeMax="9">
          9 9 9 9 9 9
          9 9 9 9 9 9
          9 9 9 9 9 9
          9 9
        </DataArray>
      </Cells>
    </Piece>
  </UnstructuredGrid>
</VTKFile>
