<?xml version="1.0"?>
<VTKFile type="UnstructuredGrid" version="0.1" byte_order="LittleEndian" header_type="UInt32" compressor="vtkZLibDataCompressor">
  <UnstructuredGrid>
    <Piece NumberOfPoints="33" NumberOfCells="20">
      <PointData>
        <DataArray type="Float64" Name="sld_BC" NumberOfComponents="3" format="ascii" RangeMin="0" RangeMax="0">
          0 0 0 0 0 0
          0 0 0 0 0 0
          0 0 0 0 0 0
          0 0 0 0 0 0
          0 0 0 0 0 0
          0 0 0 0 0 0
          0 0 0 0 0 0
          0 0 0 0 0 0
          0 0 0 0 0 0
          0 0 0 0 0 0
          0 0 0 0 0 0
          0 0 0 0 0 0
          0 0 0 0 0 0
          0 0 0 0 0 0
          0 0 0 0 0 0
          0 0 0 0 0 0
          0 0 0
          <InformationKey name="L2_NORM_RANGE" location="vtkDataArray" length="2">
            <Value index="0">
              0
            </Value>
            <Value index="1">
              0
            </Value>
          </InformationKey>
        </DataArray>
        <DataArray type="Float64" Name="sld_FIXNO" NumberOfComponents="3" format="ascii" RangeMin="1.4142135623730951" RangeMax="1.4142135623730951">
          -1 -1 0 -1 -1 0
          -1 -1 0 -1 -1 0
          -1 -1 0 -1 -1 0
          -1 -1 0 -1 -1 0
          -1 -1 0 -1 -1 0
          -1 -1 0 -1 -1 0
          -1 -1 0 -1 -1 0
          -1 -1 0 -1 -1 0
          -1 -1 0 -1 -1 0
          -1 -1 0 -1 -1 0
          -1 -1 0 -1 -1 0
          -1 -1 0 -1 -1 0
          -1 -1 0 -1 -1 0
          1 1 0 -1 -1 0
          -1 -1 0 -1 -1 0
          1 1 0 -1 -1 0
          1 1 0
          <InformationKey name="L2_NORM_RANGE" location="vtkDataArray" length="2">
            <Value index="0">
              1.4142135624
            </Value>
            <Value index="1">
              1.4142135624
            </Value>
          </InformationKey>
        </DataArray>
        <DataArray type="Float64" Name="Disp" NumberOfComponents="3" format="ascii" RangeMin="0" RangeMax="0.032913349521058066">
          0.032635950514689586 0.004264189336563992 0 0.02841107397644313 0.0042541794373046355 0
          0.024188606833426548 0.004217392443087912 0 0.03263053690661266 0.00004954009804915456 0
          0.019999654694048997 0.004132505284760671 0 0.028415512768250314 0.00002649179607688585 0
          0.01590062469381452 0.003972684692688078 0 0.024173991586728217 0.00003305886508557184 0
          0.032631181205917965 -0.004164435648871544 0 0.011981121919096744 0.00370806293358928 0
          0.019986356217051752 -0.000001342307511191629 0 0.02840527180588755 -0.004156426427670765 0
          0.015851387080638737 0.000022708190531753596 0 0.008360338192423274 0.003310839818980856 0
          0.024181598100880348 -0.00412435695676439 0 0.011891247199522394 0.000012809824147882174 0
          0.019991226612762324 -0.004046272371883788 0 0.00518718757417303 0.0027550911587227254 0
          0.008223129714446041 0.000015113249636548035 0 0.015891749908684326 -0.0038946479433218228 0
          0.0026281219232269317 0.0020219016265928935 0 0.011970763989446059 -0.003640499967056016 0
          0.005045585029870458 0.00002789537883880644 0 0.0009141829998335243 0.0010782394277583185 0
          0.008348837537334076 -0.00325498057897258 0 0.0024552480096357975 0.000007701087192124492 0
          0 0 0 0.005177379440314134 -0.0027123823982209343 0
          0.0006392536663359558 0.000004880512645608448 0 0.002614906190949934 -0.0019941225191536065 0
          0 0 0 0.0009020269958938925 -0.0010640206705376564 0
          0 0 0
          <InformationKey name="L2_NORM_RANGE" location="vtkDataArray" length="2">
            <Value index="0">
              0
            </Value>
            <Value index="1">
              0.032913349521
            </Value>
          </InformationKey>
        </DataArray>
        <DataArray type="Float64" Name="Sld_traction" NumberOfComponents="3" format="ascii" RangeMin="0" RangeMax="2874.0754357547403">
          15.162456320871906 2.523302953624095 0 -1.142639607893118 -34.114998747055 0
          -43.674259031856785 -65.3090129395393 0 20.344523927832654 0.06573332159966022 0
          -114.08349248007751 -102.63864633358862 0 0 0 0
          -217.70130137735956 -143.17919264587158 0 0 0 0
          4.794075864328933 -1.2001204809387307 0 -353.76815611666296 -183.88293850867794 0
          0 0 0 -24.466365741365223 37.01590005228703 0
          0 0 0 -518.2897094458029 -219.90401915581919 0
          -67.48772303346459 67.72004655294523 0 0 0 0
          -138.7664147576881 103.8327342996735 0 -713.1860737403327 -249.31993255042335 0
          0 0 0 -242.2025914287591 144.23749149700188 0
          -927.1093183225927 -250.52395596223573 0 -379.6812929324178 185.06612394623744 0
          0 0 0 -1187.5169300597 -405.6768285803746 0
          -545.7835911836924 220.45951406552862 0 0 0 0
          -1629.6045095380214 -2367.4244978250404 0 -738.7979519124259 250.3989835835833 0
          0 0 0 -957.4782029292797 251.63436309652076 0
          -1121.045167090423 -30.187425594993556 0 -1208.3516437766013 398.8714242944284 0
          -1617.9060841840146 2324.8020414313437 0
          <InformationKey name="L2_NORM_RANGE" location="vtkDataArray" length="2">
            <Value index="0">
              0
            </Value>
            <Value index="1">
              2874.0754358
            </Value>
          </InformationKey>
        </DataArray>
        <DataArray type="Float64" Name="Fld_traction" NumberOfComponents="3" format="ascii" RangeMin="0" RangeMax="38.67129264496385">
          24.585598721157467 -0.43327996758897735 0 38.21383493619188 5.930572847703326 0
          37.52754148804524 3.43212458450134 0 14.881034147502232 -3.737618322235728 0
          36.47860132903825 2.086774239524813 0 0 0 0
          35.98736153269065 1.2843076010669272 0 0 0 0
          12.208610345013067 -1.5514481592682612 0 35.53831588820267 0.7198019814849493 0
          0 0 0 9.667147997730398 -0.8160328107939212 0
          0 0 0 35.04502205271824 0.3552372408179699 0
          6.0469977429272355 0.5700856436003757 0 0 0 0
          3.9274967340728626 0.8492781861321064 0 34.6339981612138 0.15046975205124266 0
          0 0 0 2.5029242541520764 0.9048960610112702 0
          34.41179308702911 0.03924201310668906 0 1.592656557002516 0.8277891047910416 0
          0 0 0 34.238381069205786 -0.0001976631447750464 0
          0.8987076434253912 0.672975672710649 0 0 0 0
          17.36070763237133 -16.81814419709226 0 0.47118760517680086 0.45481107013048455 0
          0 0 0 0.28930389397548095 0.2437042261519852 0
          0 0 0 0.3166372372967016 0.06270830060937295 0
          0.2078664679617738 0.21108955474640584 0
          <InformationKey name="L2_NORM_RANGE" location="vtkDataArray" length="2">
            <Value index="0">
              0
            </Value>
            <Value index="1">
              38.671292645
            </Value>
          </InformationKey>
        </DataArray>
        <DataArray type="Float64" Name="Velocity" NumberOfComponents="3" format="ascii" RangeMin="0" RangeMax="0.1264500907492755">
          -0.12542168676072946 -0.01609428285427685 0 -0.11018058045609738 -0.01588307109941051 0
          -0.09513332123460275 -0.01563212815852197 0 -0.12549600166447708 -0.0009134670891350254 0
          -0.08057375182061251 -0.015228997132438825 0 -0.11032372281907522 -0.000747820972480143 0
          -0.06643657230869858 -0.014790993178161264 0 -0.09520230685108981 -0.0008094553463218633 0
          -0.12555029666324716 0.014277825276121477 0 -0.05243694931010169 -0.01430788546669049 0
          -0.08065152726810527 -0.0006777523004074884 0 -0.1103312954749084 0.014245529448175035 0
          -0.06644602153721064 -0.0006721477028154331 0 -0.03849289391463817 -0.013486211346877566 0
          -0.09527155483803776 0.013952985221289118 0 -0.05235809643859435 -0.000496869835831191 0
          -0.08062660094998253 0.013596513560606453 0 -0.025179072479737732 -0.011894008857889727 0
          -0.03823259354796491 -0.0003567132201007572 0 -0.0664304146545904 0.013350599902332802 0
          -0.01358975475233241 -0.009233092967778786 0 -0.05240512390271627 0.013160353270824793 0
          -0.024848066720932184 -0.000277946870095412 0 -0.0050417091489253826 -0.005219526029646584 0
          -0.038462713803598295 0.012665528343532184 0 -0.013051353439370231 -0.00007611852016278369 0
          0 0 0 -0.025169188576671456 0.01138419770045531 0
          -0.003985480116038635 -0.00001524286873498941 0 -0.013581707875495806 0.008982294975664305 0
          0 0 0 -0.005176921732779513 0.005136346117163575 0
          0 0 0
          <InformationKey name="L2_NORM_RANGE" location="vtkDataArray" length="2">
            <Value index="0">
              0
            </Value>
            <Value index="1">
              0.12645009075
            </Value>
          </InformationKey>
        </DataArray>
      </PointData>
      <CellData>
        <DataArray type="UInt8" Name="vtkGhostType" format="ascii" RangeMin="0" RangeMax="0">
          0 0 0 0 0 0
          0 0 0 0 0 0
          0 0 0 0 0 0
          0 0
        </DataArray>
        <DataArray type="Float64" Name="Gauss Stress" NumberOfComponents="6" format="ascii" RangeMin="30.955968884151595" RangeMax="2674.552056039083">
          2.790861744049236 -14.057647270045548 0 27.438397429754257 0 0
          -26.30989564078463 13.106875623347706 0 25.44049052457953 0 0
          -25.798886777982865 74.06159524074002 0 58.490711626193594 0 0
          1.7417045094964951 -65.33914634714858 0 60.40218296391166 0 0
          -512.7175956072299 -2546.239433313294 0 362.4435776173939 0 0
          509.4524136223951 2599.462975620752 0 369.4308827021738 0 0
          0.6448284746341031 -166.18330681246405 0 101.88842081915948 0 0
          -27.094147942357246 180.53837877364123 0 100.8628775260795 0 0
          -116.78696056435703 2037.7411760842494 0 343.51403362644845 0 0
          84.15754946188963 -1992.6382095485706 0 344.41748394643594 0 0
          -26.51197877597434 345.96777046779107 0 149.37317467919974 0 0
          -0.9646630619000476 -326.65575998222425 0 149.39721260968906 0 0
          -10.112095376140473 1621.9344561634853 0 314.90790271245726 0 0
          -18.51516025163221 -1572.4304263686615 0 316.1671413475961 0 0
          -2.645500292890361 -550.9665856130781 0 198.42221701913314 0 0
          -25.508497162279113 577.9379552286531 0 198.21575095982772 0 0
          5.139281722559986 -1180.5727831374224 0 281.624044734755 0 0
          -32.18097428270775 1225.2588793275659 0 282.18045045319934 0 0
          -23.932338592404903 871.0209626310294 0 243.0701241517198 0 0
          -6.823481232533112 -839.0570268226143 0 243.4889244847922 0 0
          <InformationKey name="L2_NORM_RANGE" location="vtkDataArray" length="2">
            <Value index="0">
              30.955968884
            </Value>
            <Value index="1">
              2674.552056
            </Value>
          </InformationKey>
        </DataArray>
        <DataArray type="Float64" Name="Gauss Strain" NumberOfComponents="6" format="ascii" RangeMin="0.0003655956175793962" RangeMax="0.0121659740931657">
          0.000040110833112012856 -0.00006940447547960328 0 0.00035669916658680537 0 0
          -0.0001452684326310981 0.00011094058058576208 0 0.00033072637681953385 0 0
          -0.00026180504555926506 0.0003872880875624337 0 0.0007603792511405165 0 0
          0.00013533609089514884 -0.0003006894396730443 0 0.0007852283785308513 0 0
          0.0026323018349480283 -0.010585590110141391 0 0.004711766509026118 0 0
          -0.0027509443204785694 0.010834124332510752 0 0.00480260147512826 0 0
          0.00032699141784389013 -0.0007573914615222479 0 0.001324549470649073 0 0
          -0.00047532821174632584 0.0008742832119076642 0 0.0013112174078390333 0 0
          -0.004504975963932112 0.009499456924283832 0 0.004465682437143828 0 0
          0.00426856135867131 -0.009230611074896679 0 0.004477427291303667 0 0
          -0.000795266655842876 0.0016258517142415994 0 0.001941851270829596 0 0
          0.0006325895150336922 -0.0014844026149484152 0 0.0019421637639259574 0 0
          -0.0032087822234802355 0.007399520361527331 0 0.004093802735261944 0 0
          0.002981995352273963 -0.007118453877486725 0 0.004110172837518749 0 0
          0.0010623478156128515 -0.0025017392389683696 0 0.00257948882124873 0 0
          -0.0012430426747842439 0.002679359265756816 0 0.00257680476247776 0 0
          0.002325500658955621 -0.005381627762634263 0 0.0036611125815518147 0 0
          -0.0025356782476750744 0.005637680800791706 0 0.0036683458558915897 0 0
          -0.0018073830177259501 0.004009813440226374 0 0.003159911613972357 0 0
          0.0016051143626960723 -0.0038044036836394554 0 0.0031653560183022983 0 0
          <InformationKey name="L2_NORM_RANGE" location="vtkDataArray" length="2">
            <Value index="0">
              0.00036559561758
            </Value>
            <Value index="1">
              0.012165974093
            </Value>
          </InformationKey>
        </DataArray>
        <DataArray type="Float64" Name="Btraction" NumberOfComponents="3" format="ascii" RangeMin="0.1479166577898035" RangeMax="19.079465738466368">
          6.772411123128824 -1.3222666203759974 0 15.699858414337335 1.374323220028587 0
          18.935344106059276 2.340674358051166 0 3.928536435164408 -0.06148679179838634 0
          0.13112592631461883 0.06844946383894468 0 12.89977217539428 -4.2045854650592585 0
          2.493623619250024 0.3548409574331204 0 18.50153570427087 1.379724706006538 0
          17.162543539058724 0.009761087490478501 0 0.15148528281804563 0.07660313169033953 0
          18.11649071543222 0.8427704601479349 0 1.6076052470562348 0.4385435617858441 0
          17.261447812060727 0.047427941289482925 0 0.19012287478807044 0.17462882407061742 0
          1.0238952027886479 0.4331712914505779 0 17.881419355223326 0.501027395637969 0
          0.342473812150548 0.28194668571028336 0 17.419755053483005 0.12642674821730315 0
          17.64583448523022 0.26875980557572976 0 0.6228410501069768 0.37519119437542253 0
          <InformationKey name="L2_NORM_RANGE" location="vtkDataArray" length="2">
            <Value index="0">
              0.14791665779
            </Value>
            <Value index="1">
              19.079465738
            </Value>
          </InformationKey>
        </DataArray>
      </CellData>
      <Points>
        <DataArray type="Float32" Name="Points" NumberOfComponents="3" format="ascii" RangeMin="1.4500000476837158" RangeMax="1.6286497021092299">
          1.4500000476837158 0.5 0 1.4500000476837158 0.44999998807907104 0
          1.4500000476837158 0.4000000059604645 0 1.5 0.5 0
          1.4500000476837158 0.3499999940395355 0 1.5002609491348267 0.45016080141067505 0
          1.4500000476837158 0.30000001192092896 0 1.5001590251922607 0.4000298082828522 0
          1.5499999523162842 0.5 0 1.4500000476837158 0.25 0
          1.5005459785461426 0.35020819306373596 0 1.5499999523162842 0.44999998807907104 0
          1.5002089738845825 0.30000561475753784 0 1.4500000476837158 0.20000000298023224 0
          1.5499999523162842 0.4000000059604645 0 1.5002909898757935 0.24981409311294556 0
          1.5499999523162842 0.3499999940395355 0 1.4500000476837158 0.15000000596046448 0
          1.5001939535140991 0.19956040382385254 0 1.5499999523162842 0.30000001192092896 0
          1.4500000476837158 0.10000000149011612 0 1.5499999523162842 0.25 0
          1.499879002571106 0.15004639327526093 0 1.4500000476837158 0.05000000074505806 0
          1.5499999523162842 0.20000000298023224 0 1.5001660585403442 0.10008130222558975 0
          1.4500000476837158 0 0 1.5499999523162842 0.15000000596046448 0
          1.5000410079956055 0.050020311027765274 0 1.5499999523162842 0.10000000149011612 0
          1.5 0 0 1.5499999523162842 0.05000000074505806 0
          1.5499999523162842 0 0
          <InformationKey name="L2_NORM_RANGE" location="vtkDataArray" length="2">
            <Value index="0">
              1.4500000477
            </Value>
            <Value index="1">
              1.6286497021
            </Value>
          </InformationKey>
        </DataArray>
      </Points>
      <Cells>
        <DataArray type="Int64" Name="connectivity" format="ascii" RangeMin="0" RangeMax="32">
          11 8 3 5 3 0
          1 5 1 2 7 5
          11 5 7 14 32 31
          28 30 26 30 28 23
          16 14 7 10 7 2
          4 10 20 23 28 25
          28 31 29 25 4 6
          12 10 16 10 12 19
          17 20 25 22 25 29
          27 22 21 19 12 15
          12 6 9 15 27 24
          18 22 17 22 18 13
          9 13 18 15 15 18
          24 21
        </DataArray>
        <DataArray type="Int64" Name="offsets" format="ascii" RangeMin="4" RangeMax="80">
          4 8 12 16 20 24
          28 32 36 40 44 48
          52 56 60 64 68 72
          76 80
        </DataArray>
        <DataArray type="UInt8" Name="types" format="ascii" RangeMin="9" RangeMax="9">
          9 9 9 9 9 9
          9 9 9 9 9 9
          9 9 9 9 9 9
          9 9
        </DataArray>
      </Cells>
    </Piece>
  </UnstructuredGrid>
</VTKFile>
