<?xml version="1.0"?>
<VTKFile type="UnstructuredGrid" version="0.1" byte_order="LittleEndian" header_type="UInt32" compressor="vtkZLibDataCompressor">
  <UnstructuredGrid>
    <Piece NumberOfPoints="33" NumberOfCells="20">
      <PointData>
        <DataArray type="Float64" Name="sld_BC" NumberOfComponents="3" format="ascii" RangeMin="0" RangeMax="0">
          0 0 0 0 0 0
          0 0 0 0 0 0
          0 0 0 0 0 0
          0 0 0 0 0 0
          0 0 0 0 0 0
          0 0 0 0 0 0
          0 0 0 0 0 0
          0 0 0 0 0 0
          0 0 0 0 0 0
          0 0 0 0 0 0
          0 0 0 0 0 0
          0 0 0 0 0 0
          0 0 0 0 0 0
          0 0 0 0 0 0
          0 0 0 0 0 0
          0 0 0 0 0 0
          0 0 0
          <InformationKey name="L2_NORM_RANGE" location="vtkDataArray" length="2">
            <Value index="0">
              0
            </Value>
            <Value index="1">
              0
            </Value>
          </InformationKey>
        </DataArray>
        <DataArray type="Float64" Name="sld_FIXNO" NumberOfComponents="3" format="ascii" RangeMin="1.4142135623730951" RangeMax="1.4142135623730951">
          -1 -1 0 -1 -1 0
          -1 -1 0 -1 -1 0
          -1 -1 0 -1 -1 0
          -1 -1 0 -1 -1 0
          -1 -1 0 -1 -1 0
          -1 -1 0 -1 -1 0
          -1 -1 0 -1 -1 0
          -1 -1 0 -1 -1 0
          -1 -1 0 -1 -1 0
          -1 -1 0 -1 -1 0
          -1 -1 0 -1 -1 0
          -1 -1 0 -1 -1 0
          -1 -1 0 -1 -1 0
          1 1 0 -1 -1 0
          -1 -1 0 -1 -1 0
          1 1 0 -1 -1 0
          1 1 0
          <InformationKey name="L2_NORM_RANGE" location="vtkDataArray" length="2">
            <Value index="0">
              1.4142135624
            </Value>
            <Value index="1">
              1.4142135624
            </Value>
          </InformationKey>
        </DataArray>
        <DataArray type="Float64" Name="Disp" NumberOfComponents="3" format="ascii" RangeMin="0" RangeMax="0.038911654421531">
          0.03857529060830611 0.005105272206786195 0 0.033491799731163 0.005089685650895683 0
          0.02841455398896431 0.005031723883052555 0 0.038568492328776495 0.00003692707977143335 0
          0.02340121128002735 0.0049045855983875855 0 0.03349556003642654 0.000009633874469057706 0
          0.01853201140565514 0.004683724077872364 0 0.028392653982427893 0.00001825228722074747 0
          0.038569216055393 -0.005030966019899122 0 0.013913698114962854 0.004343250753673677 0
          0.02337883385772637 -0.00002208726934901928 0 0.033484452278321114 -0.0050170670728513465 0
          0.018467123693938634 0.000007567517834220806 0 0.009676370406895042 0.003856561789280929 0
          0.028405788140589285 -0.004963306025054773 0 0.013802805560524508 -0.0000024195747510667048 0
          0.023390663455190412 -0.0048428587625248985 0 0.005982310662335311 0.0031946298832713593 0
          0.009512606364476898 0.000002757105070457747 0 0.018521601696767014 -0.0046297313028662536 0
          0.003017606394792736 0.00233499936738569 0 0.013902212776219315 -0.004298434775854422 0
          0.005815633075438031 0.00002076973562071906 0 0.0010429862503325475 0.0012404481963427768 0
          0.009664324436140076 -0.0038207764414566947 0 0.00281634859828513 8.992695920044205e-7 0
          0 0 0 0.005972869439646128 -0.0031681153786135034 0
          0.0007263919443918135 0.0000017284743643589923 0 0.0030044769949461613 -0.0023186403732347754 0
          0 0 0 0.0010317330306049445 -0.0012320927098116085 0
          0 0 0
          <InformationKey name="L2_NORM_RANGE" location="vtkDataArray" length="2">
            <Value index="0">
              0
            </Value>
            <Value index="1">
              0.038911654422
            </Value>
          </InformationKey>
        </DataArray>
        <DataArray type="Float64" Name="Sld_traction" NumberOfComponents="3" format="ascii" RangeMin="0" RangeMax="3293.222874522534">
          18.598530954455693 5.492760805915715 0 -11.524523536553339 -51.55947274323528 0
          -74.83906117429743 -90.71668561895969 0 29.912095417620765 -2.4883719870127976 0
          -168.1947123576772 -127.26493219796447 0 0 0 0
          -291.97667482479835 -164.52924137026628 0 0 0 0
          4.103161981494437 -6.629612980255877 0 -445.1381467600812 -204.99880727053971 0
          0 0 0 -43.960727111086214 54.406227056068026 0
          0 0 0 -627.384033113157 -244.90308130831528 0
          -108.5886257510312 93.11924003674861 0 0 0 0
          -203.07390442629065 128.13739680820848 0 -844.4174166101565 -278.6008562897909 0
          0 0 0 -326.0599067272711 165.10641433742848 0
          -1083.247918317729 -278.6595222535702 0 -480.52603176693987 205.77676011981444 0
          0 0 0 -1373.2385251908593 -453.86973517965913 0
          -664.3582451058674 245.00529205233337 0 0 0 0
          -1867.6997929112897 -2712.381681260509 0 -879.2193183454478 279.51138018845205 0
          0 0 0 -1123.4362056885066 279.42445934796615 0
          -1276.6615018256196 -13.60172891755069 0 -1403.513913361517 447.4503459566449 0
          -1862.4227936291438 2686.72370782788 0
          <InformationKey name="L2_NORM_RANGE" location="vtkDataArray" length="2">
            <Value index="0">
              0
            </Value>
            <Value index="1">
              3293.2228745
            </Value>
          </InformationKey>
        </DataArray>
        <DataArray type="Float64" Name="Fld_traction" NumberOfComponents="3" format="ascii" RangeMin="0" RangeMax="38.65152324068284">
          24.570459542733992 -0.4168314184913456 0 38.192162713615524 5.9412924588646545 0
          37.51163891879293 3.4433066509578976 0 14.879069641863499 -3.7185446342827966 0
          36.46701344918837 2.0974159867872753 0 0 0 0
          35.97929532569956 1.2935653438124537 0 0 0 0
          12.223516760093805 -1.5509142837680545 0 35.53268271188882 0.7270985141404155 0
          0 0 0 9.693907653298016 -0.8288671448839041 0
          0 0 0 35.040343169383384 0.3603002409485042 0
          6.068591776791039 0.5596652226965538 0 0 0 0
          3.944617664378599 0.8405856164130225 0 34.62875571511448 0.15352331075879164 0
          0 0 0 2.515939648956625 0.8979877364015841 0
          34.40595408190681 0.04069295935094584 0 1.6024248343071752 0.8230041585616925 0
          0 0 0 34.2312549702512 0.00014325533956123927 0
          0.9045040266102401 0.6703306432276915 0 0 0 0
          17.356648521974407 -16.814154882155552 0 0.4740649689459744 0.45429216479823825 0
          0 0 0 0.2880076577401556 0.24437218513162814 0
          0 0 0 0.31257331290023943 0.06316661431256422 0
          0.20566228595793606 0.20884561731023474 0
          <InformationKey name="L2_NORM_RANGE" location="vtkDataArray" length="2">
            <Value index="0">
              0
            </Value>
            <Value index="1">
              38.651523241
            </Value>
          </InformationKey>
        </DataArray>
        <DataArray type="Float64" Name="Velocity" NumberOfComponents="3" format="ascii" RangeMin="0" RangeMax="0.11381128768383168">
          -0.11215191698393157 -0.017549031954611282 0 -0.09304844973269748 -0.017537177444231385 0
          -0.07390456498690767 -0.016941129440063735 0 -0.11202221522207625 0.0014179878202438738 0
          -0.0554885116185216 -0.015654215412637767 0 -0.09287816790797393 0.0014221378367932688 0
          -0.03881889616492626 -0.013650582229210194 0 -0.07354418897689723 0.0014017184609148381 0
          -0.11197109731575419 0.020383389564981622 0 -0.0248660985245427 -0.011099627336685404 0
          -0.05504757835887948 0.0015075507739205944 0 -0.09283592342243413 0.020180096359048237 0
          -0.03818344299478524 0.0012777746107167447 0 -0.014148394664232573 -0.008342667465125344 0
          -0.07369604675031971 0.019604977510326208 0 -0.024104238001490225 0.001106045791789146 0
          -0.05535087274714098 0.018266942065037976 0 -0.00662585104675352 -0.00568754012405563 0
          -0.013346472453269365 0.0008509590027443687 0 -0.03876365686871713 0.016052734479444428 0
          -0.001989624110299768 -0.0032908166639330737 0 -0.024852827568213998 0.013157039081111432 0
          -0.005953855101770766 0.0005629725988189071 0 -0.00011042087103554769 -0.0012688247137317477 0
          -0.014156762148641686 0.009966306155832397 0 -0.001392670106603067 0.0003481912241675865 0
          0 0 0 -0.0066504113966082985 0.0068451215152474576 0
          0.000499948993804328 0.00014132439998496764 0 -0.00200112428435329 0.0039984191875824535 0
          0 0 0 -0.000011319655662566752 0.0015865354537945115 0
          0 0 0
          <InformationKey name="L2_NORM_RANGE" location="vtkDataArray" length="2">
            <Value index="0">
              0
            </Value>
            <Value index="1">
              0.11381128768
            </Value>
          </InformationKey>
        </DataArray>
      </PointData>
      <CellData>
        <DataArray type="UInt8" Name="vtkGhostType" format="ascii" RangeMin="0" RangeMax="0">
          0 0 0 0 0 0
          0 0 0 0 0 0
          0 0 0 0 0 0
          0 0
        </DataArray>
        <DataArray type="Float64" Name="Gauss Stress" NumberOfComponents="6" format="ascii" RangeMin="49.605576090964156" RangeMax="3063.138542313835">
          1.101783862238273 -28.17531442727254 0 40.812386705039366 0 0
          -33.0546129574562 22.0533663979708 0 39.01217287108937 0 0
          -31.89537147759603 117.19285519940149 0 88.81848010787078 0 0
          -2.2293950661278075 -115.42545925736238 0 90.48708810754445 0 0
          -595.3917591226201 -2957.787319580599 0 402.2441203541946 0 0
          580.8015871163943 2979.718942746419 0 408.36536098176265 0 0
          -4.091493932819851 -262.08443495219495 0 134.63001357541424 0 0
          -32.87844346832516 270.37945654099485 0 133.69977283668217 0 0
          -135.94195433419276 2354.3356671421247 0 382.0210225075774 0 0
          93.30552261377821 -2339.1017893424423 0 382.5295120030909 0 0
          -31.68753709334019 476.5771796898292 0 177.21278921617514 0 0
          -6.329511376054576 -465.09416478491283 0 176.89577142005322 0 0
          -13.751893258609613 1892.7827028459092 0 351.99549492378276 0 0
          -24.83949428344934 -1869.1430196892481 0 353.54663898408455 0 0
          -7.553640375683429 -724.6783763816867 0 221.95397375769434 0 0
          -30.754317390561425 739.9164150842626 0 221.7868294495131 0 0
          2.873543305170813 -1428.8121501688445 0 313.8617751123351 0 0
          -39.520095184997444 1451.6660290911072 0 314.5567978674467 0 0
          -29.599491861081162 1061.1495945050171 0 268.79297644226716 0 0
          -11.640695929882526 -1047.023626463363 0 269.2240501044506 0 0
          <InformationKey name="L2_NORM_RANGE" location="vtkDataArray" length="2">
            <Value index="0">
              49.605576091
            </Value>
            <Value index="1">
              3063.1385423
            </Value>
          </InformationKey>
        </DataArray>
        <DataArray type="Float64" Name="Gauss Strain" NumberOfComponents="6" format="ascii" RangeMin="0.0005496177984293326" RangeMax="0.01387812536697904">
          0.00005995497970636558 -0.00013034615917545468 0 0.0005305610271655117 0 0
          -0.00019340255343246876 0.00016479931237780676 0 0.0005071582473241618 0 0
          -0.00037365000786189484 0.000595423465538589 0 0.0011546402414023202 0 0
          0.0002149358980009751 -0.0005208385192420496 0 0.0011763321453980777 0 0
          0.0030586527691742475 -0.012296918373802614 0 0.005229173564604528 0 0
          -0.0031678047169759233 0.012425158094619236 0 0.005308749692762912 0 0
          0.0004924483507624498 -0.001184505765863488 0 0.0017501901764803846 0 0
          -0.0006768368580358196 0.0012943394920247606 0 0.001738097046876868 0 0
          -0.0052094904431477206 0.010977314096448343 0 0.004966273292598506 0 0
          0.004985788617110453 -0.010824858910604978 0 0.004972883656040183 0 0
          -0.0010735037941698652 0.0022302168649207367 0 0.0023037662598102762 0 0
          0.0008781343445695318 -0.002103835902588047 0 0.0022996450284606916 0 0
          -0.003753497384876196 0.008638977489803175 0 0.004575941434009177 0 0
          0.00353180918940434 -0.008456163725733353 0 0.0045961063067931 0 0
          0.0013787537702349296 -0.0032825570138040917 0 0.0028854016588500263 0 0
          -0.0015827691535413666 0.0034265906075449898 0 0.00288322878284367 0 0
          0.002799258314867774 -0.006506698692713325 0 0.004080203076460356 0 0
          -0.003010565189819398 0.006682144617975283 0 0.004089238372276804 0 0
          -0.0022039193972527033 0.004885949664126938 0 0.0034943086937494726 0 0
          0.001988730905122593 -0.00474125814334503 0 0.0034999126513578574 0 0
          <InformationKey name="L2_NORM_RANGE" location="vtkDataArray" length="2">
            <Value index="0">
              0.00054961779843
            </Value>
            <Value index="1">
              0.013878125367
            </Value>
          </InformationKey>
        </DataArray>
        <DataArray type="Float64" Name="Btraction" NumberOfComponents="3" format="ascii" RangeMin="0.14632130528316506" RangeMax="19.070815861629924">
          6.775646600489326 -1.3173647295127127 0 15.690655564087379 1.3811152600933272 0
          18.92595040810211 2.3461497774556372 0 3.9406248575222635 -0.06730048054683757 0
          0.12955889971454387 0.06800305790569974 0 12.896975873056402 -4.2035029067039975 0
          2.5033023602924094 0.35006270977739407 0 18.49466309199532 1.3851806594362932 0
          17.159302263039503 0.01020905367262677 0 0.15014524266009874 0.0768846998610481 0
          18.11157719372198 0.8477453326499321 0 1.6151393283338058 0.43464333820365164 0
          17.258677449255323 0.04855406752743436 0 0.1905181566715325 0.1746660874824666 0
          1.0295911208159498 0.43024797374081913 0 17.877994509397094 0.5051659644882172 0
          0.3446422488890536 0.28115570200648243 0 17.417274721124464 0.12845588792682397 0
          17.643256470318047 0.2718496887722299 0 0.6267322152293537 0.373333700447346 0
          <InformationKey name="L2_NORM_RANGE" location="vtkDataArray" length="2">
            <Value index="0">
              0.14632130528
            </Value>
            <Value index="1">
              19.070815862
            </Value>
          </InformationKey>
        </DataArray>
      </CellData>
      <Points>
        <DataArray type="Float32" Name="Points" NumberOfComponents="3" format="ascii" RangeMin="1.4500000476837158" RangeMax="1.6286497021092299">
          1.4500000476837158 0.5 0 1.4500000476837158 0.44999998807907104 0
          1.4500000476837158 0.4000000059604645 0 1.5 0.5 0
          1.4500000476837158 0.3499999940395355 0 1.5002609491348267 0.45016080141067505 0
          1.4500000476837158 0.30000001192092896 0 1.5001590251922607 0.4000298082828522 0
          1.5499999523162842 0.5 0 1.4500000476837158 0.25 0
          1.5005459785461426 0.35020819306373596 0 1.5499999523162842 0.44999998807907104 0
          1.5002089738845825 0.30000561475753784 0 1.4500000476837158 0.20000000298023224 0
          1.5499999523162842 0.4000000059604645 0 1.5002909898757935 0.24981409311294556 0
          1.5499999523162842 0.3499999940395355 0 1.4500000476837158 0.15000000596046448 0
          1.5001939535140991 0.19956040382385254 0 1.5499999523162842 0.30000001192092896 0
          1.4500000476837158 0.10000000149011612 0 1.5499999523162842 0.25 0
          1.499879002571106 0.15004639327526093 0 1.4500000476837158 0.05000000074505806 0
          1.5499999523162842 0.20000000298023224 0 1.5001660585403442 0.10008130222558975 0
          1.4500000476837158 0 0 1.5499999523162842 0.15000000596046448 0
          1.5000410079956055 0.050020311027765274 0 1.5499999523162842 0.10000000149011612 0
          1.5 0 0 1.5499999523162842 0.05000000074505806 0
          1.5499999523162842 0 0
          <InformationKey name="L2_NORM_RANGE" location="vtkDataArray" length="2">
            <Value index="0">
              1.4500000477
            </Value>
            <Value index="1">
              1.6286497021
            </Value>
          </InformationKey>
        </DataArray>
      </Points>
      <Cells>
        <DataArray type="Int64" Name="connectivity" format="ascii" RangeMin="0" RangeMax="32">
          11 8 3 5 3 0
          1 5 1 2 7 5
          11 5 7 14 32 31
          28 30 26 30 28 23
          16 14 7 10 7 2
          4 10 20 23 28 25
          28 31 29 25 4 6
          12 10 16 10 12 19
          17 20 25 22 25 29
          27 22 21 19 12 15
          12 6 9 15 27 24
          18 22 17 22 18 13
          9 13 18 15 15 18
          24 21
        </DataArray>
        <DataArray type="Int64" Name="offsets" format="ascii" RangeMin="4" RangeMax="80">
          4 8 12 16 20 24
          28 32 36 40 44 48
          52 56 60 64 68 72
          76 80
        </DataArray>
        <DataArray type="UInt8" Name="types" format="ascii" RangeMin="9" RangeMax="9">
          9 9 9 9 9 9
          9 9 9 9 9 9
          9 9 9 9 9 9
          9 9
        </DataArray>
      </Cells>
    </Piece>
  </UnstructuredGrid>
</VTKFile>
