<?xml version="1.0"?>
<VTKFile type="UnstructuredGrid" version="0.1" byte_order="LittleEndian" header_type="UInt32" compressor="vtkZLibDataCompressor">
  <UnstructuredGrid>
    <Piece NumberOfPoints="33" NumberOfCells="20">
      <PointData>
        <DataArray type="Float64" Name="sld_BC" NumberOfComponents="3" format="ascii" RangeMin="0" RangeMax="0">
          0 0 0 0 0 0
          0 0 0 0 0 0
          0 0 0 0 0 0
          0 0 0 0 0 0
          0 0 0 0 0 0
          0 0 0 0 0 0
          0 0 0 0 0 0
          0 0 0 0 0 0
          0 0 0 0 0 0
          0 0 0 0 0 0
          0 0 0 0 0 0
          0 0 0 0 0 0
          0 0 0 0 0 0
          0 0 0 0 0 0
          0 0 0 0 0 0
          0 0 0 0 0 0
          0 0 0
          <InformationKey name="L2_NORM_RANGE" location="vtkDataArray" length="2">
            <Value index="0">
              0
            </Value>
            <Value index="1">
              0
            </Value>
          </InformationKey>
        </DataArray>
        <DataArray type="Float64" Name="sld_FIXNO" NumberOfComponents="3" format="ascii" RangeMin="1.4142135623730951" RangeMax="1.4142135623730951">
          -1 -1 0 -1 -1 0
          -1 -1 0 -1 -1 0
          -1 -1 0 -1 -1 0
          -1 -1 0 -1 -1 0
          -1 -1 0 -1 -1 0
          -1 -1 0 -1 -1 0
          -1 -1 0 -1 -1 0
          -1 -1 0 -1 -1 0
          -1 -1 0 -1 -1 0
          -1 -1 0 -1 -1 0
          -1 -1 0 -1 -1 0
          -1 -1 0 -1 -1 0
          -1 -1 0 -1 -1 0
          1 1 0 -1 -1 0
          -1 -1 0 -1 -1 0
          1 1 0 -1 -1 0
          1 1 0
          <InformationKey name="L2_NORM_RANGE" location="vtkDataArray" length="2">
            <Value index="0">
              1.4142135624
            </Value>
            <Value index="1">
              1.4142135624
            </Value>
          </InformationKey>
        </DataArray>
        <DataArray type="Float64" Name="Disp" NumberOfComponents="3" format="ascii" RangeMin="0" RangeMax="0.04381569811226955">
          0.043429850387736654 0.005802025195080754 0 0.03766638286671434 0.005783976483443148 0
          0.03190821142274834 0.005716030052415024 0 0.04342338239601528 0.00005611345950544931 0
          0.026224139990240876 0.005565606061094112 0 0.03767187345659642 0.00002488125053336579 0
          0.02071190825255251 0.005303377391300025 0 0.031884057874183774 0.0000339874397237564 0
          0.0434248203786338 -0.0056893682351838335 0 0.015500629301077387 0.004901161494907737 0
          0.026198385066722358 -0.00001222547845847275 0 0.037659946039339476 -0.0056738525137358855 0
          0.020636776760617818 0.000020812741499027588 0 0.010742052129357794 0.00433338235887681 0
          0.03190031520971122 -0.005611981649377459 0 0.015372815526244228 0.000008757624676874597 0
          0.02621433544917436 -0.0054703365357357545 0 0.006616323854288326 0.003573349807436331 0
          0.01055521706481825 0.000013279443075740749 0 0.020702194134184126 -0.005218087298126265 0
          0.003323101549531753 0.002600556121857313 0 0.01548931177901834 -0.004828018091966558 0
          0.006427591219169795 0.00003155834372303869 0 0.001141873881601905 0.0013761084760267341 0
          0.010729646734806706 -0.004273101330147381 0 0.0030974972999781767 0.000007053381232357506 0
          0 0 0 0.0066064430687118635 -0.0035272397029096924 0
          0.000790681184058014 0.000005129193086658222 0 0.0033087359621554223 -0.0025705326986729354 0
          0 0 0 0.001128966550320347 -0.0013606244913496551 0
          0 0 0
          <InformationKey name="L2_NORM_RANGE" location="vtkDataArray" length="2">
            <Value index="0">
              0
            </Value>
            <Value index="1">
              0.043815698112
            </Value>
          </InformationKey>
        </DataArray>
        <DataArray type="Float64" Name="Sld_traction" NumberOfComponents="3" format="ascii" RangeMin="0" RangeMax="3640.2216612168577">
          17.63064715842239 8.278971640911774 0 -22.164718069036798 -60.92661019391047 0
          -97.83544805431033 -108.51667475135123 0 34.4490678990042 0.9220536216975065 0
          -209.4799533395736 -151.32872309587003 0 0 0 0
          -355.5098877973128 -191.38266633526928 0 0 0 0
          6.857960875608389 -5.89168753002147 0 -531.0818845601143 -231.08433349978972 0
          0 0 0 -46.42183484714489 63.84568503960089 0
          0 0 0 -733.1657496983703 -268.3242914980858 0
          -122.21815436941031 110.85718030016568 0 0 0 0
          -234.6770135511669 152.02741656753358 0 -968.2599527858815 -299.7569086783361 0
          0 0 0 -379.6430654697192 192.0415297548183 0
          -1223.8116467502925 -296.46518423793293 0 -556.8990086816807 232.2032519149126 0
          0 0 0 -1533.2109860910093 -486.86906798044146 0
          -761.0074864811352 268.75193691458094 0 0 0 0
          -2060.3210472349715 -3001.048304361829 0 -993.6733930651374 300.9983769455757 0
          0 0 0 -1255.3865359587016 297.7018772593899 0
          -1392.8563579337088 -32.19113290565684 0 -1554.4275396591213 479.63345691849764 0
          -2047.4586546094283 2955.2894450370554 0
          <InformationKey name="L2_NORM_RANGE" location="vtkDataArray" length="2">
            <Value index="0">
              0
            </Value>
            <Value index="1">
              3640.2216612
            </Value>
          </InformationKey>
        </DataArray>
        <DataArray type="Float64" Name="Fld_traction" NumberOfComponents="3" format="ascii" RangeMin="0" RangeMax="38.50313759996626">
          24.462769850786582 -0.340066249908545 0 38.032964558545906 5.99876753427958 0
          37.39113158243833 3.51195946419884 0 14.85716221343186 -3.6381311281370907 0
          36.379354813896924 2.167185613718071 0 0 0 0
          35.91846952686027 1.3564891628230649 0 0 0 0
          12.30139372818798 -1.5761868007535618 0 35.491363610783395 0.7778798355866827 0
          0 0 0 9.840590455109322 -0.9360711442639531 0
          0 0 0 35.00798583097973 0.3960528729443651 0
          6.187154823678762 0.4627980856571935 0 0 0 0
          4.043883309420574 0.7516830529467982 0 34.593780577064514 0.175356745847945 0
          0 0 0 2.601131657861575 0.8208473712753797 0
          34.367742562408935 0.05127314030395749 0 1.6778056550827585 0.763541746734712 0
          0 0 0 34.18456026784847 0.002696586250400657 0
          0.9621594075520301 0.6310565026143778 0 0 0 0
          17.329812243326256 -16.787757352234067 0 0.5177265528375438 0.43725922252823 0
          0 0 0 0.30216598484373564 0.24247902867957938 0
          0 0 0 0.303152662552111 0.06490214076940166 0
          0.19802433821218712 0.20076307007885363 0
          <InformationKey name="L2_NORM_RANGE" location="vtkDataArray" length="2">
            <Value index="0">
              0
            </Value>
            <Value index="1">
              38.5031376
            </Value>
          </InformationKey>
        </DataArray>
        <DataArray type="Float64" Name="Velocity" NumberOfComponents="3" format="ascii" RangeMin="0" RangeMax="0.05770892963499246">
          0.0562080983257076 0.013075558964116898 0 0.043118317786967605 0.012938551791246929 0
          0.030229192670827805 0.011943129034151054 0 0.055985606901167724 0.00017107696557578647 0
          0.01873506099855908 0.010086813620259814 0 0.0427750208861465 0.00019814861489553053 0
          0.009585075831224282 0.007703459863521847 0 0.029625445961768374 0.00017068196630609742 0
          0.055881403238604 -0.01276424434615605 0 0.0031629151957967665 0.005235054410388366 0
          0.01799665092146456 -0.000009175948372604995 0 0.04271557534884014 -0.012444967343927048 0
          0.008748052319469644 -0.00003188439131001633 0 -0.0007256191979707546 0.003021581678291538 0
          0.02975373390728893 -0.01154832550620565 0 0.0023321321843559617 -0.00009295073182265961 0
          0.018244306498362617 -0.009887239117017117 0 -0.002501510665790241 0.001218131066950322 0
          -0.0014815749760187652 -0.00009951858797807589 0 0.009130031828935507 -0.007685859651833694 0
          -0.0025318184706528864 -0.00006333059896478782 0 0.0027363733322222535 -0.0053413956149854485 0
          -0.003126626964237794 -0.00007445357233333224 0 -0.0012881261145201725 -0.0005489063324808359 0
          -0.0011204290351666153 -0.0031777325489104674 0 -0.0030339572379075915 -0.000050053475952325935 0
          0 0 0 -0.0028676498179128172 -0.0013667041868530173 0
          -0.001586626413453978 -0.000050374161100074906 0 -0.0028983145927230555 -0.00004358805181494622 0
          0 0 0 -0.001708463658817432 0.0005047964642932194 0
          0 0 0
          <InformationKey name="L2_NORM_RANGE" location="vtkDataArray" length="2">
            <Value index="0">
              0
            </Value>
            <Value index="1">
              0.057708929635
            </Value>
          </InformationKey>
        </DataArray>
      </PointData>
      <CellData>
        <DataArray type="UInt8" Name="vtkGhostType" format="ascii" RangeMin="0" RangeMax="0">
          0 0 0 0 0 0
          0 0 0 0 0 0
          0 0 0 0 0 0
          0 0
        </DataArray>
        <DataArray type="Float64" Name="Gauss Stress" NumberOfComponents="6" format="ascii" RangeMin="55.29006502227144" RangeMax="3404.585573097145">
          5.329238443258793 -29.02367722100942 0 46.75699592951364 0 0
          -30.079999602741374 29.642772190250856 0 44.90181878930476 0 0
          -27.745101277227104 142.8297227931191 0 105.78374172384774 0 0
          2.6915564596621433 -129.19147436740812 0 107.39945075339989 0 0
          -650.8593018970805 -3256.4172989400836 0 424.89688284758483 0 0
          648.1090634144256 3314.2702856242104 0 432.1689950583047 0 0
          0.6794505173463747 -304.92192115664903 0 160.8894673868203 0 0
          -28.651378815071986 325.1951479893951 0 160.14024855835356 0 0
          -141.9212021834984 2644.263387158219 0 406.902044195681 0 0
          107.14158148552653 -2597.0643729446597 0 407.59936373627454 0 0
          -26.85622721815561 571.2456238971128 0 209.65880241212864 0 0
          -2.135091410008336 -547.3567061032222 0 209.05451206014902 0 0
          -7.007696253767165 2150.673276484159 0 376.70090797809655 0 0
          -22.582585646922837 -2097.679383442334 0 378.3278560723826 0 0
          -3.9518327912969085 -849.6710258022838 0 254.94895676593444 0 0
          -25.326578891974023 880.2386983943239 0 254.86202689664083 0 0
          7.964679958801582 -1626.9163696345233 0 339.53701281107544 0 0
          -35.465502677327464 1674.9287864239125 0 340.36081251395444 0 0
          -23.938915140453872 1245.0706390907624 0 298.34796266579815 0 0
          -8.79085583004587 -1211.738003487712 0 298.7901981704981 0 0
          <InformationKey name="L2_NORM_RANGE" location="vtkDataArray" length="2">
            <Value index="0">
              55.290065022
            </Value>
            <Value index="1">
              3404.5855731
            </Value>
          </InformationKey>
        </DataArray>
        <DataArray type="Float64" Name="Gauss Strain" NumberOfComponents="6" format="ascii" RangeMin="0.0006295223051971781" RangeMax="0.015323085167261705">
          0.00008084420549779592 -0.00014244974631994755 0 0.0006078409470836772 0 0
          -0.00019466740396346244 0.00019353061269098708 0 0.0005837236442609618 0 0
          -0.00040475817025796557 0.0007039781861992846 0 0.0013751886424100204 0 0
          0.0002641699569079087 -0.0005930697434680483 0 0.0013961928597941984 0 0
          0.0033886039093014467 -0.01354752307147807 0 0.0055236594770186 0 0
          -0.003513930818431576 0.01381611712593203 0 0.005618196935757961 0 0
          0.0005976892461093916 -0.0013887196697715785 0 0.0020915630760286637 0 0
          -0.000764494312187898 0.0015355081120411378 0 0.0020818232312585956 0 0
          -0.005802055074893444 0.01230814475582772 0 0.0052897265745438515 0 0
          0.005551769723001234 -0.012025568980794982 0 0.005298791728571569 0 0
          -0.0012361248004419782 0.002651537231807267 0 0.0027255644313576716 0 0
          0.0010576309109857455 -0.002486309584520145 0 0.002717708656781937 0 0
          -0.00422569790709875 0.009799228415697768 0 0.004897111803715255 0 0
          0.003987724033019052 -0.009500405152651117 0 0.004918262128940971 0 0
          0.0016388776611140528 -0.0038582970934573626 0 0.0033143364379571473 0 0
          -0.001831701395827414 0.004054472906533523 0 0.0033132063496563308 0 0
          0.0032087262145998672 -0.0074180006077567435 0 0.004413981166543981 0 0
          -0.0034274791707084706 0.007690083708449591 0 0.004424690562681407 0 0
          -0.0025368098101160516 0.005711752292386854 0 0.003878523514655376 0 0
          0.00232289071277433 -0.005496265747000501 0 0.003884272576216475 0 0
          <InformationKey name="L2_NORM_RANGE" location="vtkDataArray" length="2">
            <Value index="0">
              0.0006295223052
            </Value>
            <Value index="1">
              0.015323085167
            </Value>
          </InformationKey>
        </DataArray>
        <DataArray type="Float64" Name="Btraction" NumberOfComponents="3" format="ascii" RangeMin="0.14180893623775645" RangeMax="19.005341694382953">
          6.789638985404959 -1.303579482222663 0 15.623933602333121 1.4146753210927585 0
          18.856024035246055 2.3776817496196045 0 4.006936319697021 -0.11831826465168988 0
          0.12529425019107454 0.06641630271206383 0 12.878593127793682 -4.196265191495916 0
          2.557759533274834 0.3036202846509979 0 18.442621599083814 1.4197862694792276 0
          17.138075707564347 0.013492431638589535 0 0.15132966184896168 0.07684529236224524 0
          18.074456085189297 0.880918694135284 0 1.6612537418205369 0.39313260605554445 0
          17.24038078486836 0.05665747153797561 0 0.2049731344203198 0.16993456280195232 0
          1.0697343282360834 0.3960972795025229 0 17.852458284410915 0.5335922496024368 0
          0.36997149009739344 0.26707893128565197 0 17.400441602011057 0.14285240469807753 0
          17.62483736044078 0.29348317713276195 0 0.6599912656586971 0.3486495623372724 0
          <InformationKey name="L2_NORM_RANGE" location="vtkDataArray" length="2">
            <Value index="0">
              0.14180893624
            </Value>
            <Value index="1">
              19.005341694
            </Value>
          </InformationKey>
        </DataArray>
      </CellData>
      <Points>
        <DataArray type="Float32" Name="Points" NumberOfComponents="3" format="ascii" RangeMin="1.4500000476837158" RangeMax="1.6286497021092299">
          1.4500000476837158 0.5 0 1.4500000476837158 0.44999998807907104 0
          1.4500000476837158 0.4000000059604645 0 1.5 0.5 0
          1.4500000476837158 0.3499999940395355 0 1.5002609491348267 0.45016080141067505 0
          1.4500000476837158 0.30000001192092896 0 1.5001590251922607 0.4000298082828522 0
          1.5499999523162842 0.5 0 1.4500000476837158 0.25 0
          1.5005459785461426 0.35020819306373596 0 1.5499999523162842 0.44999998807907104 0
          1.5002089738845825 0.30000561475753784 0 1.4500000476837158 0.20000000298023224 0
          1.5499999523162842 0.4000000059604645 0 1.5002909898757935 0.24981409311294556 0
          1.5499999523162842 0.3499999940395355 0 1.4500000476837158 0.15000000596046448 0
          1.5001939535140991 0.19956040382385254 0 1.5499999523162842 0.30000001192092896 0
          1.4500000476837158 0.10000000149011612 0 1.5499999523162842 0.25 0
          1.499879002571106 0.15004639327526093 0 1.4500000476837158 0.05000000074505806 0
          1.5499999523162842 0.20000000298023224 0 1.5001660585403442 0.10008130222558975 0
          1.4500000476837158 0 0 1.5499999523162842 0.15000000596046448 0
          1.5000410079956055 0.050020311027765274 0 1.5499999523162842 0.10000000149011612 0
          1.5 0 0 1.5499999523162842 0.05000000074505806 0
          1.5499999523162842 0 0
          <InformationKey name="L2_NORM_RANGE" location="vtkDataArray" length="2">
            <Value index="0">
              1.4500000477
            </Value>
            <Value index="1">
              1.6286497021
            </Value>
          </InformationKey>
        </DataArray>
      </Points>
      <Cells>
        <DataArray type="Int64" Name="connectivity" format="ascii" RangeMin="0" RangeMax="32">
          11 8 3 5 3 0
          1 5 1 2 7 5
          11 5 7 14 32 31
          28 30 26 30 28 23
          16 14 7 10 7 2
          4 10 20 23 28 25
          28 31 29 25 4 6
          12 10 16 10 12 19
          17 20 25 22 25 29
          27 22 21 19 12 15
          12 6 9 15 27 24
          18 22 17 22 18 13
          9 13 18 15 15 18
          24 21
        </DataArray>
        <DataArray type="Int64" Name="offsets" format="ascii" RangeMin="4" RangeMax="80">
          4 8 12 16 20 24
          28 32 36 40 44 48
          52 56 60 64 68 72
          76 80
        </DataArray>
        <DataArray type="UInt8" Name="types" format="ascii" RangeMin="9" RangeMax="9">
          9 9 9 9 9 9
          9 9 9 9 9 9
          9 9 9 9 9 9
          9 9
        </DataArray>
      </Cells>
    </Piece>
  </UnstructuredGrid>
</VTKFile>
