<?xml version="1.0"?>
<VTKFile type="UnstructuredGrid" version="0.1" byte_order="LittleEndian" header_type="UInt32" compressor="vtkZLibDataCompressor">
  <UnstructuredGrid>
    <Piece NumberOfPoints="33" NumberOfCells="20">
      <PointData>
        <DataArray type="Float64" Name="sld_BC" NumberOfComponents="3" format="ascii" RangeMin="0" RangeMax="0">
          0 0 0 0 0 0
          0 0 0 0 0 0
          0 0 0 0 0 0
          0 0 0 0 0 0
          0 0 0 0 0 0
          0 0 0 0 0 0
          0 0 0 0 0 0
          0 0 0 0 0 0
          0 0 0 0 0 0
          0 0 0 0 0 0
          0 0 0 0 0 0
          0 0 0 0 0 0
          0 0 0 0 0 0
          0 0 0 0 0 0
          0 0 0 0 0 0
          0 0 0 0 0 0
          0 0 0
          <InformationKey name="L2_NORM_RANGE" location="vtkDataArray" length="2">
            <Value index="0">
              0
            </Value>
            <Value index="1">
              0
            </Value>
          </InformationKey>
        </DataArray>
        <DataArray type="Float64" Name="sld_FIXNO" NumberOfComponents="3" format="ascii" RangeMin="1.4142135623730951" RangeMax="1.4142135623730951">
          -1 -1 0 -1 -1 0
          -1 -1 0 -1 -1 0
          -1 -1 0 -1 -1 0
          -1 -1 0 -1 -1 0
          -1 -1 0 -1 -1 0
          -1 -1 0 -1 -1 0
          -1 -1 0 -1 -1 0
          -1 -1 0 -1 -1 0
          -1 -1 0 -1 -1 0
          -1 -1 0 -1 -1 0
          -1 -1 0 -1 -1 0
          -1 -1 0 -1 -1 0
          -1 -1 0 -1 -1 0
          1 1 0 -1 -1 0
          -1 -1 0 -1 -1 0
          1 1 0 -1 -1 0
          1 1 0
          <InformationKey name="L2_NORM_RANGE" location="vtkDataArray" length="2">
            <Value index="0">
              1.4142135624
            </Value>
            <Value index="1">
              1.4142135624
            </Value>
          </InformationKey>
        </DataArray>
        <DataArray type="Float64" Name="Disp" NumberOfComponents="3" format="ascii" RangeMin="0" RangeMax="0.035719589734775625">
          0.03540305578312646 0.004744758375041265 0 0.03063484150213763 0.004727757381334019 0
          0.025874240143594858 0.004664797523265873 0 0.0353967652687201 -0.0000068919810471152615 0
          0.021187114751333874 0.004528553211358602 0 0.030637872801191287 -0.00003218786655853102 0
          0.016661446920921204 0.004296902971535511 0 0.025851837608195784 -0.000023013686744404295 0
          0.03539840328744805 -0.004757793380333157 0 0.012407702248758628 0.003950151494624006 0
          0.0211626041138538 -0.000058207960984444154 0 0.03062948842941683 -0.004741713351066056 0
          0.01659621429124699 -0.000026980000839554462 0 0.008550308348867861 0.003471597724145347 0
          0.02586857031877225 -0.004680466610038818 0 0.012300011309182741 -0.000031513986617563304 0
          0.02118076881160941 -0.004545909958875131 0 0.0052322388984372345 0.002844172313190069 0
          0.008396173007698767 -0.00002142262179082602 0 0.0166562790395702 -0.0043145034482770656 0
          0.0026072861490076893 0.00205628274646533 0 0.012402184184261544 -0.003967384908147364 0
          0.005078716972966327 5.272255815955346e-7 0 0.0008860385173040962 0.001081172801110894 0
          0.008544841922995438 -0.0034867635408539375 0 0.0024268608218415964 -0.00001104753454096331 0
          0 0 0 0.005229669316961709 -0.002856378876692585 0
          0.0006095223318680823 -0.0000037227964354033207 0 0.0026017162398076998 -0.0020654818875366996 0
          0 0 0 0.0008820950731009826 -0.001085601460312111 0
          0 0 0
          <InformationKey name="L2_NORM_RANGE" location="vtkDataArray" length="2">
            <Value index="0">
              0
            </Value>
            <Value index="1">
              0.035719589735
            </Value>
          </InformationKey>
        </DataArray>
        <DataArray type="Float64" Name="Sld_traction" NumberOfComponents="3" format="ascii" RangeMin="0" RangeMax="2854.242168957412">
          16.950166461313973 6.770432325888898 0 -20.121878190381743 -56.50603223837698 0
          -89.57461149829939 -97.01907484280639 0 32.408181364206214 -2.773387295540188 0
          -187.9711131110865 -130.07789468565022 0 0 0 0
          -311.582101837019 -158.6306917484033 0 0 0 0
          5.847856170410195 -8.45180513575878 0 -454.82403307667727 -185.56151771945824 0
          0 0 0 -45.072127649520446 58.673160530443724 0
          0 0 0 -614.4010001634368 -209.53668062493512 0
          -115.20157607753809 98.4494142714722 0 0 0 0
          -214.4660950960172 130.035884009135 0 -795.0780314618839 -227.84884996725324 0
          0 0 0 -337.22037571819243 158.53946498331288 0
          -987.079678028276 -219.57489015060344 0 -481.940216406858 185.8952162683644 0
          0 0 0 -1214.7279302130326 -364.21286803673536 0
          -643.2091703390881 209.3434091000545 0 0 0 0
          -1609.5203266498486 -2340.362493854861 0 -821.7752734630574 228.30726227737534 0
          0 0 0 -1017.7653265808824 219.72796765169545 0
          -1078.2361522029835 17.42009808482122 0 -1241.7982961187631 361.84638555715577 0
          -1616.1743326446724 2352.589825183145 0
          <InformationKey name="L2_NORM_RANGE" location="vtkDataArray" length="2">
            <Value index="0">
              0
            </Value>
            <Value index="1">
              2854.242169
            </Value>
          </InformationKey>
        </DataArray>
        <DataArray type="Float64" Name="Fld_traction" NumberOfComponents="3" format="ascii" RangeMin="0" RangeMax="38.28936708219856">
          24.295539072532502 -0.2485007022045752 0 37.800959597849335 6.096153298360589 0
          37.22751087461555 3.633524428413372 0 14.80658888139713 -3.5926971385616873 0
          36.27668651129335 2.293585860462555 0 0 0 0
          35.86648041638835 1.472176393979032 0 0 0 0
          12.396255301437648 -1.7046366858307207 0 35.47779100574358 0.8715153665095129 0
          0 0 0 10.035766054700801 -1.187178219226486 0
          0 0 0 35.012058562980904 0.46118616477582974 0
          6.345774613425214 0.2261629715362986 0 0 0 0
          4.193233664302696 0.5265387494820262 0 34.59235396252332 0.2143942512224919 0
          0 0 0 2.7564205911509787 0.6201826464700759 0
          34.360442375567324 0.06981691316492533 0 1.8459574794306646 0.6044901262659836 0
          0 0 0 34.16217340783759 0.007097269715704997 0
          1.1197918683205246 0.5213766156478172 0 0 0 0
          17.313003674745865 -16.77078175062407 0 0.6641274862144462 0.3831235812569411 0
          0 0 0 0.3951821708884823 0.22803884429994772 0
          0 0 0 0.3474452479632057 0.0654788352621421 0
          0.21234974039488289 0.2140542360366116 0
          <InformationKey name="L2_NORM_RANGE" location="vtkDataArray" length="2">
            <Value index="0">
              0
            </Value>
            <Value index="1">
              38.289367082
            </Value>
          </InformationKey>
        </DataArray>
        <DataArray type="Float64" Name="Velocity" NumberOfComponents="3" format="ascii" RangeMin="0" RangeMax="0.10422485052577034">
          0.10397431564513773 0.007222267874043358 0 0.09627382326742327 0.007611820132486048 0
          0.08832709683300238 0.00839607763107704 0 0.10378983514908596 -0.0006583762062868561 0
          0.07922702094729946 0.00970282522430437 0 0.09611197384589493 -0.0005647650919895378 0
          0.06828532594772098 0.01127190955193475 0 0.08823267451895692 -0.0005046361811482372 0
          0.10360363781031832 -0.008557984595161064 0 0.055325240776661025 0.01257974444971401 0
          0.0792546211643571 -0.0005813053491339295 0 0.09585527858951245 -0.00867714299527423 0
          0.06827399872005795 -0.0005137293258290352 0 0.04096203914205713 0.013001073772978407 0
          0.08785246961932178 -0.00936075445562957 0 0.05513938080967609 -0.0005176567176056481 0
          0.07874718683145131 -0.010641009965937686 0 0.0265800423493457 0.01201947411190057 0
          0.04044965057262403 -0.0004456348408094505 0 0.0678076068664859 -0.012195389406671024 0
          0.013989873852007789 0.009423570817145588 0 0.054871469871684106 -0.013457356362833009 0
          0.0258688097316428 -0.0002910115342163287 0 0.005238149339302219 0.005224050234833819 0
          0.040528341157331116 -0.013781499972234278 0 0.012986887502318018 -0.00025831724312105724 0
          0 0 0 0.026172982581370928 -0.012651436716453694 0
          0.0035824947152742785 -0.00015629304231917012 0 0.013579504782622053 -0.009879260663156605 0
          0 0 0 0.004809870111291838 -0.0054522225598256525 0
          0 0 0
          <InformationKey name="L2_NORM_RANGE" location="vtkDataArray" length="2">
            <Value index="0">
              0
            </Value>
            <Value index="1">
              0.10422485053
            </Value>
          </InformationKey>
        </DataArray>
      </PointData>
      <CellData>
        <DataArray type="UInt8" Name="vtkGhostType" format="ascii" RangeMin="0" RangeMax="0">
          0 0 0 0 0 0
          0 0 0 0 0 0
          0 0 0 0 0 0
          0 0
        </DataArray>
        <DataArray type="Float64" Name="Gauss Stress" NumberOfComponents="6" format="ascii" RangeMin="55.10708387732166" RangeMax="2686.02566659491">
          5.2746499810288245 -31.92972594156443 0 44.603378373575964 0 0
          -29.685348434271756 25.861349196769098 0 42.71411613201032 0 0
          -27.598317421058496 127.35126293725581 0 96.79870012558543 0 0
          1.568841727175304 -132.89581420972388 0 98.31340118763919 0 0
          -521.1629052926094 -2616.174289012231 0 314.25339658458176 0 0
          498.679524757282 2582.3992575909197 0 316.052003224376 0 0
          -0.6538261059171973 -297.35044905771116 0 141.37974874891194 0 0
          -28.248403457431053 286.70018374846023 0 140.55469020674673 0 0
          -116.6886657862392 2084.768986398353 0 300.53164121651696 0 0
          82.60871188358777 -2124.7596946976732 0 299.9937838048403 0 0
          -26.423610082864492 493.9897438333782 0 176.86207396101187 0 0
          -3.5244784602817774 -512.5417136572055 0 176.4666952834762 0 0
          -10.340964845543084 1722.0611111292492 0 282.4247314511375 0 0
          -19.89416415550167 -1752.7220201215803 0 283.69259214489415 0 0
          -5.2188479477408265 -769.0788012376036 0 207.74549802306495 0 0
          -25.00379959541897 745.4883122332154 0 207.50501277386607 0 0
          4.480803324904542 -1392.5273517380438 0 260.9079323048179 0 0
          -33.27650771987277 1364.7362824727884 0 261.50576841960026 0 0
          -23.856259406704623 1033.4641470714273 0 235.5970000323706 0 0
          -9.329192127742374 -1064.833066943106 0 236.08948633436114 0 0
          <InformationKey name="L2_NORM_RANGE" location="vtkDataArray" length="2">
            <Value index="0">
              55.107083877
            </Value>
            <Value index="1">
              2686.0256666
            </Value>
          </InformationKey>
        </DataArray>
        <DataArray type="Float64" Name="Gauss Strain" NumberOfComponents="6" format="ascii" RangeMin="0.0006065154036531852" RangeMax="0.011944778745059444">
          0.0000862626229997318 -0.0001555658204971244 0 0.0005798439188564875 0 0
          -0.00018549796630963622 0.00017555556829212932 0 0.000555283509716134 0 0
          -0.000373907306993465 0.0006332649653355779 0 0.0012583831016326104 0 0
          0.0002662850675676093 -0.0006077351960222355 0 0.0012780742154393093 0 0
          0.002730248644492478 -0.01088732534968506 0 0.004085294155599563 0 0
          -0.00276668671465666 0.010777491548761982 0 0.004108676041916885 0 0
          0.0005768584668806136 -0.0013516695823060471 0 0.0018379367337358551 0 0
          -0.0006875955940408088 0.0013595702227974845 0 0.0018272109726877072 0 0
          -0.004596232952804177 0.009713241786395672 0 0.00390691133581472 0 0
          0.004519151043730788 -0.009828743599047408 0 0.0038999191894629223 0 0
          -0.0010835074263521212 0.0022991793741034567 0 0.002299206961493154 0 0
          0.0009834199646372686 -0.0023251920641427356 0 0.002294067038685191 0 0
          -0.0034050705567492574 0.007855542937086893 0 0.003671521508864786 0 0
          0.003327289492329549 -0.007936091571449961 0 0.0036880036978836246 0 0
          0.001475957904251106 -0.003489131792133001 0 0.002700691474299844 0 0
          -0.0015674694970139265 0.003440729229872198 0 0.0026975651660602583 0 0
          0.0027358159910175 -0.006344737016891663 0 0.0033918031199626324 0 0
          -0.0028126438609473586 0.006274439275304938 0 0.003399574989454802 0 0
          -0.0021238010670897897 0.004748781575018069 0 0.003062761000420817 0 0
          0.002033976656357829 -0.004826798529942035 0 0.0030691633223466942 0 0
          <InformationKey name="L2_NORM_RANGE" location="vtkDataArray" length="2">
            <Value index="0">
              0.00060651540365
            </Value>
            <Value index="1">
              0.011944778745
            </Value>
          </InformationKey>
        </DataArray>
        <DataArray type="Float64" Name="Btraction" NumberOfComponents="3" format="ascii" RangeMin="0.15642673343704447" RangeMax="18.91417789996504">
          6.8007110457086934 -1.324333456098102 0 15.52412466759546 1.4619131490390034 0
          18.75711761811622 2.43241943169349 0 4.095385167031504 -0.24025381192254683 0
          0.13994874708952212 0.06988326782468843 0 12.868794270645862 -4.190921120227091 0
          2.6347520694319773 0.18817543025458114 0 18.376049346477224 1.4817775722189819 0
          17.13065394585123 0.019228545720157583 0 0.18565685471292198 0.07337941989052245 0
          18.035791731920423 0.9414405636103969 0 1.7374135638634183 0.2866803489880255 0
          17.238199084522655 0.0710527910968543 0 0.2648274142757321 0.1527906063892222 0
          1.1505945176454107 0.3061681931840149 0 17.83606785553298 0.5859229401221362 0
          0.44597983863374263 0.22612504922618953 0 17.401103131376054 0.1688951039995804 0
          17.62246239218112 0.33317538282133563 0 0.7414373369377972 0.2814666854784502 0
          <InformationKey name="L2_NORM_RANGE" location="vtkDataArray" length="2">
            <Value index="0">
              0.15642673344
            </Value>
            <Value index="1">
              18.9141779
            </Value>
          </InformationKey>
        </DataArray>
      </CellData>
      <Points>
        <DataArray type="Float32" Name="Points" NumberOfComponents="3" format="ascii" RangeMin="1.4500000476837158" RangeMax="1.6286497021092299">
          1.4500000476837158 0.5 0 1.4500000476837158 0.44999998807907104 0
          1.4500000476837158 0.4000000059604645 0 1.5 0.5 0
          1.4500000476837158 0.3499999940395355 0 1.5002609491348267 0.45016080141067505 0
          1.4500000476837158 0.30000001192092896 0 1.5001590251922607 0.4000298082828522 0
          1.5499999523162842 0.5 0 1.4500000476837158 0.25 0
          1.5005459785461426 0.35020819306373596 0 1.5499999523162842 0.44999998807907104 0
          1.5002089738845825 0.30000561475753784 0 1.4500000476837158 0.20000000298023224 0
          1.5499999523162842 0.4000000059604645 0 1.5002909898757935 0.24981409311294556 0
          1.5499999523162842 0.3499999940395355 0 1.4500000476837158 0.15000000596046448 0
          1.5001939535140991 0.19956040382385254 0 1.5499999523162842 0.30000001192092896 0
          1.4500000476837158 0.10000000149011612 0 1.5499999523162842 0.25 0
          1.499879002571106 0.15004639327526093 0 1.4500000476837158 0.05000000074505806 0
          1.5499999523162842 0.20000000298023224 0 1.5001660585403442 0.10008130222558975 0
          1.4500000476837158 0 0 1.5499999523162842 0.15000000596046448 0
          1.5000410079956055 0.050020311027765274 0 1.5499999523162842 0.10000000149011612 0
          1.5 0 0 1.5499999523162842 0.05000000074505806 0
          1.5499999523162842 0 0
          <InformationKey name="L2_NORM_RANGE" location="vtkDataArray" length="2">
            <Value index="0">
              1.4500000477
            </Value>
            <Value index="1">
              1.6286497021
            </Value>
          </InformationKey>
        </DataArray>
      </Points>
      <Cells>
        <DataArray type="Int64" Name="connectivity" format="ascii" RangeMin="0" RangeMax="32">
          11 8 3 5 3 0
          1 5 1 2 7 5
          11 5 7 14 32 31
          28 30 26 30 28 23
          16 14 7 10 7 2
          4 10 20 23 28 25
          28 31 29 25 4 6
          12 10 16 10 12 19
          17 20 25 22 25 29
          27 22 21 19 12 15
          12 6 9 15 27 24
          18 22 17 22 18 13
          9 13 18 15 15 18
          24 21
        </DataArray>
        <DataArray type="Int64" Name="offsets" format="ascii" RangeMin="4" RangeMax="80">
          4 8 12 16 20 24
          28 32 36 40 44 48
          52 56 60 64 68 72
          76 80
        </DataArray>
        <DataArray type="UInt8" Name="types" format="ascii" RangeMin="9" RangeMax="9">
          9 9 9 9 9 9
          9 9 9 9 9 9
          9 9 9 9 9 9
          9 9
        </DataArray>
      </Cells>
    </Piece>
  </UnstructuredGrid>
</VTKFile>
