<?xml version="1.0"?>
<VTKFile type="UnstructuredGrid" version="0.1" byte_order="LittleEndian" header_type="UInt32" compressor="vtkZLibDataCompressor">
  <UnstructuredGrid>
    <Piece NumberOfPoints="33" NumberOfCells="20">
      <PointData>
        <DataArray type="Float64" Name="sld_BC" NumberOfComponents="3" format="ascii" RangeMin="0" RangeMax="0">
          0 0 0 0 0 0
          0 0 0 0 0 0
          0 0 0 0 0 0
          0 0 0 0 0 0
          0 0 0 0 0 0
          0 0 0 0 0 0
          0 0 0 0 0 0
          0 0 0 0 0 0
          0 0 0 0 0 0
          0 0 0 0 0 0
          0 0 0 0 0 0
          0 0 0 0 0 0
          0 0 0 0 0 0
          0 0 0 0 0 0
          0 0 0 0 0 0
          0 0 0 0 0 0
          0 0 0
          <InformationKey name="L2_NORM_RANGE" location="vtkDataArray" length="2">
            <Value index="0">
              0
            </Value>
            <Value index="1">
              0
            </Value>
          </InformationKey>
        </DataArray>
        <DataArray type="Float64" Name="sld_FIXNO" NumberOfComponents="3" format="ascii" RangeMin="1.4142135623730951" RangeMax="1.4142135623730951">
          -1 -1 0 -1 -1 0
          -1 -1 0 -1 -1 0
          -1 -1 0 -1 -1 0
          -1 -1 0 -1 -1 0
          -1 -1 0 -1 -1 0
          -1 -1 0 -1 -1 0
          -1 -1 0 -1 -1 0
          -1 -1 0 -1 -1 0
          -1 -1 0 -1 -1 0
          -1 -1 0 -1 -1 0
          -1 -1 0 -1 -1 0
          -1 -1 0 -1 -1 0
          -1 -1 0 -1 -1 0
          1 1 0 -1 -1 0
          -1 -1 0 -1 -1 0
          1 1 0 -1 -1 0
          1 1 0
          <InformationKey name="L2_NORM_RANGE" location="vtkDataArray" length="2">
            <Value index="0">
              1.4142135624
            </Value>
            <Value index="1">
              1.4142135624
            </Value>
          </InformationKey>
        </DataArray>
        <DataArray type="Float64" Name="Disp" NumberOfComponents="3" format="ascii" RangeMin="0" RangeMax="0.004651217266834153">
          -0.004584395090328101 -0.0007306113613016934 0 -0.003837998072363902 -0.0007295546293557893 0
          -0.0030833720702455013 -0.000716356299175847 0 -0.004588690517460962 0.000012825336744070616 0
          -0.0023478686130374315 -0.0006777736177931398 0 -0.003844068664764801 0.000015986509093582184 0
          -0.0016655319693455557 -0.0006090378526753513 0 -0.0030833247598461727 0.000013583724568461703 0
          -0.004589171604848586 0.0007571829663612504 0 -0.001072944907123877 -0.00051182459590384 0
          -0.0023440839664842007 0.000017717673608760452 0 -0.0038432931630927236 0.000755064030459329 0
          -0.0016525749169838068 0.000011481738824024916 0 -0.000599897860673882 -0.00039434100488807626 0
          -0.0030894659099571183 0.0007399910136162197 0 -0.0010523898674062115 0.000010347421174522288 0
          -0.0023542039939505478 0.0006991812873183448 0 -0.00026352711974584844 -0.00026941861686682634 0
          -0.0005746303371584067 0.000007341840282606394 0 -0.0016725785243313332 0.0006275080822610603 0
          -0.00006469970545053315 -0.0001523863375830672 0 -0.0010799326174016964 0.0005270928505430063 0
          -0.00024225971269908748 0.0000034250259778561664 0 0.000012104962145987819 -0.00005726730039357878 0
          -0.0006069055652376044 0.0004061413391975384 0 -0.00004673118416985771 0.0000028361595824107506 0
          0 0 0 -0.0002710688616180527 0.00027777991662667015 0
          0.000025255566141172613 4.495164291487742e-7 0 -0.0000718158854507414 0.00015731812332098067 0
          0 0 0 0.000004904165354648642 0.00005952222902336867 0
          0 0 0
          <InformationKey name="L2_NORM_RANGE" location="vtkDataArray" length="2">
            <Value index="0">
              0
            </Value>
            <Value index="1">
              0.0046512172668
            </Value>
          </InformationKey>
        </DataArray>
        <DataArray type="Float64" Name="Sld_traction" NumberOfComponents="3" format="ascii" RangeMin="0" RangeMax="166.3076800165122">
          9.76059654093065 -3.476731030583383 0 32.91392545240683 16.723930896385564 0
          55.16570534168036 33.360140325047226 0 -4.368637907165237 -1.9568031539372077 0
          87.79519291869818 39.75569364358784 0 0 0 0
          122.53660294049473 37.38547324176325 0 0 0 0
          -1.342295379479822 2.377324804182525 0 150.73591303151815 26.876373855207177 0
          0 0 0 7.559887157907367 -13.873655636345601 0
          0 0 0 166.0045907358618 10.035949735507991 0
          27.35776863229504 -30.767533118618964 0 0 0 0
          58.307131947313266 -37.56012807847695 0 165.70852235354502 -10.990122414164523 0
          0 0 0 91.4214165629479 -35.852566009501984 0
          148.57671231986888 -31.726177622512267 0 119.52180968299241 -26.085355629535705 0
          0 0 0 112.39313976997114 -49.15799258783835 0
          134.94692282042368 -9.480226399066071 0 0 0 0
          41.59299442826266 78.26035591870715 0 133.9955423651529 11.363005626781227 0
          0 0 0 116.40581858651062 32.29914050753785 0
          -30.255530510646107 -3.6416805680545274 0 85.6389267630453 45.17531486899487 0
          41.422141199641636 -88.29771000685436 0
          <InformationKey name="L2_NORM_RANGE" location="vtkDataArray" length="2">
            <Value index="0">
              0
            </Value>
            <Value index="1">
              166.30768002
            </Value>
          </InformationKey>
        </DataArray>
        <DataArray type="Float64" Name="Fld_traction" NumberOfComponents="3" format="ascii" RangeMin="0" RangeMax="38.704042106486796">
          24.614986818977588 -0.48171918789707296 0 38.25155564072293 5.900963179463209 0
          37.55235902076773 3.405121158750636 0 14.884004116546578 -3.7951106654413223 0
          36.49567253135604 2.0632926842532635 0 0 0 0
          35.99836072088834 1.2651808859170979 0 0 0 0
          12.17388548439846 -1.5599498358252049 0 35.545812715904084 0.7055497061445489 0
          0 0 0 9.605321701184904 -0.7917152924533597 0
          0 0 0 35.051965890347894 0.34578148490734956 0
          5.9964305244159615 0.5889231025134372 0 0 0 0
          3.8873617029953476 0.863958701251714 0 34.642834580179596 0.14499504738746047 0
          0 0 0 2.472972778396415 0.9155868817288706 0
          34.42228162299664 0.03677449009494258 0 1.5709728432261791 0.8341962255047831 0
          0 0 0 34.251530637416 -0.0007379428603909424 0
          0.8866549798754276 0.6754441943799531 0 0 0 0
          17.368178756331616 -16.825487238841706 0 0.46609452636448734 0.4537923682752389 0
          0 0 0 0.29290166706510157 0.241239326004824 0
          0 0 0 0.3253169504953263 0.06151503626930006 0
          0.21226880288512084 0.21554696377195878 0
          <InformationKey name="L2_NORM_RANGE" location="vtkDataArray" length="2">
            <Value index="0">
              0
            </Value>
            <Value index="1">
              38.704042106
            </Value>
          </InformationKey>
        </DataArray>
        <DataArray type="Float64" Name="Velocity" NumberOfComponents="3" format="ascii" RangeMin="0" RangeMax="0.042168525596635725">
          0.04175309188359176 0.0003470514820763807 0 0.04009836913389141 0.0004802901779733344 0
          0.038445908709722094 0.0008434107783388683 0 0.041899636901923346 -0.0013934696440842992 0
          0.036220927030723174 0.0018617865992536075 0 0.04031395404927367 -0.0013573482006197046 0
          0.032640403654294846 0.0033477850636091863 0 0.03881274787820931 -0.0013751712321227545 0
          0.04205721281616463 -0.003061927682026417 0 0.027120482847349234 0.004782937071019866 0
          0.036748742514770914 -0.0013043187433331423 0 0.04048442883541368 -0.003105132678113404 0
          0.033184548703678395 -0.0011714376665502583 0 0.02000981116462775 0.005539776355757212 0
          0.03894608264065515 -0.003530697884925294 0 0.027547838067078508 -0.001106064619154174 0
          0.036784573265763884 -0.004397512597684049 0 0.012604714066186849 0.005294258522784718 0
          0.020199991592366528 -0.0010257179561825708 0 0.03316230340715014 -0.005674296114116618 0
          0.006197174528929537 0.0041700255280702455 0 0.027615779687279022 -0.006936757019790662 0
          0.01266398358898532 -0.000872076523973896 0 0.0018669207882145479 0.0022906811795836896 0
          0.020515375661349994 -0.007525417332806658 0 0.006187037813758748 -0.0006582175450883379 0
          0 0 0 0.013180308356188643 -0.007009630374188094 0
          0.0015340174715515959 -0.00024202640105089974 0 0.006939507855121547 -0.005437470854010012 0
          0 0 0 0.0025927351704722957 -0.0029740737156045563 0
          0 0 0
          <InformationKey name="L2_NORM_RANGE" location="vtkDataArray" length="2">
            <Value index="0">
              0
            </Value>
            <Value index="1">
              0.042168525597
            </Value>
          </InformationKey>
        </DataArray>
      </PointData>
      <CellData>
        <DataArray type="UInt8" Name="vtkGhostType" format="ascii" RangeMin="0" RangeMax="0">
          0 0 0 0 0 0
          0 0 0 0 0 0
          0 0 0 0 0 0
          0 0
        </DataArray>
        <DataArray type="Float64" Name="Gauss Stress" NumberOfComponents="6" format="ascii" RangeMin="7.17546765605751" RangeMax="284.1783209782814">
          -2.407082562246656 5.217826176230573 0 -4.297392187862143 0 0
          -21.782655553823155 -10.085718165174043 0 -6.413539929996999 0 0
          -22.585669735778918 -36.678070152444654 0 -33.88751390704777 0 0
          -3.881623592184324 33.41327557574755 0 -31.444512154171736 0 0
          14.355070750175685 137.88697809265398 0 68.6752138687412 0 0
          -30.211742723425246 -137.85734233630768 0 73.11037784980523 0 0
          -4.937886437515106 90.66363601595256 0 -45.6175068894566 0 0
          -23.393759580965106 -91.96255062338236 0 -47.51086881293544 0 0
          -23.25301126763616 -214.2757214588542 0 49.0866627214657 0 0
          -7.755870430259037 216.17812727903245 0 50.44560909556593 0 0
          -24.504403860792788 -157.34559986654963 0 -49.93547869616383 0 0
          -4.951308534337809 159.1992514189511 0 -48.187038310384764 0 0
          -26.01921709161417 -264.4284675585084 0 25.965460131681162 0 0
          -5.386325674201224 266.50660226722187 0 26.151854348609675 0 0
          -4.752337086125593 222.90778489897667 0 -40.25657721902955 0 0
          -25.625652474081328 -219.83528542697064 0 -41.231120471222425 0 0
          -6.790854473227476 284.09308602175713 0 1.5234448441270452 0 0
          -24.442782012476734 -281.95321260296845 0 0.9777301317917271 0 0
          -26.01793162448608 -264.2895641337266 0 -22.920293128573494 0 0
          -4.028695035206425 268.28216603473635 0 -22.348209926140402 0 0
          <InformationKey name="L2_NORM_RANGE" location="vtkDataArray" length="2">
            <Value index="0">
              7.1754676561
            </Value>
            <Value index="1">
              284.17832098
            </Value>
          </InformationKey>
        </DataArray>
        <DataArray type="Float64" Name="Gauss Strain" NumberOfComponents="6" format="ascii" RangeMin="0.0000661507007011132" RangeMax="0.0014310003423272542">
          -0.0000211269867018719 0.000028434920098230085 0 -0.000055866098442207846 0 0
          -0.00007944393234780595 -0.0000034138393215867457 0 -0.00008337601908996097 0 0
          -0.00003124256050052697 -0.0001228431632088543 0 -0.00044053768079162095 0 0
          -0.00008281727471714639 0.00015959956987441075 0 -0.00040877865800423253 0 0
          -0.00020356403536737593 0.000599393362358733 0 0.0008927777802936352 0 0
          0.0001313583881642151 -0.0005683380093195206 0 0.0009504349120474677 0 0
          -0.00019926147352180125 0.0004221484224257387 0 -0.0005930275895629357 0 0
          0.00007288536762220434 -0.0003728117741535077 0 -0.0006176412945681606 0 0
          0.0003120364555770213 -0.0009296111606658962 0 0.0006381266153790538 0 0
          -0.0004568365586517919 0.0009987344264586026 0 0.000655792918242357 0 0
          0.00019532888217316463 -0.0006681388918642548 0 -0.0006491612230501297 0 0
          -0.0003329669940981916 0.0007340116455981861 0 -0.0006264314980350019 0 0
          0.00039724807397224695 -0.0011524120540625654 0 0.0003375509817118551 0 0
          -0.0005441956562386982 0.0012231083753805516 0 0.0003399741065319258 0 0
          -0.0004562933142948759 0.0010234974786082886 0 -0.0005233355038473842 0 0
          0.00031208208782552266 -0.0009502805263682575 0 -0.0005360045661258915 0 0
          -0.0005848799055956115 0.0013058657076217882 0 0.000019804782973651682 0 0
          0.0004385941064190193 -0.0012352236924191764 0 0.000012710491713292457 0 0
          0.00039698306116935523 -0.001151782550140708 0 -0.0002979638106714553 0 0
          -0.0005414807861779251 0.0012285398107767028 0 -0.0002905267290398252 0 0
          <InformationKey name="L2_NORM_RANGE" location="vtkDataArray" length="2">
            <Value index="0">
              6.6150700701e-05
            </Value>
            <Value index="1">
              0.0014310003423
            </Value>
          </InformationKey>
        </DataArray>
        <DataArray type="Float64" Name="Btraction" NumberOfComponents="3" format="ascii" RangeMin="0.15119560883679903" RangeMax="19.09325254461066">
          6.764472400236259 -1.3387651253166322 0 15.716635614925128 1.354810997891534 0
          18.95097866537266 2.3265210845534607 0 3.9004380564002163 -0.05069804748498066 0
          0.13439643834511178 0.0692655000103147 0 12.904927348436901 -4.206556295425525 0
          2.4709480568528273 0.36322045094128774 0 18.512007888030944 1.3671034607509749 0
          17.16845306510316 0.009009136808637908 0 0.15455465439010696 0.075688590568531 0
          18.123508313061095 0.8321183925425905 0 1.5900836203479405 0.44488639574514605 0
          17.266279050794058 0.045442384370600754 0 0.18974904835739723 0.1737579235700157 0
          1.0109864054056483 0.43744577680841334 0 17.886043359198105 0.49268264801541173 0
          0.33818737655997866 0.282309140663798 0 17.42370011763187 0.12269413307370249 0
          17.649444651562995 0.2628327977629746 0 0.6144069557754017 0.377410104971184 0
          <InformationKey name="L2_NORM_RANGE" location="vtkDataArray" length="2">
            <Value index="0">
              0.15119560884
            </Value>
            <Value index="1">
              19.093252545
            </Value>
          </InformationKey>
        </DataArray>
      </CellData>
      <Points>
        <DataArray type="Float32" Name="Points" NumberOfComponents="3" format="ascii" RangeMin="1.4500000476837158" RangeMax="1.6286497021092299">
          1.4500000476837158 0.5 0 1.4500000476837158 0.44999998807907104 0
          1.4500000476837158 0.4000000059604645 0 1.5 0.5 0
          1.4500000476837158 0.3499999940395355 0 1.5002609491348267 0.45016080141067505 0
          1.4500000476837158 0.30000001192092896 0 1.5001590251922607 0.4000298082828522 0
          1.5499999523162842 0.5 0 1.4500000476837158 0.25 0
          1.5005459785461426 0.35020819306373596 0 1.5499999523162842 0.44999998807907104 0
          1.5002089738845825 0.30000561475753784 0 1.4500000476837158 0.20000000298023224 0
          1.5499999523162842 0.4000000059604645 0 1.5002909898757935 0.24981409311294556 0
          1.5499999523162842 0.3499999940395355 0 1.4500000476837158 0.15000000596046448 0
          1.5001939535140991 0.19956040382385254 0 1.5499999523162842 0.30000001192092896 0
          1.4500000476837158 0.10000000149011612 0 1.5499999523162842 0.25 0
          1.499879002571106 0.15004639327526093 0 1.4500000476837158 0.05000000074505806 0
          1.5499999523162842 0.20000000298023224 0 1.5001660585403442 0.10008130222558975 0
          1.4500000476837158 0 0 1.5499999523162842 0.15000000596046448 0
          1.5000410079956055 0.050020311027765274 0 1.5499999523162842 0.10000000149011612 0
          1.5 0 0 1.5499999523162842 0.05000000074505806 0
          1.5499999523162842 0 0
          <InformationKey name="L2_NORM_RANGE" location="vtkDataArray" length="2">
            <Value index="0">
              1.4500000477
            </Value>
            <Value index="1">
              1.6286497021
            </Value>
          </InformationKey>
        </DataArray>
      </Points>
      <Cells>
        <DataArray type="Int64" Name="connectivity" format="ascii" RangeMin="0" RangeMax="32">
          11 8 3 5 3 0
          1 5 1 2 7 5
          11 5 7 14 32 31
          28 30 26 30 28 23
          16 14 7 10 7 2
          4 10 20 23 28 25
          28 31 29 25 4 6
          12 10 16 10 12 19
          17 20 25 22 25 29
          27 22 21 19 12 15
          12 6 9 15 27 24
          18 22 17 22 18 13
          9 13 18 15 15 18
          24 21
        </DataArray>
        <DataArray type="Int64" Name="offsets" format="ascii" RangeMin="4" RangeMax="80">
          4 8 12 16 20 24
          28 32 36 40 44 48
          52 56 60 64 68 72
          76 80
        </DataArray>
        <DataArray type="UInt8" Name="types" format="ascii" RangeMin="9" RangeMax="9">
          9 9 9 9 9 9
          9 9 9 9 9 9
          9 9 9 9 9 9
          9 9
        </DataArray>
      </Cells>
    </Piece>
  </UnstructuredGrid>
</VTKFile>
