<?xml version="1.0"?>
<VTKFile type="UnstructuredGrid" version="0.1" byte_order="LittleEndian" header_type="UInt32" compressor="vtkZLibDataCompressor">
  <UnstructuredGrid>
    <Piece NumberOfPoints="33" NumberOfCells="20">
      <PointData>
        <DataArray type="Float64" Name="sld_BC" NumberOfComponents="3" format="ascii" RangeMin="0" RangeMax="0">
          0 0 0 0 0 0
          0 0 0 0 0 0
          0 0 0 0 0 0
          0 0 0 0 0 0
          0 0 0 0 0 0
          0 0 0 0 0 0
          0 0 0 0 0 0
          0 0 0 0 0 0
          0 0 0 0 0 0
          0 0 0 0 0 0
          0 0 0 0 0 0
          0 0 0 0 0 0
          0 0 0 0 0 0
          0 0 0 0 0 0
          0 0 0 0 0 0
          0 0 0 0 0 0
          0 0 0
          <InformationKey name="L2_NORM_RANGE" location="vtkDataArray" length="2">
            <Value index="0">
              0
            </Value>
            <Value index="1">
              0
            </Value>
          </InformationKey>
        </DataArray>
        <DataArray type="Float64" Name="sld_FIXNO" NumberOfComponents="3" format="ascii" RangeMin="1.4142135623730951" RangeMax="1.4142135623730951">
          -1 -1 0 -1 -1 0
          -1 -1 0 -1 -1 0
          -1 -1 0 -1 -1 0
          -1 -1 0 -1 -1 0
          -1 -1 0 -1 -1 0
          -1 -1 0 -1 -1 0
          -1 -1 0 -1 -1 0
          -1 -1 0 -1 -1 0
          -1 -1 0 -1 -1 0
          -1 -1 0 -1 -1 0
          -1 -1 0 -1 -1 0
          -1 -1 0 -1 -1 0
          -1 -1 0 -1 -1 0
          1 1 0 -1 -1 0
          -1 -1 0 -1 -1 0
          1 1 0 -1 -1 0
          1 1 0
          <InformationKey name="L2_NORM_RANGE" location="vtkDataArray" length="2">
            <Value index="0">
              1.4142135624
            </Value>
            <Value index="1">
              1.4142135624
            </Value>
          </InformationKey>
        </DataArray>
        <DataArray type="Float64" Name="Disp" NumberOfComponents="3" format="ascii" RangeMin="0" RangeMax="0.0016345461831693386">
          -0.00160895275260779 -0.0002741128643319693 0 -0.0013460282016235009 -0.0002761985668506455 0
          -0.0010735896929806815 -0.00027658089379835066 0 -0.0016142228773859057 -0.000010636763120243467 0
          -0.0008008978900113301 -0.00026729793103162777 0 -0.0013528427849711943 -0.000009484670591226245 0
          -0.0005417071105585752 -0.00024404743269396543 0 -0.0010784656059672046 -0.000010021554965600707 0
          -0.0016147237620626632 0.0002537880949604461 0 -0.0003128766916818523 -0.00020559293352819666 0
          -0.0008038875567058205 -0.00000781458989253748 0 -0.00135230171260614 0.00025580398757031706 0
          -0.0005402821489949116 -0.000008821375978059672 0 -0.00013137294406935046 -0.00015404116255324482 0
          -0.0010803252635271392 0.00025613943764853754 0 -0.0003073484569534982 -0.00000733494908824142 0
          -0.0008073287295326817 0.00024729911818574963 0 -0.000011350421023382029 -0.00009576984197537782 0
          -0.00012290676124266387 -0.0000062095886914696785 0 -0.0005478846157332602 0.0002253910044436036 0
          0.00004193686120156647 -0.000042007073776793485 0 -0.0003186731197283005 0.00018931839349987643 0
          -0.000004024234636319482 -0.000005255572750295313 0 0.00003994741462292702 -0.000006324695317265981 0
          -0.0001369917728308309 0.0001407933085999445 0 0.00004707897849096108 -0.0000032552017350240115 0
          0 0 0 -0.000017167756633284252 0.00008584438372622396 0
          0.00003865976087276421 -0.0000022372162339872388 0 0.000036062974220862295 0.000035296212248684 0
          0 0 0 0.00003374132626303458 0.0000030366310866642663 0
          0 0 0
          <InformationKey name="L2_NORM_RANGE" location="vtkDataArray" length="2">
            <Value index="0">
              0
            </Value>
            <Value index="1">
              0.0016345461832
            </Value>
          </InformationKey>
        </DataArray>
        <DataArray type="Float64" Name="Sld_traction" NumberOfComponents="3" format="ascii" RangeMin="0" RangeMax="91.72981074446095">
          12.979959101833494 -3.03290355082217 0 27.361612324131357 3.9993502422308915 0
          34.08180376269422 12.950779183978517 0 2.4101938158747727 -5.7847123561433 0
          47.12849115210496 17.60250673633353 0 0 0 0
          63.491548033222685 18.791102903525335 0 0 0 0
          -1.9108522977261344 -1.8784120825040178 0 79.33042992868083 15.937761555570614 0
          0 0 0 -6.134436008333363 -1.2977217422776752 0
          0 0 0 90.22165718360223 7.572923555107551 0
          -1.9093396888933771 -10.816218835337228 0 0 0 0
          10.256272415547901 -16.198055905948003 0 91.4341320386804 -7.359190006229002 0
          0 0 0 25.788502580842618 -17.83018750248889 0
          79.17632615212291 -24.530890114998428 0 41.27959557310312 -15.326595267565153 0
          0 0 0 48.507128945535136 -46.38746904425434 0
          51.9874055422204 -7.107085820857957 0 0 0 0
          -21.927873894615715 -18.418592282767637 0 52.741804448246704 7.7887535052622345 0
          0 0 0 39.49493677069794 25.279850056697157 0
          -58.529547893787665 10.978245915499514 0 13.167068538164669 43.08293726753417 0
          -28.111771131606424 23.86502748209217 0
          <InformationKey name="L2_NORM_RANGE" location="vtkDataArray" length="2">
            <Value index="0">
              0
            </Value>
            <Value index="1">
              91.729810744
            </Value>
          </InformationKey>
        </DataArray>
        <DataArray type="Float64" Name="Fld_traction" NumberOfComponents="3" format="ascii" RangeMin="0" RangeMax="38.70228985684533">
          24.61249180783961 -0.4747012476228098 0 38.24913703296143 5.905146602499535 0
          37.55139667544039 3.4085089562078017 0 14.88390482869677 -3.786730055032454 0
          36.49532835598385 2.065965871322657 0 0 0 0
          35.99846226513155 1.267187318319035 0 0 0 0
          12.177929300774066 -1.5582444784430043 0 35.546057606139975 0.7069312357808435 0
          0 0 0 9.612410526647533 -0.7942370792060387 0
          0 0 0 35.05206644127382 0.34663378125626115 0
          6.002259371859515 0.586951126661835 0 0 0 0
          3.892005800522241 0.8624325806423742 0 34.64262818068244 0.1454534937031539 0
          0 0 0 2.476450144612753 0.914496508048874 0
          34.421843785373554 0.03696071186902357 0 1.5734941709454475 0.8335746908558062 0
          0 0 0 34.25081563276847 -0.0007034289437326999 0
          0.8880703235885198 0.6752496774269527 0 0 0 0
          17.367748374795145 -16.825061016807147 0 0.4667098909436292 0.45396507245656614 0
          0 0 0 0.29254287616609354 0.24154662587148631 0
          0 0 0 0.32440750444406363 0.06165578430488288 0
          0.21181586455818685 0.21508863563958489 0
          <InformationKey name="L2_NORM_RANGE" location="vtkDataArray" length="2">
            <Value index="0">
              0
            </Value>
            <Value index="1">
              38.702289857
            </Value>
          </InformationKey>
        </DataArray>
        <DataArray type="Float64" Name="Velocity" NumberOfComponents="3" format="ascii" RangeMin="0" RangeMax="0.07328619407787697">
          -0.07295084409669828 -0.005841020363626236 0 -0.06744658769144171 -0.005893766510673233 0
          -0.06205100330655915 -0.005916664729231679 0 -0.07300398464062818 -0.000298350297084879 0
          -0.05651884935819497 -0.006374815349495711 0 -0.06751667693869182 -0.0003151247420822615 0
          -0.05023838910459995 -0.00729020109572124 0 -0.062182820085198605 -0.0002436542583226669 0
          -0.07310146767584001 0.005200160195452264 0 -0.04257985572638615 -0.008356971491923514 0
          -0.056796768496021346 -0.00018138378253669757 0 -0.06762028397892869 0.005161395351721353 0
          -0.050548291193896186 -0.00022747600195037443 0 -0.03348727499526937 -0.009110865837403202 0
          -0.06227893691440469 0.005354607995915993 0 -0.04282312473243555 -0.00017707618375977549 0
          -0.056806832645841895 0.005868546498922593 0 -0.023510002560183995 -0.009120737928775106 0
          -0.033550271928631685 -0.00011416585032001172 0 -0.05049824540192408 0.0067975638285672595 0
          -0.013481889214769009 -0.00793047810268663 0 -0.04279338506029173 0.00793053340592427 0
          -0.02345585016417901 -0.00008936143362996813 0 -0.005293825282400863 -0.004860839464139496 0
          -0.03367079223293598 0.00881667798103083 0 -0.013205361745925888 -0.000022863984725771222 0
          0 0 0 -0.023714942699081844 0.008958998059671172 0
          -0.0042136391600347736 -0.00007328106103256146 0 -0.0137771251152892 0.007853278367088495 0
          0 0 0 -0.005491816566230738 0.0048257721247511615 0
          0 0 0
          <InformationKey name="L2_NORM_RANGE" location="vtkDataArray" length="2">
            <Value index="0">
              0
            </Value>
            <Value index="1">
              0.073286194078
            </Value>
          </InformationKey>
        </DataArray>
      </PointData>
      <CellData>
        <DataArray type="UInt8" Name="vtkGhostType" format="ascii" RangeMin="0" RangeMax="0">
          0 0 0 0 0 0
          0 0 0 0 0 0
          0 0 0 0 0 0
          0 0
        </DataArray>
        <DataArray type="Float64" Name="Gauss Stress" NumberOfComponents="6" format="ascii" RangeMin="8.679220785677384" RangeMax="147.8713937239697">
          -4.22617787684576 -5.730945683787545 0 4.962313529924394 0 0
          -27.508881885395894 -6.6982637559299025 0 2.789578397071077 0 0
          -28.115861071530013 -11.2205935882523 0 -11.574382073683632 0 0
          -6.77055393396896 -3.654686837968801 0 -9.188699528470508 0 0
          -12.28944761301806 -3.514276151580031 0 59.7422758439375 0 0
          -13.387192112624803 -24.55522476096979 0 63.59909226746275 0 0
          -7.912245250831548 15.675262570235748 0 -18.150603528366254 0 0
          -28.487864723366403 -33.043794781698196 0 -19.908382075644333 0 0
          -32.070098171992115 -94.48816608183282 0 40.89998301581372 0 0
          -6.996317282604226 65.51678805610071 0 42.088359587440664 0 0
          -28.72736485429082 -64.76301920985598 0 -23.621114863581653 0 0
          -8.4861399683788 43.012254377099495 0 -22.175879907292995 0 0
          -30.011420588109072 -134.6319311192175 0 19.18309762147524 0 0
          -8.969283232603985 103.69678318192595 0 19.44799167480336 0 0
          -8.698366826304783 72.9713445490896 0 -21.7827468643889 0 0
          -29.21914280846166 -99.41344655298313 0 -22.77532064799879 0 0
          -9.190800643724927 113.45087872328823 0 -1.2792869288833355 0 0
          -29.48649687657973 -144.89140621173084 0 -1.7251057370276062 0 0
          -29.680887611729 -129.02608465621256 0 -16.11945268722818 0 0
          -8.345966849442291 99.69343962186869 0 -15.477280118992226 0 0
          <InformationKey name="L2_NORM_RANGE" location="vtkDataArray" length="2">
            <Value index="0">
              8.6792207857
            </Value>
            <Value index="1">
              147.87139372
            </Value>
          </InformationKey>
        </DataArray>
        <DataArray type="Float64" Name="Gauss Strain" NumberOfComponents="6" format="ascii" RangeMin="0.00006741284408507503" RangeMax="0.0008313119033704935">
          -0.000008053765256262491 -0.0000178347560013841 0 0.00006451007588901712 0 0
          -0.00011210379825448802 0.000023165219587040943 0 0.000036264519161924 0 0
          -0.00010604701037836955 0.000003772228262935565 0 -0.00015046696695788717 0 0
          -0.000023679381065519608 -0.000003426244941518569 0 -0.00011945309387011659 0 0
          -0.00004906414814365111 0.000007974466355696074 0 0.0007766495859711875 0 0
          -0.000013029035828551762 -0.00008562124804279418 0 0.0008267881994770156 0 0
          -0.00006656747790324325 0.00008675132293369417 0 -0.00023595784586876128 0 0
          -0.00006518438466700564 -0.00009479793004616231 0 -0.0002588089669833763 0 0
          0.00003833297717700991 -0.0003673844642369547 0 0.0005316997792055783 0 0
          -0.0001595909803452456 0.00031174420435633646 0 0.0005471486746367285 0 0
          -0.000004421622627804027 -0.00023865337593897764 0 -0.00030707449322656143 0 0
          -0.00012248583289146758 0.00021225373035414134 0 -0.0002882864387948089 0 0
          0.00012598030200657782 -0.0005540530164456269 0 0.0002493802690791781 0 0
          -0.0002430189659131038 0.000489310465781341 0 0.00025282389177244365 0 0
          -0.0001818716909304115 0.00034898143300965206 0 -0.0002831757092370557 0 0
          0.00006090912099981661 -0.00039535385333957303 0 -0.00029607916842398427 0 0
          -0.0002630473564393604 0.0005341235594462249 0 -0.000016630730075483367 0 0
          0.00014837468132443738 -0.0006017572293540448 0 -0.00002242637458135883 0 0
          0.00011655282644624761 -0.0005291909543428956 0 -0.00020955288493396633 0 0
          -0.0002323763564276064 0.0004698797856359151 0 -0.0002012046415468989 0 0
          <InformationKey name="L2_NORM_RANGE" location="vtkDataArray" length="2">
            <Value index="0">
              6.7412844085e-05
            </Value>
            <Value index="1">
              0.00083131190337
            </Value>
          </InformationKey>
        </DataArray>
        <DataArray type="Float64" Name="Btraction" NumberOfComponents="3" format="ascii" RangeMin="0.15085650786312707" RangeMax="19.092644346620766">
          6.765458532367709 -1.3362436333688648 0 15.71540721020026 1.357611338719181 0
          18.95013342710045 2.328413889676834 0 3.903667474626762 -0.05182148813605092 0
          0.1340558422505626 0.06918610498611694 0 12.904641001890905 -4.20644111143772 0
          2.473566293095439 0.36234592682605227 0 18.511681257856058 1.368618706882615 0
          17.168164854535508 0.009064320731322718 0 0.15423759515253932 0.07580060254409228 0
          18.123447655278852 0.8332882974104229 0 1.5921139862837486 0.44423227217281197 0
          17.266117991513998 0.04560355139304436 0 0.18981319177743064 0.1738779245820131 0
          1.0124860788895502 0.43701779972616994 0 17.886129967817883 0.49352963852496956 0
          0.33869505363303726 0.2823036874708797 0 17.423673655489065 0.12302181873985374 0
          17.649531011853448 0.2633912542592762 0 0.6153911236334918 0.37720609207068967 0
          <InformationKey name="L2_NORM_RANGE" location="vtkDataArray" length="2">
            <Value index="0">
              0.15085650786
            </Value>
            <Value index="1">
              19.092644347
            </Value>
          </InformationKey>
        </DataArray>
      </CellData>
      <Points>
        <DataArray type="Float32" Name="Points" NumberOfComponents="3" format="ascii" RangeMin="1.4500000476837158" RangeMax="1.6286497021092299">
          1.4500000476837158 0.5 0 1.4500000476837158 0.44999998807907104 0
          1.4500000476837158 0.4000000059604645 0 1.5 0.5 0
          1.4500000476837158 0.3499999940395355 0 1.5002609491348267 0.45016080141067505 0
          1.4500000476837158 0.30000001192092896 0 1.5001590251922607 0.4000298082828522 0
          1.5499999523162842 0.5 0 1.4500000476837158 0.25 0
          1.5005459785461426 0.35020819306373596 0 1.5499999523162842 0.44999998807907104 0
          1.5002089738845825 0.30000561475753784 0 1.4500000476837158 0.20000000298023224 0
          1.5499999523162842 0.4000000059604645 0 1.5002909898757935 0.24981409311294556 0
          1.5499999523162842 0.3499999940395355 0 1.4500000476837158 0.15000000596046448 0
          1.5001939535140991 0.19956040382385254 0 1.5499999523162842 0.30000001192092896 0
          1.4500000476837158 0.10000000149011612 0 1.5499999523162842 0.25 0
          1.499879002571106 0.15004639327526093 0 1.4500000476837158 0.05000000074505806 0
          1.5499999523162842 0.20000000298023224 0 1.5001660585403442 0.10008130222558975 0
          1.4500000476837158 0 0 1.5499999523162842 0.15000000596046448 0
          1.5000410079956055 0.050020311027765274 0 1.5499999523162842 0.10000000149011612 0
          1.5 0 0 1.5499999523162842 0.05000000074505806 0
          1.5499999523162842 0 0
          <InformationKey name="L2_NORM_RANGE" location="vtkDataArray" length="2">
            <Value index="0">
              1.4500000477
            </Value>
            <Value index="1">
              1.6286497021
            </Value>
          </InformationKey>
        </DataArray>
      </Points>
      <Cells>
        <DataArray type="Int64" Name="connectivity" format="ascii" RangeMin="0" RangeMax="32">
          11 8 3 5 3 0
          1 5 1 2 7 5
          11 5 7 14 32 31
          28 30 26 30 28 23
          16 14 7 10 7 2
          4 10 20 23 28 25
          28 31 29 25 4 6
          12 10 16 10 12 19
          17 20 25 22 25 29
          27 22 21 19 12 15
          12 6 9 15 27 24
          18 22 17 22 18 13
          9 13 18 15 15 18
          24 21
        </DataArray>
        <DataArray type="Int64" Name="offsets" format="ascii" RangeMin="4" RangeMax="80">
          4 8 12 16 20 24
          28 32 36 40 44 48
          52 56 60 64 68 72
          76 80
        </DataArray>
        <DataArray type="UInt8" Name="types" format="ascii" RangeMin="9" RangeMax="9">
          9 9 9 9 9 9
          9 9 9 9 9 9
          9 9 9 9 9 9
          9 9
        </DataArray>
      </Cells>
    </Piece>
  </UnstructuredGrid>
</VTKFile>
