<?xml version="1.0"?>
<VTKFile type="UnstructuredGrid" version="0.1" byte_order="LittleEndian" header_type="UInt32" compressor="vtkZLibDataCompressor">
  <UnstructuredGrid>
    <Piece NumberOfPoints="25" NumberOfCells="16">
      <PointData>
        <DataArray type="Float64" Name="nsi_SBC" NumberOfComponents="3" format="ascii" RangeMin="0" RangeMax="0">
          0 0 0 0 0 0
          0 0 0 0 0 0
          0 0 0 0 0 0
          0 0 0 0 0 0
          0 0 0 0 0 0
          0 0 0 0 0 0
          0 0 0 0 0 0
          0 0 0 0 0 0
          0 0 0 0 0 0
          0 0 0 0 0 0
          0 0 0 0 0 0
          0 0 0 0 0 0
          0 0 0
          <InformationKey name="L2_NORM_RANGE" location="vtkDataArray" length="2">
            <Value index="0">
              0
            </Value>
            <Value index="1">
              0
            </Value>
          </InformationKey>
        </DataArray>
        <DataArray type="Float64" Name="nsi_SFIXNO" NumberOfComponents="3" format="ascii" RangeMin="1.7320508075688772" RangeMax="1.7320508075688772">
          1 1 1 1 1 1
          1 1 1 -1 -1 -1
          1 1 1 1 1 1
          -1 -1 -1 -1 -1 -1
          -1 -1 -1 1 1 1
          1 1 1 -1 -1 -1
          -1 -1 -1 -1 -1 -1
          -1 -1 -1 1 1 1
          1 1 1 1 1 1
          1 1 1 -1 -1 -1
          1 1 1 1 1 1
          1 1 1 1 1 1
          1 1 1
          <InformationKey name="L2_NORM_RANGE" location="vtkDataArray" length="2">
            <Value index="0">
              1.7320508076
            </Value>
            <Value index="1">
              1.7320508076
            </Value>
          </InformationKey>
        </DataArray>
        <DataArray type="Float64" Name="nsi_UBC" NumberOfComponents="3" format="ascii" RangeMin="0" RangeMax="0">
          0 0 0 0 0 0
          0 0 0 0 0 0
          0 0 0 0 0 0
          0 0 0 0 0 0
          0 0 0 0 0 0
          0 0 0 0 0 0
          0 0 0 0 0 0
          0 0 0 0 0 0
          0 0 0 0 0 0
          0 0 0 0 0 0
          0 0 0 0 0 0
          0 0 0 0 0 0
          0 0 0
          <InformationKey name="L2_NORM_RANGE" location="vtkDataArray" length="2">
            <Value index="0">
              0
            </Value>
            <Value index="1">
              0
            </Value>
          </InformationKey>
        </DataArray>
        <DataArray type="Float64" Name="nsi_UFIXNO" NumberOfComponents="3" format="ascii" RangeMin="1.4142135623730951" RangeMax="1.4142135623730951">
          1 1 0 1 1 0
          1 1 0 -1 -1 0
          1 1 0 1 1 0
          -1 -1 0 -1 -1 0
          -1 -1 0 1 1 0
          1 1 0 -1 -1 0
          -1 -1 0 -1 -1 0
          -1 -1 0 1 1 0
          1 1 0 1 1 0
          1 1 0 -1 -1 0
          1 1 0 1 1 0
          1 1 0 1 1 0
          1 1 0
          <InformationKey name="L2_NORM_RANGE" location="vtkDataArray" length="2">
            <Value index="0">
              1.4142135624
            </Value>
            <Value index="1">
              1.4142135624
            </Value>
          </InformationKey>
        </DataArray>
        <DataArray type="Float64" Name="Velocity" NumberOfComponents="3" format="ascii" RangeMin="0" RangeMax="0.009018290158530909">
          0 0 0 0 0 0
          0 0 0 -0.005072788214173635 -0.005072788214173635 0
          0 0 0 0 0 0
          0 -0.009018290158530909 0 -0.009018290158530909 0 0
          0 0 0 0 0 0
          0 0 0 0.005072788214173635 -0.005072788214173635 0
          -0.005072788214173635 0.005072788214173635 0 0.009018290158530909 0 0
          0 0.009018290158530909 0 0 0 0
          0 0 0 0 0 0
          0 0 0 0.005072788214173635 0.005072788214173635 0
          0 0 0 0 0 0
          0 0 0 0 0 0
          0 0 0
          <InformationKey name="L2_NORM_RANGE" location="vtkDataArray" length="2">
            <Value index="0">
              0
            </Value>
            <Value index="1">
              0.0090182901585
            </Value>
          </InformationKey>
        </DataArray>
        <DataArray type="Float64" Name="Pressure" format="ascii" RangeMin="-1.4744753124354064" RangeMax="1.929686868275608">
          0 -1.4744719167817477 1.2513891146872766 -0.11991106706748625 -0.3525136863964363 -0.35374794580042057
          0.4172629036405978 0.42389363583045947 1.8204833733826287 1.92968553290542 -0.8088015288894694 0.7777265937708902
          0.7777267091787549 0.42389481843114885 0.4172635416747332 0.8296920317599636 0.8296924447613723 1.929686868275608
          -0.8087995179734486 -0.11991288871386763 -0.3525137612236428 -0.3537481456417146 -1.4744753124354064 1.2513851922445232
          -0.000004361183919858841
        </DataArray>
        <DataArray type="Float64" Name="stream" format="ascii" RangeMin="-0.00002073475864977669" RangeMax="0.002332367034815367">
          0 0.000017613847965880763 0 0.0005768535208825924 -0.000006329976612738284 0.000017613847965880654
          0.0011933381996884161 0.0011786829277480545 0.002332367034815367 -0.00002073475864977669 -0.000005504327489337711 0.0006064392811377825
          0.0005961689263355333 0.0011929081741033115 0.0011959076025594155 -0.000005504327489337711 0.0000064181318576847154 -0.000016581786561629844
          -0.00001575573428924318 0.0006094031130315637 0.000024520058862658985 0.00003751973230036831 0.0000064181318576847154 -0.000009138640941227995
          0.0000064181318576847154
        </DataArray>
        <DataArray type="Float64" Name="exSigma" NumberOfComponents="3" format="ascii" RangeMin="0" RangeMax="5.441616320687015">
          0 0 0 6.727714103799464e-7 -6.727714103799464e-7 0
          0 0 0 -3.8478038009731503 3.8478038009731503 0
          -5.881554700244174e-14 5.881554700244174e-14 0 0 0 0
          -3.363857051899745e-7 3.363857051899745e-7 0 3.3638570518997196e-7 -3.3638570518997196e-7 0
          2.940777350122098e-14 -2.940777350122098e-14 0 -6.727714103799414e-7 6.727714103799414e-7 0
          0 0 0 3.847803800973179 -3.847803800973179 0
          3.847803800973122 -3.847803800973122 0 -3.3638570518997456e-7 3.3638570518997456e-7 0
          3.3638570518997196e-7 -3.3638570518997196e-7 0 0 0 0
          1.1763109400488303e-13 -1.1763109400488303e-13 0 0 0 0
          -6.727714103799413e-7 6.727714103799413e-7 0 -3.8478038009731503 3.8478038009731503 0
          0 0 0 -5.881554700244173e-14 5.881554700244173e-14 0
          0 0 0 6.727714103799465e-7 -6.727714103799465e-7 0
          0 0 0
          <InformationKey name="L2_NORM_RANGE" location="vtkDataArray" length="2">
            <Value index="0">
              0
            </Value>
            <Value index="1">
              5.4416163207
            </Value>
          </InformationKey>
        </DataArray>
        <DataArray type="Float64" Name="exVeloc" NumberOfComponents="3" format="ascii" RangeMin="0" RangeMax="0.009018290158530909">
          0 0 0 0 0 0
          0 0 0 -0.005072788214173635 -0.005072788214173635 0
          0 0 0 0 0 0
          0 -0.009018290158530909 0 -0.009018290158530909 0 0
          0 0 0 0 0 0
          0 0 0 0.005072788214173635 -0.005072788214173635 0
          -0.005072788214173635 0.005072788214173635 0 0.009018290158530909 0 0
          0 0.009018290158530909 0 0 0 0
          0 0 0 0 0 0
          0 0 0 0.005072788214173635 0.005072788214173635 0
          0 0 0 0 0 0
          0 0 0 0 0 0
          0 0 0
          <InformationKey name="L2_NORM_RANGE" location="vtkDataArray" length="2">
            <Value index="0">
              0
            </Value>
            <Value index="1">
              0.0090182901585
            </Value>
          </InformationKey>
        </DataArray>
        <DataArray type="Float64" Name="Sigma" NumberOfComponents="6" format="ascii" RangeMin="0" RangeMax="5.495763090345019">
          0 0 0 0 0 0
          6.727714103799464e-7 -6.727714103799464e-7 0 1.3455428207598928e-7 0 0
          0 0 0 0 0 0
          -3.8478038009731503 3.8478038009731503 0 -0.7695607601946302 0 0
          -5.881554700244174e-14 5.881554700244174e-14 0 -1.1763109400488348e-14 0 0
          0 0 0 0 0 0
          -3.363857051899745e-7 3.363857051899745e-7 0 -6.72771410379949e-8 0 0
          3.3638570518997196e-7 -3.3638570518997196e-7 0 6.72771410379944e-8 0 0
          2.940777350122098e-14 -2.940777350122098e-14 0 5.881554700244195e-15 0 0
          -6.727714103799414e-7 6.727714103799414e-7 0 -1.345542820759883e-7 0 0
          0 0 0 0 0 0
          3.847803800973179 -3.847803800973179 0 0.7695607601946359 0 0
          3.847803800973122 -3.847803800973122 0 0.7695607601946243 0 0
          -3.3638570518997456e-7 3.3638570518997456e-7 0 -6.72771410379949e-8 0 0
          3.3638570518997196e-7 -3.3638570518997196e-7 0 6.72771410379944e-8 0 0
          0 0 0 0 0 0
          1.1763109400488303e-13 -1.1763109400488303e-13 0 2.3526218800976608e-14 0 0
          0 0 0 0 0 0
          -6.727714103799413e-7 6.727714103799413e-7 0 -1.345542820759883e-7 0 0
          -3.8478038009731503 3.8478038009731503 0 -0.7695607601946302 0 0
          0 0 0 0 0 0
          -5.881554700244173e-14 5.881554700244173e-14 0 -1.1763109400488348e-14 0 0
          0 0 0 0 0 0
          6.727714103799465e-7 -6.727714103799465e-7 0 1.3455428207598928e-7 0 0
          0 0 0 0 0 0
          <InformationKey name="L2_NORM_RANGE" location="vtkDataArray" length="2">
            <Value index="0">
              0
            </Value>
            <Value index="1">
              5.4957630903
            </Value>
          </InformationKey>
        </DataArray>
      </PointData>
      <CellData>
        <DataArray type="UInt8" Name="vtkGhostType" format="ascii" RangeMin="0" RangeMax="0">
          0 0 0 0 0 0
          0 0 0 0 0 0
          0 0 0 0
        </DataArray>
      </CellData>
      <Points>
        <DataArray type="Float32" Name="Points" NumberOfComponents="3" format="ascii" RangeMin="0" RangeMax="1.4142135623730951">
          0 1 0 0.25 1 0
          0 0.75 0 0.25 0.75 0
          0.5 1 0 0 0.5 0
          0.25 0.5 0 0.5 0.75 0
          0.5 0.5 0 0.75 1 0
          0 0.25 0 0.25 0.25 0
          0.75 0.75 0 0.5 0.25 0
          0.75 0.5 0 0 0 0
          1 1 0 0.25 0 0
          1 0.75 0 0.75 0.25 0
          0.5 0 0 1 0.5 0
          0.75 0 0 1 0.25 0
          1 0 0
          <InformationKey name="L2_NORM_RANGE" location="vtkDataArray" length="2">
            <Value index="0">
              0
            </Value>
            <Value index="1">
              1.4142135624
            </Value>
          </InformationKey>
        </DataArray>
      </Points>
      <Cells>
        <DataArray type="Int64" Name="connectivity" format="ascii" RangeMin="0" RangeMax="24">
          17 11 10 15 20 13
          11 17 22 19 13 20
          24 23 19 22 11 6
          5 10 13 8 6 11
          19 14 8 13 23 21
          14 19 6 3 2 5
          8 7 3 6 14 12
          7 8 21 18 12 14
          3 1 0 2 7 4
          1 3 12 9 4 7
          18 16 9 12
        </DataArray>
        <DataArray type="Int64" Name="offsets" format="ascii" RangeMin="4" RangeMax="64">
          4 8 12 16 20 24
          28 32 36 40 44 48
          52 56 60 64
        </DataArray>
        <DataArray type="UInt8" Name="types" format="ascii" RangeMin="9" RangeMax="9">
          9 9 9 9 9 9
          9 9 9 9 9 9
          9 9 9 9
        </DataArray>
      </Cells>
    </Piece>
  </UnstructuredGrid>
</VTKFile>
