<?xml version="1.0"?>
<VTKFile type="UnstructuredGrid" version="0.1" byte_order="LittleEndian" header_type="UInt32" compressor="vtkZLibDataCompressor">
  <UnstructuredGrid>
    <Piece NumberOfPoints="25" NumberOfCells="16">
      <PointData>
        <DataArray type="Float64" Name="nsi_SBC" NumberOfComponents="3" format="ascii" RangeMin="0" RangeMax="0">
          0 0 0 0 0 0
          0 0 0 0 0 0
          0 0 0 0 0 0
          0 0 0 0 0 0
          0 0 0 0 0 0
          0 0 0 0 0 0
          0 0 0 0 0 0
          0 0 0 0 0 0
          0 0 0 0 0 0
          0 0 0 0 0 0
          0 0 0 0 0 0
          0 0 0 0 0 0
          0 0 0
          <InformationKey name="L2_NORM_RANGE" location="vtkDataArray" length="2">
            <Value index="0">
              0
            </Value>
            <Value index="1">
              0
            </Value>
          </InformationKey>
        </DataArray>
        <DataArray type="Float64" Name="nsi_SFIXNO" NumberOfComponents="3" format="ascii" RangeMin="1.7320508075688772" RangeMax="1.7320508075688772">
          1 1 1 1 1 1
          1 1 1 -1 -1 -1
          1 1 1 1 1 1
          -1 -1 -1 -1 -1 -1
          -1 -1 -1 1 1 1
          1 1 1 -1 -1 -1
          -1 -1 -1 -1 -1 -1
          -1 -1 -1 1 1 1
          1 1 1 1 1 1
          1 1 1 -1 -1 -1
          1 1 1 1 1 1
          1 1 1 1 1 1
          1 1 1
          <InformationKey name="L2_NORM_RANGE" location="vtkDataArray" length="2">
            <Value index="0">
              1.7320508076
            </Value>
            <Value index="1">
              1.7320508076
            </Value>
          </InformationKey>
        </DataArray>
        <DataArray type="Float64" Name="nsi_UBC" NumberOfComponents="3" format="ascii" RangeMin="0" RangeMax="0">
          0 0 0 0 0 0
          0 0 0 0 0 0
          0 0 0 0 0 0
          0 0 0 0 0 0
          0 0 0 0 0 0
          0 0 0 0 0 0
          0 0 0 0 0 0
          0 0 0 0 0 0
          0 0 0 0 0 0
          0 0 0 0 0 0
          0 0 0 0 0 0
          0 0 0 0 0 0
          0 0 0
          <InformationKey name="L2_NORM_RANGE" location="vtkDataArray" length="2">
            <Value index="0">
              0
            </Value>
            <Value index="1">
              0
            </Value>
          </InformationKey>
        </DataArray>
        <DataArray type="Float64" Name="nsi_UFIXNO" NumberOfComponents="3" format="ascii" RangeMin="1.4142135623730951" RangeMax="1.4142135623730951">
          1 1 0 1 1 0
          1 1 0 -1 -1 0
          1 1 0 1 1 0
          -1 -1 0 -1 -1 0
          -1 -1 0 1 1 0
          1 1 0 -1 -1 0
          -1 -1 0 -1 -1 0
          -1 -1 0 1 1 0
          1 1 0 1 1 0
          1 1 0 -1 -1 0
          1 1 0 1 1 0
          1 1 0 1 1 0
          1 1 0
          <InformationKey name="L2_NORM_RANGE" location="vtkDataArray" length="2">
            <Value index="0">
              1.4142135624
            </Value>
            <Value index="1">
              1.4142135624
            </Value>
          </InformationKey>
        </DataArray>
        <DataArray type="Float64" Name="Velocity" NumberOfComponents="3" format="ascii" RangeMin="0" RangeMax="0.003116876189613739">
          0 0 0 0 0 0
          0 0 0 0.0017532428566577282 0.0017532428566577282 0
          0 0 0 0 0 0
          0 0.003116876189613739 0 0.003116876189613739 0 0
          0 0 0 0 0 0
          0 0 0 -0.0017532428566577282 0.0017532428566577282 0
          0.0017532428566577282 -0.0017532428566577282 0 -0.003116876189613739 0 0
          0 -0.003116876189613739 0 0 0 0
          0 0 0 0 0 0
          0 0 0 -0.0017532428566577282 -0.0017532428566577282 0
          0 0 0 0 0 0
          0 0 0 0 0 0
          0 0 0
          <InformationKey name="L2_NORM_RANGE" location="vtkDataArray" length="2">
            <Value index="0">
              0
            </Value>
            <Value index="1">
              0.0031168761896
            </Value>
          </InformationKey>
        </DataArray>
        <DataArray type="Float64" Name="Pressure" format="ascii" RangeMin="-0.3713532851993479" RangeMax="1.734942333586241">
          0 -0.3713506365394422 0.3181952659639131 -0.19953224267461755 -0.07725482729785796 -0.05121846198760889
          0.4887340470033561 0.46808350421737044 1.734942333586241 1.0980115246052748 0.4434276215134506 1.046102243619506
          1.0461024589023926 0.46808488657400965 0.48873495770004705 1.0363171572882135 1.0363176290365086 1.098012582464769
          0.44342947025541124 -0.1995338498401348 -0.07725491280168462 -0.05121858685203306 -0.3713532851993479 0.31819215862409395
          -0.0000033870945393965892
        </DataArray>
        <DataArray type="Float64" Name="stream" format="ascii" RangeMin="-0.0008061061629713917" RangeMax="0.0000071662892185545745">
          0 -0.00000608764880783932 0 -0.00019937049845673816 0.0000021877487903173057 -0.00000608764880783932
          -0.00041243820673111486 -0.0004073730926839672 -0.0008061061629713917 0.0000071662892185545745 0.0000019023902524498046 -0.00020959584606365585
          -0.00020604623479818386 -0.00041228958249264216 -0.0004133262365559888 0.0000019023902524498046 -0.0000022182167592041033 0.000005730950635504981
          0.0000054454527624140265 -0.00021062019734281777 -0.000008474554077709888 -0.000012967464806737763 -0.0000022182167592041033 0.0000031584714900970726
          -0.0000022182167592041033
        </DataArray>
        <DataArray type="Float64" Name="exSigma" NumberOfComponents="3" format="ascii" RangeMin="0" RangeMax="1.880716193958193">
          0 0 0 -2.3252137081467598e-7 2.3252137081467598e-7 0
          0 0 0 1.3298671742351826 -1.3298671742351826 0
          2.032766464689595e-14 -2.032766464689595e-14 0 0 0 0
          1.1626068540733844e-7 -1.1626068540733844e-7 0 -1.1626068540733757e-7 1.1626068540733757e-7 0
          -1.016383232344801e-14 1.016383232344801e-14 0 2.3252137081467426e-7 -2.3252137081467426e-7 0
          0 0 0 -1.3298671742351924 1.3298671742351924 0
          -1.3298671742351726 1.3298671742351726 0 1.1626068540733846e-7 -1.1626068540733846e-7 0
          -1.1626068540733757e-7 1.1626068540733757e-7 0 0 0 0
          -4.065532929379173e-14 4.065532929379173e-14 0 0 0 0
          2.3252137081467424e-7 -2.3252137081467424e-7 0 1.3298671742351826 -1.3298671742351826 0
          0 0 0 2.0327664646895945e-14 -2.0327664646895945e-14 0
          0 0 0 -2.32521370814676e-7 2.32521370814676e-7 0
          0 0 0
          <InformationKey name="L2_NORM_RANGE" location="vtkDataArray" length="2">
            <Value index="0">
              0
            </Value>
            <Value index="1">
              1.880716194
            </Value>
          </InformationKey>
        </DataArray>
        <DataArray type="Float64" Name="exVeloc" NumberOfComponents="3" format="ascii" RangeMin="0" RangeMax="0.003116876189613739">
          0 0 0 0 0 0
          0 0 0 0.0017532428566577282 0.0017532428566577282 0
          0 0 0 0 0 0
          0 0.003116876189613739 0 0.003116876189613739 0 0
          0 0 0 0 0 0
          0 0 0 -0.0017532428566577282 0.0017532428566577282 0
          0.0017532428566577282 -0.0017532428566577282 0 -0.003116876189613739 0 0
          0 -0.003116876189613739 0 0 0 0
          0 0 0 0 0 0
          0 0 0 -0.0017532428566577282 -0.0017532428566577282 0
          0 0 0 0 0 0
          0 0 0 0 0 0
          0 0 0
          <InformationKey name="L2_NORM_RANGE" location="vtkDataArray" length="2">
            <Value index="0">
              0
            </Value>
            <Value index="1">
              0.0031168761896
            </Value>
          </InformationKey>
        </DataArray>
        <DataArray type="Float64" Name="Sigma" NumberOfComponents="6" format="ascii" RangeMin="0" RangeMax="1.8994302488538302">
          0 0 0 0 0 0
          -2.3252137081467598e-7 2.3252137081467598e-7 0 -4.65042741629352e-8 0 0
          0 0 0 0 0 0
          1.3298671742351826 -1.3298671742351826 0 0.2659734348470365 0 0
          2.032766464689595e-14 -2.032766464689595e-14 0 4.065532929379189e-15 0 0
          0 0 0 0 0 0
          1.1626068540733844e-7 -1.1626068540733844e-7 0 2.3252137081467688e-8 0 0
          -1.1626068540733757e-7 1.1626068540733757e-7 0 -2.3252137081467516e-8 0 0
          -1.016383232344801e-14 1.016383232344801e-14 0 -2.032766464689602e-15 0 0
          2.3252137081467426e-7 -2.3252137081467426e-7 0 4.650427416293485e-8 0 0
          0 0 0 0 0 0
          -1.3298671742351924 1.3298671742351924 0 -0.2659734348470385 0 0
          -1.3298671742351726 1.3298671742351726 0 -0.2659734348470345 0 0
          1.1626068540733846e-7 -1.1626068540733846e-7 0 2.3252137081467688e-8 0 0
          -1.1626068540733757e-7 1.1626068540733757e-7 0 -2.3252137081467516e-8 0 0
          0 0 0 0 0 0
          -4.065532929379173e-14 4.065532929379173e-14 0 -8.131065858758348e-15 0 0
          0 0 0 0 0 0
          2.3252137081467424e-7 -2.3252137081467424e-7 0 4.650427416293485e-8 0 0
          1.3298671742351826 -1.3298671742351826 0 0.2659734348470365 0 0
          0 0 0 0 0 0
          2.0327664646895945e-14 -2.0327664646895945e-14 0 4.065532929379189e-15 0 0
          0 0 0 0 0 0
          -2.32521370814676e-7 2.32521370814676e-7 0 -4.65042741629352e-8 0 0
          0 0 0 0 0 0
          <InformationKey name="L2_NORM_RANGE" location="vtkDataArray" length="2">
            <Value index="0">
              0
            </Value>
            <Value index="1">
              1.8994302489
            </Value>
          </InformationKey>
        </DataArray>
      </PointData>
      <CellData>
        <DataArray type="UInt8" Name="vtkGhostType" format="ascii" RangeMin="0" RangeMax="0">
          0 0 0 0 0 0
          0 0 0 0 0 0
          0 0 0 0
        </DataArray>
      </CellData>
      <Points>
        <DataArray type="Float32" Name="Points" NumberOfComponents="3" format="ascii" RangeMin="0" RangeMax="1.4142135623730951">
          0 1 0 0.25 1 0
          0 0.75 0 0.25 0.75 0
          0.5 1 0 0 0.5 0
          0.25 0.5 0 0.5 0.75 0
          0.5 0.5 0 0.75 1 0
          0 0.25 0 0.25 0.25 0
          0.75 0.75 0 0.5 0.25 0
          0.75 0.5 0 0 0 0
          1 1 0 0.25 0 0
          1 0.75 0 0.75 0.25 0
          0.5 0 0 1 0.5 0
          0.75 0 0 1 0.25 0
          1 0 0
          <InformationKey name="L2_NORM_RANGE" location="vtkDataArray" length="2">
            <Value index="0">
              0
            </Value>
            <Value index="1">
              1.4142135624
            </Value>
          </InformationKey>
        </DataArray>
      </Points>
      <Cells>
        <DataArray type="Int64" Name="connectivity" format="ascii" RangeMin="0" RangeMax="24">
          17 11 10 15 20 13
          11 17 22 19 13 20
          24 23 19 22 11 6
          5 10 13 8 6 11
          19 14 8 13 23 21
          14 19 6 3 2 5
          8 7 3 6 14 12
          7 8 21 18 12 14
          3 1 0 2 7 4
          1 3 12 9 4 7
          18 16 9 12
        </DataArray>
        <DataArray type="Int64" Name="offsets" format="ascii" RangeMin="4" RangeMax="64">
          4 8 12 16 20 24
          28 32 36 40 44 48
          52 56 60 64
        </DataArray>
        <DataArray type="UInt8" Name="types" format="ascii" RangeMin="9" RangeMax="9">
          9 9 9 9 9 9
          9 9 9 9 9 9
          9 9 9 9
        </DataArray>
      </Cells>
    </Piece>
  </UnstructuredGrid>
</VTKFile>
