<?xml version="1.0"?>
<VTKFile type="UnstructuredGrid" version="0.1" byte_order="LittleEndian" header_type="UInt32" compressor="vtkZLibDataCompressor">
  <UnstructuredGrid>
    <Piece NumberOfPoints="44" NumberOfCells="60">
      <PointData>
        <DataArray type="Float64" Name="Density" format="ascii" RangeMin="0.9307281120403247" RangeMax="1.7">
          1.7 1.6886350212399883 1.7 1.691971576936438 1.2422078585475318 1.2776956973057736
          1.7 1.6827309900790204 0.9307281120403247 1.2673486359467458 1.1364235053290006 1.7
          1.6818789342919458 1.0933123729638112 1.268146813737999 1.0962824162306144 1.7 1.6778085184998004
          1.2651549252610281 1.0944047547583018 1.7 1.6672300829455253 1.2560999709690148 1.0901502888945938
          1.7 1.6412251799688695 1.2329689117379188 1.077969565221451 1.7 1.5848639581592348
          1.1862008867370972 1.0517395051484884 1.7 1.4740982420792508 1.1135558568978698 1.0129527709043966
          1.7 1.280964869643573 1.0350583109078564 0.9850358323149349 1 1
          1 1
        </DataArray>
        <DataArray type="Float64" Name="Momentum" NumberOfComponents="3" format="ascii" RangeMin="2.6216498886031547" RangeMax="4.75823011784506">
          4.4528099999999995 -0.86071 0 4.701755006501171 -0.6380630008791106 0
          4.4528099999999995 -0.86071 0 4.715875078212271 -0.6334635751676795 0
          3.5789205444653263 -0.20709686230764413 0 3.6910642848725286 -0.22819334781814885 0
          4.4528099999999995 -0.86071 0 4.686955400741229 -0.6258083262342172 0
          2.620363910282698 0.08210430013648573 0 3.6573974010841557 -0.22297910354850264 0
          3.3116943491440147 0 0 4.4528099999999995 -0.86071 0
          4.683984715608892 -0.6251914133627345 0 3.169304296989269 0 0
          3.660204157223765 -0.22298541560642945 0 3.179354578388469 0 0
          4.4528099999999995 -0.86071 0 4.670066310977809 -0.6219431651996786 0
          3.6502448970227204 -0.22088176387213712 0 3.172895973124806 0 0
          4.4528099999999995 -0.86071 0 4.634877368298621 -0.6122552842807608 0
          3.62096734630329 -0.21390203984032857 0 3.159358190740075 0 0
          4.4528099999999995 -0.86071 0 4.552496019436753 -0.5853354002222364 0
          3.548755536806744 -0.1948200742515183 0 3.12156403389957 0 0
          4.4528099999999995 -0.86071 0 4.386386014072654 -0.5230015242817704 0
          3.4098629145130905 -0.15358809057897727 0 3.0430947125930903 0 0
          4.4528099999999995 -0.86071 0 4.085726318061004 -0.40494037467612437 0
          3.20655618978761 -0.08734639904205264 0 2.9322747776032134 0 0
          4.4528099999999995 -0.86071 0 3.5942054694979753 -0.2246907390915057 0
          2.9972758123951313 -0.01941123271574601 0 2.8571010972673387 0 0
          2.9 0 0 2.9 0 0
          2.9 0 0 2.9 0 0
          <InformationKey name="L2_NORM_RANGE" location="vtkDataArray" length="2">
            <Value index="0">
              2.6216498886
            </Value>
            <Value index="1">
              4.7582301178
            </Value>
          </InformationKey>
        </DataArray>
        <DataArray type="Float64" Name="Energy" format="ascii" RangeMin="4.308020771840825" RangeMax="8.300355934778965">
          7.585636452999999 8.270112709477207 7.585636452999999 8.300355934778965 6.182626774380875 6.405746675667855
          7.585636452999999 8.242142569361587 4.308020771840825 6.338581018095759 5.694772722810772 7.585636452999999
          8.235938328619701 5.412212930056356 6.344203465996212 5.431852614425841 7.585636452999999 8.20682235331238
          6.323861088848667 5.418940830589731 7.585636452999999 8.133650430035257 6.264589284625212 5.3925684119968595
          7.585636452999999 7.965009468834721 6.120415881682402 5.319887683263601 7.585636452999999 7.6343869734182945
          5.849375206126481 5.172213364245576 7.585636452999999 7.059621237008651 5.465989917368097 4.970431640300877
          7.585636452999999 6.158366447312181 5.088684318263991 4.841509911584718 4.923 4.923
          4.923 4.923
        </DataArray>
      </PointData>
      <CellData>
        <DataArray type="UInt8" Name="vtkGhostType" format="ascii" RangeMin="0" RangeMax="0">
          0 0 0 0 0 0
          0 0 0 0 0 0
          0 0 0 0 0 0
          0 0 0 0 0 0
          0 0 0 0 0 0
          0 0 0 0 0 0
          0 0 0 0 0 0
          0 0 0 0 0 0
          0 0 0 0 0 0
          0 0 0 0 0 0
        </DataArray>
      </CellData>
      <Points>
        <DataArray type="Float32" Name="Points" NumberOfComponents="3" format="ascii" RangeMin="0" RangeMax="4.2201894765504395">
          4.099999904632568 1 0 4.099999904632568 0.6666666865348816 0
          3.690000057220459 1 0 3.690000057220459 0.6666666865348816 0
          4.099999904632568 0.3333333134651184 0 3.690000057220459 0.3333333134651184 0
          3.2799999713897705 1 0 3.2799999713897705 0.6666666865348816 0
          4.099999904632568 0 0 3.2799999713897705 0.3333333134651184 0
          3.690000057220459 0 0 2.869999885559082 1 0
          2.869999885559082 0.6666666865348816 0 3.2799999713897705 0 0
          2.869999885559082 0.3333333134651184 0 2.869999885559082 0 0
          2.4600000381469727 1 0 2.4600000381469727 0.6666666865348816 0
          2.4600000381469727 0.3333333134651184 0 2.4600000381469727 0 0
          2.049999952316284 1 0 2.049999952316284 0.6666666865348816 0
          2.049999952316284 0.3333333134651184 0 2.049999952316284 0 0
          1.6399999856948853 1 0 1.6399999856948853 0.6666666865348816 0
          1.6399999856948853 0.3333333134651184 0 1.6399999856948853 0 0
          1.2300000190734863 1 0 1.2300000190734863 0.6666666865348816 0
          1.2300000190734863 0.3333333134651184 0 1.2300000190734863 0 0
          0.8199999928474426 1 0 0.8199999928474426 0.6666666865348816 0
          0.8199999928474426 0.3333333134651184 0 0.8199999928474426 0 0
          0.4099999964237213 1 0 0.4099999964237213 0.6666666865348816 0
          0.4099999964237213 0.3333333134651184 0 0.4099999964237213 0 0
          0 1 0 0 0.6666666865348816 0
          0 0.3333333134651184 0 0 0 0
          <InformationKey name="L2_NORM_RANGE" location="vtkDataArray" length="2">
            <Value index="0">
              0
            </Value>
            <Value index="1">
              4.2201894766
            </Value>
          </InformationKey>
        </DataArray>
      </Points>
      <Cells>
        <DataArray type="Int64" Name="connectivity" format="ascii" RangeMin="0" RangeMax="43">
          39 38 43 38 42 43
          35 34 39 34 38 39
          31 30 35 30 34 35
          27 26 31 26 30 31
          23 22 27 22 26 27
          19 18 23 18 22 23
          15 14 19 14 18 19
          13 9 15 9 14 15
          10 5 13 5 9 13
          8 4 10 4 5 10
          38 37 42 37 41 42
          34 33 38 33 37 38
          30 29 34 29 33 34
          26 25 30 25 29 30
          22 21 26 21 25 26
          18 17 22 17 21 22
          14 12 18 12 17 18
          9 7 14 7 12 14
          5 3 9 3 7 9
          4 1 5 1 3 5
          37 36 41 36 40 41
          33 32 37 32 36 37
          29 28 33 28 32 33
          25 24 29 24 28 29
          21 20 25 20 24 25
          17 16 21 16 20 21
          12 11 17 11 16 17
          7 6 12 6 11 12
          3 2 7 2 6 7
          1 0 3 0 2 3
        </DataArray>
        <DataArray type="Int64" Name="offsets" format="ascii" RangeMin="3" RangeMax="180">
          3 6 9 12 15 18
          21 24 27 30 33 36
          39 42 45 48 51 54
          57 60 63 66 69 72
          75 78 81 84 87 90
          93 96 99 102 105 108
          111 114 117 120 123 126
          129 132 135 138 141 144
          147 150 153 156 159 162
          165 168 171 174 177 180
        </DataArray>
        <DataArray type="UInt8" Name="types" format="ascii" RangeMin="5" RangeMax="5">
          5 5 5 5 5 5
          5 5 5 5 5 5
          5 5 5 5 5 5
          5 5 5 5 5 5
          5 5 5 5 5 5
          5 5 5 5 5 5
          5 5 5 5 5 5
          5 5 5 5 5 5
          5 5 5 5 5 5
          5 5 5 5 5 5
        </DataArray>
      </Cells>
    </Piece>
  </UnstructuredGrid>
</VTKFile>
