<?xml version="1.0"?>
<VTKFile type="UnstructuredGrid" version="0.1" byte_order="LittleEndian" header_type="UInt32" compressor="vtkZLibDataCompressor">
  <UnstructuredGrid>
    <Piece NumberOfPoints="44" NumberOfCells="60">
      <PointData>
        <DataArray type="Float64" Name="Density" format="ascii" RangeMin="0.9432556377832835" RangeMax="1.7">
          1.7 1.6139630768809354 1.7 1.6215199861295826 1.171911078532067 1.2048106762618627
          1.7 1.612211704737291 0.9432556377832835 1.1968601577284907 1.0810209374286601 1.7
          1.6121819101997983 1.0529022494876055 1.1978550368992547 1.0543777827321206 1.7 1.6101582155973797
          1.196916979313197 1.0537473126112806 1.7 1.6043962608283227 1.193350323712868 1.0525492681407527
          1.7 1.5873230292307168 1.1818817116124498 1.0480975530744445 1.7 1.54451594368301
          1.153390251166678 1.035833452001317 1.7 1.4509571693818586 1.1004277019353637 1.0128330164298778
          1.7 1.274062387090329 1.0338858027220499 0.9911442651314313 1 1
          1 1
        </DataArray>
        <DataArray type="Float64" Name="Momentum" NumberOfComponents="3" format="ascii" RangeMin="2.6867299428757083" RangeMax="4.574556874297835">
          4.4528099999999995 -0.86071 0 4.516115143390753 -0.5636580598071542 0
          4.4528099999999995 -0.86071 0 4.5395200708417915 -0.5650912515781132 0
          3.3844904505576316 -0.14282573049458094 0 3.4849396292380006 -0.16470313901084044 0
          4.4528099999999995 -0.86071 0 4.510237724592741 -0.5577189596195807 0
          2.686190551318351 0.053834077988965376 0 3.459589911172171 -0.1607535206698815 0
          3.1445943910261716 0 0 4.4528099999999995 -0.86071 0
          4.510157576917688 -0.5577016658842763 0 3.052846618426571 0 0
          3.463147203465085 -0.1608707245974979 0 3.057961185272792 0 0
          4.4528099999999995 -0.86071 0 4.50324007565469 -0.5561474463967812 0
          3.459987731123844 -0.16024095848717218 0 3.055664321687607 0 0
          4.4528099999999995 -0.86071 0 4.483928053149 -0.5511052513775253 0
          3.4483780857516106 -0.15752573882073423 0 3.051848097293616 0 0
          4.4528099999999995 -0.86071 0 4.428960658617436 -0.5343129503074966 0
          3.4120678533465227 -0.14828270669844754 0 3.0379286710507816 0 0
          4.4528099999999995 -0.86071 0 4.299614689969418 -0.4886474557363665 0
          3.3256499928182044 -0.12385678440893699 0 3.0006795571507636 0 0
          4.4528099999999995 -0.86071 0 4.038897541594349 -0.38946918007316766 0
          3.1737723741329815 -0.07676229325257204 0 2.9336064736959027 0 0
          4.4528099999999995 -0.86071 0 3.5809689899241444 -0.22153522063343625 0
          2.9931196947238976 -0.0198186488977397 0 2.8737905127288808 0 0
          2.9 0 0 2.9 0 0
          2.9 0 0 2.9 0 0
          <InformationKey name="L2_NORM_RANGE" location="vtkDataArray" length="2">
            <Value index="0">
              2.6867299429
            </Value>
            <Value index="1">
              4.5745568743
            </Value>
          </InformationKey>
        </DataArray>
        <DataArray type="Float64" Name="Energy" format="ascii" RangeMin="4.469067312436584" RangeMax="7.974173817522091">
          7.585636452999999 7.926423447488767 7.585636452999999 7.974173817522091 5.815837185327526 6.014143722398691
          7.585636452999999 7.915526098260202 4.469067312436584 5.96395102228719 5.380808740126021 7.585636452999999
          7.915407158038797 5.199652297814611 5.971102891594366 5.209638107527008 7.585636452999999 7.900990806927383
          5.964659074800634 5.205004054390577 7.585636452999999 7.860805579912787 5.9412193351666485 5.197631983143982
          7.585636452999999 7.747866302975945 5.8686875424754295 5.170945361998735 7.585636452999999 7.488375597788213
          5.699290861854726 5.100635076285931 7.585636452999999 6.984659847517809 5.410538966904514 4.977280288646093
          7.585636452999999 6.138090688729419 5.08189379455495 4.872323882298543 4.923 4.923
          4.923 4.923
        </DataArray>
      </PointData>
      <CellData>
        <DataArray type="UInt8" Name="vtkGhostType" format="ascii" RangeMin="0" RangeMax="0">
          0 0 0 0 0 0
          0 0 0 0 0 0
          0 0 0 0 0 0
          0 0 0 0 0 0
          0 0 0 0 0 0
          0 0 0 0 0 0
          0 0 0 0 0 0
          0 0 0 0 0 0
          0 0 0 0 0 0
          0 0 0 0 0 0
        </DataArray>
      </CellData>
      <Points>
        <DataArray type="Float32" Name="Points" NumberOfComponents="3" format="ascii" RangeMin="0" RangeMax="4.2201894765504395">
          4.099999904632568 1 0 4.099999904632568 0.6666666865348816 0
          3.690000057220459 1 0 3.690000057220459 0.6666666865348816 0
          4.099999904632568 0.3333333134651184 0 3.690000057220459 0.3333333134651184 0
          3.2799999713897705 1 0 3.2799999713897705 0.6666666865348816 0
          4.099999904632568 0 0 3.2799999713897705 0.3333333134651184 0
          3.690000057220459 0 0 2.869999885559082 1 0
          2.869999885559082 0.6666666865348816 0 3.2799999713897705 0 0
          2.869999885559082 0.3333333134651184 0 2.869999885559082 0 0
          2.4600000381469727 1 0 2.4600000381469727 0.6666666865348816 0
          2.4600000381469727 0.3333333134651184 0 2.4600000381469727 0 0
          2.049999952316284 1 0 2.049999952316284 0.6666666865348816 0
          2.049999952316284 0.3333333134651184 0 2.049999952316284 0 0
          1.6399999856948853 1 0 1.6399999856948853 0.6666666865348816 0
          1.6399999856948853 0.3333333134651184 0 1.6399999856948853 0 0
          1.2300000190734863 1 0 1.2300000190734863 0.6666666865348816 0
          1.2300000190734863 0.3333333134651184 0 1.2300000190734863 0 0
          0.8199999928474426 1 0 0.8199999928474426 0.6666666865348816 0
          0.8199999928474426 0.3333333134651184 0 0.8199999928474426 0 0
          0.4099999964237213 1 0 0.4099999964237213 0.6666666865348816 0
          0.4099999964237213 0.3333333134651184 0 0.4099999964237213 0 0
          0 1 0 0 0.6666666865348816 0
          0 0.3333333134651184 0 0 0 0
          <InformationKey name="L2_NORM_RANGE" location="vtkDataArray" length="2">
            <Value index="0">
              0
            </Value>
            <Value index="1">
              4.2201894766
            </Value>
          </InformationKey>
        </DataArray>
      </Points>
      <Cells>
        <DataArray type="Int64" Name="connectivity" format="ascii" RangeMin="0" RangeMax="43">
          39 38 43 38 42 43
          35 34 39 34 38 39
          31 30 35 30 34 35
          27 26 31 26 30 31
          23 22 27 22 26 27
          19 18 23 18 22 23
          15 14 19 14 18 19
          13 9 15 9 14 15
          10 5 13 5 9 13
          8 4 10 4 5 10
          38 37 42 37 41 42
          34 33 38 33 37 38
          30 29 34 29 33 34
          26 25 30 25 29 30
          22 21 26 21 25 26
          18 17 22 17 21 22
          14 12 18 12 17 18
          9 7 14 7 12 14
          5 3 9 3 7 9
          4 1 5 1 3 5
          37 36 41 36 40 41
          33 32 37 32 36 37
          29 28 33 28 32 33
          25 24 29 24 28 29
          21 20 25 20 24 25
          17 16 21 16 20 21
          12 11 17 11 16 17
          7 6 12 6 11 12
          3 2 7 2 6 7
          1 0 3 0 2 3
        </DataArray>
        <DataArray type="Int64" Name="offsets" format="ascii" RangeMin="3" RangeMax="180">
          3 6 9 12 15 18
          21 24 27 30 33 36
          39 42 45 48 51 54
          57 60 63 66 69 72
          75 78 81 84 87 90
          93 96 99 102 105 108
          111 114 117 120 123 126
          129 132 135 138 141 144
          147 150 153 156 159 162
          165 168 171 174 177 180
        </DataArray>
        <DataArray type="UInt8" Name="types" format="ascii" RangeMin="5" RangeMax="5">
          5 5 5 5 5 5
          5 5 5 5 5 5
          5 5 5 5 5 5
          5 5 5 5 5 5
          5 5 5 5 5 5
          5 5 5 5 5 5
          5 5 5 5 5 5
          5 5 5 5 5 5
          5 5 5 5 5 5
          5 5 5 5 5 5
        </DataArray>
      </Cells>
    </Piece>
  </UnstructuredGrid>
</VTKFile>
