<?xml version="1.0"?>
<VTKFile type="UnstructuredGrid" version="0.1" byte_order="LittleEndian" header_type="UInt32" compressor="vtkZLibDataCompressor">
  <UnstructuredGrid>
    <Piece NumberOfPoints="44" NumberOfCells="60">
      <PointData>
        <DataArray type="Float64" Name="Density" format="ascii" RangeMin="0.9937540649198817" RangeMax="1.7">
          1.7 1.1048038549446333 1.7 1.1218583560537243 0.9937540649198817 0.9991296426707291
          1.7 1.120443028367212 0.9990876245526753 0.9998207593443981 1.0000762148470879 1.7
          1.1208253483892343 1.0000792554974252 0.9996988257860495 1.0000048529582886 1.7 1.1207317494977387
          0.999726491840206 0.9999971875448728 1.7 1.1207317494977387 0.999726491840206 0.9999971875448728
          1.7 1.1207317494977387 0.999726491840206 0.9999971875448728 1.7 1.1206555583253224
          0.999726491840206 0.9999971875448728 1.7 1.1200920509210033 0.9997105732152773 0.9999971875448728
          1.7 1.109534931708415 0.9996886560778445 1.0000007063147118 1 1
          1 1
        </DataArray>
        <DataArray type="Float64" Name="Momentum" NumberOfComponents="3" format="ascii" RangeMin="2.881720058972736" RangeMax="4.535233026008696">
          4.4528099999999995 -0.86071 0 3.1820631021754537 -0.0878029472886571 0
          4.4528099999999995 -0.86071 0 3.2283973301874656 -0.10364935395599466 0
          2.8817144911109716 0.005664804221134693 0 2.8975089588682996 0.0011704865660544742 0
          4.4528099999999995 -0.86071 0 3.223053612247313 -0.1034966946216826 0
          2.896551769635892 0.00030521393348953473 0 2.8995509591833453 0.0003347494700372413 0
          2.900237269614571 0 0 4.4528099999999995 -0.86071 0
          3.224319861052794 -0.10376051443245246 0 2.9002465365843846 0 0
          2.899189497047795 0.00042789340958584467 0 2.9000147140042145 0 0
          4.4528099999999995 -0.86071 0 3.2240062923349386 -0.10371056627240785 0
          2.899273880490892 0.0004028842560954032 0 2.899991848512019 0 0
          4.4528099999999995 -0.86071 0 3.2240062923349386 -0.1037105662724079 0
          2.8992738804908926 0.0004028842560953882 0 2.899991848512019 0 0
          4.4528099999999995 -0.86071 0 3.2240062923349386 -0.10371056627240788 0
          2.899273880490892 0.0004028842560953662 0 2.899991848512019 0 0
          4.4528099999999995 -0.86071 0 3.2237506393633586 -0.10365586660668026 0
          2.899273880490892 0.0004028842560953698 0 2.899991848512019 0 0
          4.4528099999999995 -0.86071 0 3.221941378071673 -0.10314759245239122 0
          2.899231618700887 0.00041431178548326036 0 2.899991848512019 0 0
          4.4528099999999995 -0.86071 0 3.190296940163386 -0.09322597164577705 0
          2.8991996043988295 0.00039970771307985885 0 2.9000025386067763 0 0
          2.9 0 0 2.9 0 0
          2.9 0 0 2.9 0 0
          <InformationKey name="L2_NORM_RANGE" location="vtkDataArray" length="2">
            <Value index="0">
              2.881720059
            </Value>
            <Value index="1">
              4.535233026
            </Value>
          </InformationKey>
        </DataArray>
        <DataArray type="Float64" Name="Energy" format="ascii" RangeMin="4.886698741698416" RangeMax="7.585636452999999">
          7.585636452999999 5.441886294178239 7.585636452999999 5.530970010636686 4.886698741698416 4.917944293224672
          7.585636452999999 5.5203525298953755 4.915972819027715 4.922008663229631 4.923420755040529 7.585636452999999
          5.522911056500587 4.923459393232007 4.921350481355135 4.923027108734613 7.585636452999999 5.522290590243616
          4.921509939966314 4.922985290218339 7.585636452999999 5.522290590243617 4.921509939966314 4.922985290218339
          7.585636452999999 5.522290590243617 4.921509939966314 4.922985290218339 7.585636452999999 5.521770103198753
          4.921509939966314 4.922985290218339 7.585636452999999 5.518110595528589 4.921440604757956 4.922985290218339
          7.585636452999999 5.455994400391874 4.921445798012004 4.923005808972844 4.923 4.923
          4.923 4.923
        </DataArray>
      </PointData>
      <CellData>
        <DataArray type="UInt8" Name="vtkGhostType" format="ascii" RangeMin="0" RangeMax="0">
          0 0 0 0 0 0
          0 0 0 0 0 0
          0 0 0 0 0 0
          0 0 0 0 0 0
          0 0 0 0 0 0
          0 0 0 0 0 0
          0 0 0 0 0 0
          0 0 0 0 0 0
          0 0 0 0 0 0
          0 0 0 0 0 0
        </DataArray>
      </CellData>
      <Points>
        <DataArray type="Float32" Name="Points" NumberOfComponents="3" format="ascii" RangeMin="0" RangeMax="4.2201894765504395">
          4.099999904632568 1 0 4.099999904632568 0.6666666865348816 0
          3.690000057220459 1 0 3.690000057220459 0.6666666865348816 0
          4.099999904632568 0.3333333134651184 0 3.690000057220459 0.3333333134651184 0
          3.2799999713897705 1 0 3.2799999713897705 0.6666666865348816 0
          4.099999904632568 0 0 3.2799999713897705 0.3333333134651184 0
          3.690000057220459 0 0 2.869999885559082 1 0
          2.869999885559082 0.6666666865348816 0 3.2799999713897705 0 0
          2.869999885559082 0.3333333134651184 0 2.869999885559082 0 0
          2.4600000381469727 1 0 2.4600000381469727 0.6666666865348816 0
          2.4600000381469727 0.3333333134651184 0 2.4600000381469727 0 0
          2.049999952316284 1 0 2.049999952316284 0.6666666865348816 0
          2.049999952316284 0.3333333134651184 0 2.049999952316284 0 0
          1.6399999856948853 1 0 1.6399999856948853 0.6666666865348816 0
          1.6399999856948853 0.3333333134651184 0 1.6399999856948853 0 0
          1.2300000190734863 1 0 1.2300000190734863 0.6666666865348816 0
          1.2300000190734863 0.3333333134651184 0 1.2300000190734863 0 0
          0.8199999928474426 1 0 0.8199999928474426 0.6666666865348816 0
          0.8199999928474426 0.3333333134651184 0 0.8199999928474426 0 0
          0.4099999964237213 1 0 0.4099999964237213 0.6666666865348816 0
          0.4099999964237213 0.3333333134651184 0 0.4099999964237213 0 0
          0 1 0 0 0.6666666865348816 0
          0 0.3333333134651184 0 0 0 0
          <InformationKey name="L2_NORM_RANGE" location="vtkDataArray" length="2">
            <Value index="0">
              0
            </Value>
            <Value index="1">
              4.2201894766
            </Value>
          </InformationKey>
        </DataArray>
      </Points>
      <Cells>
        <DataArray type="Int64" Name="connectivity" format="ascii" RangeMin="0" RangeMax="43">
          39 38 43 38 42 43
          35 34 39 34 38 39
          31 30 35 30 34 35
          27 26 31 26 30 31
          23 22 27 22 26 27
          19 18 23 18 22 23
          15 14 19 14 18 19
          13 9 15 9 14 15
          10 5 13 5 9 13
          8 4 10 4 5 10
          38 37 42 37 41 42
          34 33 38 33 37 38
          30 29 34 29 33 34
          26 25 30 25 29 30
          22 21 26 21 25 26
          18 17 22 17 21 22
          14 12 18 12 17 18
          9 7 14 7 12 14
          5 3 9 3 7 9
          4 1 5 1 3 5
          37 36 41 36 40 41
          33 32 37 32 36 37
          29 28 33 28 32 33
          25 24 29 24 28 29
          21 20 25 20 24 25
          17 16 21 16 20 21
          12 11 17 11 16 17
          7 6 12 6 11 12
          3 2 7 2 6 7
          1 0 3 0 2 3
        </DataArray>
        <DataArray type="Int64" Name="offsets" format="ascii" RangeMin="3" RangeMax="180">
          3 6 9 12 15 18
          21 24 27 30 33 36
          39 42 45 48 51 54
          57 60 63 66 69 72
          75 78 81 84 87 90
          93 96 99 102 105 108
          111 114 117 120 123 126
          129 132 135 138 141 144
          147 150 153 156 159 162
          165 168 171 174 177 180
        </DataArray>
        <DataArray type="UInt8" Name="types" format="ascii" RangeMin="5" RangeMax="5">
          5 5 5 5 5 5
          5 5 5 5 5 5
          5 5 5 5 5 5
          5 5 5 5 5 5
          5 5 5 5 5 5
          5 5 5 5 5 5
          5 5 5 5 5 5
          5 5 5 5 5 5
          5 5 5 5 5 5
          5 5 5 5 5 5
        </DataArray>
      </Cells>
    </Piece>
  </UnstructuredGrid>
</VTKFile>
