<?xml version="1.0"?>
<VTKFile type="UnstructuredGrid" version="0.1" byte_order="LittleEndian" header_type="UInt32" compressor="vtkZLibDataCompressor">
  <UnstructuredGrid>
    <Piece NumberOfPoints="44" NumberOfCells="60">
      <PointData>
        <DataArray type="Float64" Name="Density" format="ascii" RangeMin="0.92200653834894" RangeMax="1.8030813264146088">
          1.7 1.8030813264146088 1.7 1.801978365423296 1.399477263290019 1.4412403572504753
          1.7 1.793058804908086 0.92200653834894 1.4243197261666745 1.3065151315762373 1.7
          1.7887490988155965 1.2212702152976345 1.4208664702891576 1.2261692352237903 1.7 1.7780295826063737
          1.4064822676629072 1.2148959769223613 1.7 1.756236241613726 1.3756700924949739 1.1918669334138807
          1.7 1.7145008406543214 1.3190955632320844 1.1465867979048134 1.7 1.637865041601123
          1.233211842437048 1.0776888993476683 1.7 1.5028015810036746 1.1284341117918808 1.0050998503951345
          1.7 1.2883389154169134 1.035265949309562 0.971929567030652 1 1
          1 1
        </DataArray>
        <DataArray type="Float64" Name="Momentum" NumberOfComponents="3" format="ascii" RangeMin="2.5110549474018127" RangeMax="5.035116621204179">
          4.4528099999999995 -0.86071 0 4.973730536757534 -0.7529651593536051 0
          4.4528099999999995 -0.86071 0 4.980509985894605 -0.739540174385887 0
          4.00926601390159 -0.3548656059633207 0 4.15042380881696 -0.3716252936194389 0
          4.4528099999999995 -0.86071 0 4.9523000487734326 -0.7320530508058947 0
          2.5053573807154215 0.16906017794230088 0 4.092968812707911 -0.362500749507324 0
          3.8247634857736608 0 0 4.4528099999999995 -0.86071 0
          4.9372360052416955 -0.7289195292281407 0 3.5368598791017916 0 0
          4.081423590715472 -0.3598127358839358 0 3.553283737988311 0 0
          4.4528099999999995 -0.86071 0 4.900802912147963 -0.7199155183092114 0
          4.034281411064322 -0.3496964539851725 0 3.516148481824463 0 0
          4.4528099999999995 -0.86071 0 4.829866399780607 -0.6980564406776518 0
          3.936988507612416 -0.32588191436595615 0 3.4438850149740516 0 0
          4.4528099999999995 -0.86071 0 4.703042040062986 -0.650418779652213 0
          3.7669179417572383 -0.27789225065647244 0 3.307185875129948 0 0
          4.4528099999999995 -0.86071 0 4.489308894346585 -0.5611470106320132 0
          3.523799190518738 -0.1989547604456787 0 3.1087377350787544 0 0
          4.4528099999999995 -0.86071 0 4.139649888875403 -0.41911639919320376 0
          3.2437231837053964 -0.0996565797276301 0 2.9094997326773138 0 0
          4.4528099999999995 -0.86071 0 3.6073003920851394 -0.22698401395511192 0
          3.0011420417352923 -0.017825011997292823 0 2.823193717313075 0 0
          2.9 0 0 2.9 0 0
          2.9 0 0 2.9 0 0
          <InformationKey name="L2_NORM_RANGE" location="vtkDataArray" length="2">
            <Value index="0">
              2.5110549474
            </Value>
            <Value index="1">
              5.0351166212
            </Value>
          </InformationKey>
        </DataArray>
        <DataArray type="Float64" Name="Energy" format="ascii" RangeMin="3.9719836639795134" RangeMax="8.781056268973602">
          7.585636452999999 8.764029466988982 7.585636452999999 8.781056268973602 7.003823312477283 7.285509482455199
          7.585636452999999 8.72351296948505 3.9719836639795134 7.16832095634276 6.668715181811478 7.585636452999999
          8.691834871815992 6.090460746529245 7.144453136487735 6.122045016830031 7.585636452999999 8.615662008302358
          7.047911987920425 6.0476777955684575 7.585636452999999 8.469008545806805 6.851301762479965 5.905847880811932
          7.585636452999999 8.212585289720813 6.514547848756612 5.6436071433443615 7.585636452999999 7.795581733814138
          6.04702412248714 5.275167862203101 7.585636452999999 7.141047728071093 5.5282648700966455 4.921331520317031
          7.585636452999999 6.177329639810667 5.096538873702291 4.780975571319943 4.923 4.923
          4.923 4.923
        </DataArray>
      </PointData>
      <CellData>
        <DataArray type="UInt8" Name="vtkGhostType" format="ascii" RangeMin="0" RangeMax="0">
          0 0 0 0 0 0
          0 0 0 0 0 0
          0 0 0 0 0 0
          0 0 0 0 0 0
          0 0 0 0 0 0
          0 0 0 0 0 0
          0 0 0 0 0 0
          0 0 0 0 0 0
          0 0 0 0 0 0
          0 0 0 0 0 0
        </DataArray>
      </CellData>
      <Points>
        <DataArray type="Float32" Name="Points" NumberOfComponents="3" format="ascii" RangeMin="0" RangeMax="4.2201894765504395">
          4.099999904632568 1 0 4.099999904632568 0.6666666865348816 0
          3.690000057220459 1 0 3.690000057220459 0.6666666865348816 0
          4.099999904632568 0.3333333134651184 0 3.690000057220459 0.3333333134651184 0
          3.2799999713897705 1 0 3.2799999713897705 0.6666666865348816 0
          4.099999904632568 0 0 3.2799999713897705 0.3333333134651184 0
          3.690000057220459 0 0 2.869999885559082 1 0
          2.869999885559082 0.6666666865348816 0 3.2799999713897705 0 0
          2.869999885559082 0.3333333134651184 0 2.869999885559082 0 0
          2.4600000381469727 1 0 2.4600000381469727 0.6666666865348816 0
          2.4600000381469727 0.3333333134651184 0 2.4600000381469727 0 0
          2.049999952316284 1 0 2.049999952316284 0.6666666865348816 0
          2.049999952316284 0.3333333134651184 0 2.049999952316284 0 0
          1.6399999856948853 1 0 1.6399999856948853 0.6666666865348816 0
          1.6399999856948853 0.3333333134651184 0 1.6399999856948853 0 0
          1.2300000190734863 1 0 1.2300000190734863 0.6666666865348816 0
          1.2300000190734863 0.3333333134651184 0 1.2300000190734863 0 0
          0.8199999928474426 1 0 0.8199999928474426 0.6666666865348816 0
          0.8199999928474426 0.3333333134651184 0 0.8199999928474426 0 0
          0.4099999964237213 1 0 0.4099999964237213 0.6666666865348816 0
          0.4099999964237213 0.3333333134651184 0 0.4099999964237213 0 0
          0 1 0 0 0.6666666865348816 0
          0 0.3333333134651184 0 0 0 0
          <InformationKey name="L2_NORM_RANGE" location="vtkDataArray" length="2">
            <Value index="0">
              0
            </Value>
            <Value index="1">
              4.2201894766
            </Value>
          </InformationKey>
        </DataArray>
      </Points>
      <Cells>
        <DataArray type="Int64" Name="connectivity" format="ascii" RangeMin="0" RangeMax="43">
          39 38 43 38 42 43
          35 34 39 34 38 39
          31 30 35 30 34 35
          27 26 31 26 30 31
          23 22 27 22 26 27
          19 18 23 18 22 23
          15 14 19 14 18 19
          13 9 15 9 14 15
          10 5 13 5 9 13
          8 4 10 4 5 10
          38 37 42 37 41 42
          34 33 38 33 37 38
          30 29 34 29 33 34
          26 25 30 25 29 30
          22 21 26 21 25 26
          18 17 22 17 21 22
          14 12 18 12 17 18
          9 7 14 7 12 14
          5 3 9 3 7 9
          4 1 5 1 3 5
          37 36 41 36 40 41
          33 32 37 32 36 37
          29 28 33 28 32 33
          25 24 29 24 28 29
          21 20 25 20 24 25
          17 16 21 16 20 21
          12 11 17 11 16 17
          7 6 12 6 11 12
          3 2 7 2 6 7
          1 0 3 0 2 3
        </DataArray>
        <DataArray type="Int64" Name="offsets" format="ascii" RangeMin="3" RangeMax="180">
          3 6 9 12 15 18
          21 24 27 30 33 36
          39 42 45 48 51 54
          57 60 63 66 69 72
          75 78 81 84 87 90
          93 96 99 102 105 108
          111 114 117 120 123 126
          129 132 135 138 141 144
          147 150 153 156 159 162
          165 168 171 174 177 180
        </DataArray>
        <DataArray type="UInt8" Name="types" format="ascii" RangeMin="5" RangeMax="5">
          5 5 5 5 5 5
          5 5 5 5 5 5
          5 5 5 5 5 5
          5 5 5 5 5 5
          5 5 5 5 5 5
          5 5 5 5 5 5
          5 5 5 5 5 5
          5 5 5 5 5 5
          5 5 5 5 5 5
          5 5 5 5 5 5
        </DataArray>
      </Cells>
    </Piece>
  </UnstructuredGrid>
</VTKFile>
