<?xml version="1.0"?>
<VTKFile type="UnstructuredGrid" version="0.1" byte_order="LittleEndian" header_type="UInt32" compressor="vtkZLibDataCompressor">
  <UnstructuredGrid>
    <Piece NumberOfPoints="44" NumberOfCells="60">
      <PointData>
        <DataArray type="Float64" Name="Density" format="ascii" RangeMin="0.9841637237271106" RangeMax="1.7">
          1.7 1.3264017262125507 1.7 1.3485949494501572 1.0229850739689643 1.0434955124511927
          1.7 1.3423599200268217 0.9841637237271106 1.0419150672133999 1.0058344892970936 1.7
          1.3429791461942353 1.0025983258141766 1.041858491694911 1.002128478306194 1.7 1.342676046436814
          1.041880680816352 1.002111801878607 1.7 1.3425650045396598 1.04186128571687 1.0021165287796725
          1.7 1.3416487848447967 1.0417286271055244 1.0021051505139156 1.7 1.3361062994056832
          1.0407789670562417 1.0020325269240578 1.7 1.3101455663117485 1.035693180898301 1.001579879572646
          1.7 1.220028815250678 1.0192353699414916 0.9999026930347741 1 1
          1 1
        </DataArray>
        <DataArray type="Float64" Name="Momentum" NumberOfComponents="3" format="ascii" RangeMin="2.8471279902887177" RangeMax="4.535233026008696">
          4.4528099999999995 -0.86071 0 3.772789728417902 -0.2869323112322494 0
          4.4528099999999995 -0.86071 0 3.8324595541899016 -0.30653960084662024 0
          2.965771821730813 -0.015208356793425332 0 3.025363085197015 -0.03132561427331858 0
          4.4528099999999995 -0.86071 0 3.8118309282869207 -0.30285430982850475 0
          2.8471111643445544 0.009788306802965597 0 3.020423649095634 -0.030827098188307617 0
          2.9179137970162214 0 0 4.4528099999999995 -0.86071 0
          3.81399315895045 -0.3032620106471291 0 2.9076633249858967 0 0
          3.02049654926514 -0.03044840840611346 0 2.906216649837487 0 0
          4.4528099999999995 -0.86071 0 3.8129814793372416 -0.30306913756287784 0
          3.020553023244172 -0.030467497019851006 0 2.9061276044835633 0 0
          4.4528099999999995 -0.86071 0 3.8126017683822244 -0.3029860348769394 0
          3.0204920587463544 -0.030450469896332478 0 2.9061390960847158 0 0
          4.4528099999999995 -0.86071 0 3.8095398094605666 -0.3022399313210423 0
          3.02006908654826 -0.030354594576720146 0 2.90610496011905 0 0
          4.4528099999999995 -0.86071 0 3.791681995621466 -0.2971901342053446 0
          3.017081563605122 -0.029654288780969047 0 2.905888713803686 0 0
          4.4528099999999995 -0.86071 0 3.713203225351039 -0.27161894267688536 0
          3.001527479991063 -0.025731699831775524 0 2.9045369156188108 0 0
          4.4528099999999995 -0.86071 0 3.463487093564723 -0.18458059794625947 0
          2.9536720578294444 -0.012735170146087216 0 2.899602544327769 0 0
          2.9 0 0 2.9 0 0
          2.9 0 0 2.9 0 0
          <InformationKey name="L2_NORM_RANGE" location="vtkDataArray" length="2">
            <Value index="0">
              2.8471279903
            </Value>
            <Value index="1">
              4.535233026
            </Value>
          </InformationKey>
        </DataArray>
        <DataArray type="Float64" Name="Energy" format="ascii" RangeMin="4.818548284083983" RangeMax="7.585636452999999">
          7.585636452999999 6.539787907925851 7.585636452999999 6.655806932195831 5.037139387849022 5.152852704109882
          7.585636452999999 6.614879383730469 4.818548284083983 5.143061954868187 4.957295245047855 7.585636452999999
          6.619358717573947 4.937106663026139 5.143236433147134 4.934226082045483 7.585636452999999 6.617326329287951
          5.143318220725299 4.934013958681918 7.585636452999999 6.616537913912153 5.1431987178034415 4.934033007811503
          7.585636452999999 6.610232773126975 5.142372587581322 4.933971087028198 7.585636452999999 6.573872739036002
          5.136565090900847 4.933578547971109 7.585636452999999 6.417998219305387 5.106678367040848 4.931110678340056
          7.585636452999999 5.94270287478834 5.017327835411994 4.922134374435185 4.923 4.923
          4.923 4.923
        </DataArray>
      </PointData>
      <CellData>
        <DataArray type="UInt8" Name="vtkGhostType" format="ascii" RangeMin="0" RangeMax="0">
          0 0 0 0 0 0
          0 0 0 0 0 0
          0 0 0 0 0 0
          0 0 0 0 0 0
          0 0 0 0 0 0
          0 0 0 0 0 0
          0 0 0 0 0 0
          0 0 0 0 0 0
          0 0 0 0 0 0
          0 0 0 0 0 0
        </DataArray>
      </CellData>
      <Points>
        <DataArray type="Float32" Name="Points" NumberOfComponents="3" format="ascii" RangeMin="0" RangeMax="4.2201894765504395">
          4.099999904632568 1 0 4.099999904632568 0.6666666865348816 0
          3.690000057220459 1 0 3.690000057220459 0.6666666865348816 0
          4.099999904632568 0.3333333134651184 0 3.690000057220459 0.3333333134651184 0
          3.2799999713897705 1 0 3.2799999713897705 0.6666666865348816 0
          4.099999904632568 0 0 3.2799999713897705 0.3333333134651184 0
          3.690000057220459 0 0 2.869999885559082 1 0
          2.869999885559082 0.6666666865348816 0 3.2799999713897705 0 0
          2.869999885559082 0.3333333134651184 0 2.869999885559082 0 0
          2.4600000381469727 1 0 2.4600000381469727 0.6666666865348816 0
          2.4600000381469727 0.3333333134651184 0 2.4600000381469727 0 0
          2.049999952316284 1 0 2.049999952316284 0.6666666865348816 0
          2.049999952316284 0.3333333134651184 0 2.049999952316284 0 0
          1.6399999856948853 1 0 1.6399999856948853 0.6666666865348816 0
          1.6399999856948853 0.3333333134651184 0 1.6399999856948853 0 0
          1.2300000190734863 1 0 1.2300000190734863 0.6666666865348816 0
          1.2300000190734863 0.3333333134651184 0 1.2300000190734863 0 0
          0.8199999928474426 1 0 0.8199999928474426 0.6666666865348816 0
          0.8199999928474426 0.3333333134651184 0 0.8199999928474426 0 0
          0.4099999964237213 1 0 0.4099999964237213 0.6666666865348816 0
          0.4099999964237213 0.3333333134651184 0 0.4099999964237213 0 0
          0 1 0 0 0.6666666865348816 0
          0 0.3333333134651184 0 0 0 0
          <InformationKey name="L2_NORM_RANGE" location="vtkDataArray" length="2">
            <Value index="0">
              0
            </Value>
            <Value index="1">
              4.2201894766
            </Value>
          </InformationKey>
        </DataArray>
      </Points>
      <Cells>
        <DataArray type="Int64" Name="connectivity" format="ascii" RangeMin="0" RangeMax="43">
          39 38 43 38 42 43
          35 34 39 34 38 39
          31 30 35 30 34 35
          27 26 31 26 30 31
          23 22 27 22 26 27
          19 18 23 18 22 23
          15 14 19 14 18 19
          13 9 15 9 14 15
          10 5 13 5 9 13
          8 4 10 4 5 10
          38 37 42 37 41 42
          34 33 38 33 37 38
          30 29 34 29 33 34
          26 25 30 25 29 30
          22 21 26 21 25 26
          18 17 22 17 21 22
          14 12 18 12 17 18
          9 7 14 7 12 14
          5 3 9 3 7 9
          4 1 5 1 3 5
          37 36 41 36 40 41
          33 32 37 32 36 37
          29 28 33 28 32 33
          25 24 29 24 28 29
          21 20 25 20 24 25
          17 16 21 16 20 21
          12 11 17 11 16 17
          7 6 12 6 11 12
          3 2 7 2 6 7
          1 0 3 0 2 3
        </DataArray>
        <DataArray type="Int64" Name="offsets" format="ascii" RangeMin="3" RangeMax="180">
          3 6 9 12 15 18
          21 24 27 30 33 36
          39 42 45 48 51 54
          57 60 63 66 69 72
          75 78 81 84 87 90
          93 96 99 102 105 108
          111 114 117 120 123 126
          129 132 135 138 141 144
          147 150 153 156 159 162
          165 168 171 174 177 180
        </DataArray>
        <DataArray type="UInt8" Name="types" format="ascii" RangeMin="5" RangeMax="5">
          5 5 5 5 5 5
          5 5 5 5 5 5
          5 5 5 5 5 5
          5 5 5 5 5 5
          5 5 5 5 5 5
          5 5 5 5 5 5
          5 5 5 5 5 5
          5 5 5 5 5 5
          5 5 5 5 5 5
          5 5 5 5 5 5
        </DataArray>
      </Cells>
    </Piece>
  </UnstructuredGrid>
</VTKFile>
