<?xml version="1.0"?>
<VTKFile type="UnstructuredGrid" version="0.1" byte_order="LittleEndian" header_type="UInt32" compressor="vtkZLibDataCompressor">
  <UnstructuredGrid>
    <Piece NumberOfPoints="36" NumberOfCells="50">
      <PointData>
        <DataArray type="Float64" Name="Velocity" NumberOfComponents="3" format="ascii" RangeMin="0" RangeMax="3.616835174457778">
          0 0 0 0 0 0
          0 0 0 -0.3841707904802911 -3.2366666716241346 0
          0 0 0 0 0 0
          -0.374033572702115 -3.2098245462058643 0 0.20760648222398034 -2.2874009673097904 0
          0.40454738449246797 -2.6943981516745605 0 0 0 0
          0 0 0 0.6118094506618932 -1.9379741390294785 0
          -0.047576024316373644 -2.8400407156072767 0 0.49412919034713276 -2.4041578254946425 0
          0.5427729484485637 -2.5460416569675566 0 0 0 0
          0 0 0 0.06652303483975419 -2.072671487468578 0
          0.25964828226783276 -2.1420909789551126 0 0.6532469692340842 -2.213944046332567 0
          0.9379293817197758 -2.191049146870185 0 0.362786057687482 -2.9628950516329997 0
          0 0 0 0 0 0
          0.9410106668534297 -1.9999651845862048 0 0.3697244766484225 -2.9954499501406695 0
          0 0 0 0 0 0
          0 0 0 0 0 0
          0.9649625220268373 -3.485734357388502 0 0 0 0
          0 0 0 0 0 0
          0 0 0 0 0 0
          <InformationKey name="L2_NORM_RANGE" location="vtkDataArray" length="2">
            <Value index="0">
              0
            </Value>
            <Value index="1">
              3.6168351745
            </Value>
          </InformationKey>
        </DataArray>
        <DataArray type="Float64" Name="Pressure" format="ascii" RangeMin="-17.301531623610064" RangeMax="11.308820001214787">
          11.308820001214787 8.62967859391923 5.713558114457617 5.211234863258646 7.819890520607494 4.10342474943767
          3.990763469632095 5.502945780711775 3.631705282348683 7.387305027958626 2.758341506589567 5.293163861093522
          2.625753123633079 3.184878043083497 2.269957615213885 6.547502238363536 1.7920188413837612 1.6462917757520537
          5.155001209081611 1.617884310262335 0.6318328265866962 3.020549626166196 0.88743269626362 6.507287429353922
          -0.6033581676377384 1.5410880992417586 0.41454782701935233 5.263660133212174 -1.3840374047284674 3.189677357956874
          -2.092309422881553 -4.00159497110494 1.3729127768398675 -7.1977820742989245 -3.642796283628043 -17.301531623610064
        </DataArray>
        <DataArray type="Float64" Name="Temperature" format="ascii" RangeMin="90.21764119329418" RangeMax="3641.7551852903716">
          959.9999999999999 3104.976514340771 959.9999999999999 1855.6420255145379 3641.7551852903716 959.9999999999998
          1260.3024091002885 1879.3821093724193 1232.1921555006777 3052.6783161713424 960 1466.5723381048088
          954.1053100556101 919.5132069015722 934.8268619051488 3322.357321070682 960.0000000000001 876.8358533323193
          1574.7882132511215 642.836578689467 992.1553033222117 1038.7905821313293 959.9999999999998 240
          714.2506780642349 725.4470832272639 163.2463110892395 240.00000000000006 224.18725480982593 240
          900.8145808628204 143.38630700795844 240 90.21764119329418 239.99999999999994 240
        </DataArray>
        <DataArray type="Float64" Name="Density" format="ascii" RangeMin="0.12860612732188842" RangeMax="5.191357530963836">
          0.48786669899437596 0.15083915413577242 0.48786669899437596 0.25239352450251545 0.12860612732188842 0.487866698994376
          0.37161876994978577 0.24920532588819702 0.38009658553969206 0.1534233163558505 0.4878666989943759 0.3193514693177924
          0.49088085570690615 0.5093478022058848 0.5010040362769568 0.14096979517051678 0.48786669899437585 0.5341387778050817
          0.29740636048303704 0.7285709098717081 0.4720551605845715 0.45086280054028194 0.487866698994376 1.9514667959775036
          0.6557250072256571 0.6456046786363303 2.868989981516787 1.9514667959775032 2.089110870427918 1.9514667959775036
          0.5199205707638556 3.2663651139896204 1.9514667959775036 5.191357530963836 1.951466795977504 1.9514667959775036
        </DataArray>
        <DataArray type="Float64" Name="stream" format="ascii" RangeMin="-0.023770799009532034" RangeMax="2.0624990867660156">
          0 0.27428448212086204 -0.023770799009532034 0.28129605694467347 0.8112067082688427 -0.022181547397165286
          0.283833894881762 0.8815629586283645 0.8383645306155482 1.352613751371167 0.0005347782176348496 1.3806810856213783
          0.2630389836023664 1.2830146647397769 0.7041457654042474 1.8151233123068444 0.016450482471260314 0.15449033056227485
          1.8144670940104755 1.0193420945415457 0.3937890520900969 1.6662718357577742 0.020603442316121837 2.0624990867660156
          0.6241312194254424 1.3767686779497534 0.136249572359428 1.9959173895520863 0.31456422092561565 1.7874482975478037
          0.856759061783292 0.5141562304909368 1.3086840289640163 0.7838659142693508 0.8962570031367618 0.7838659142693508
        </DataArray>
      </PointData>
      <CellData>
        <DataArray type="UInt8" Name="vtkGhostType" format="ascii" RangeMin="0" RangeMax="0">
          0 0 0 0 0 0
          0 0 0 0 0 0
          0 0 0 0 0 0
          0 0 0 0 0 0
          0 0 0 0 0 0
          0 0 0 0 0 0
          0 0 0 0 0 0
          0 0 0 0 0 0
          0 0
        </DataArray>
      </CellData>
      <Points>
        <DataArray type="Float32" Name="Points" NumberOfComponents="3" format="ascii" RangeMin="0" RangeMax="1.4142135623730951">
          0 1 0 0.20000000298023224 1 0
          0 0.800000011920929 0 0.20000000298023224 0.800000011920929 0
          0.4000000059604645 1 0 0 0.6000000238418579 0
          0.20000000298023224 0.6000000238418579 0 0.4000000059604645 0.800000011920929 0
          0.4000000059604645 0.6000000238418579 0 0.6000000238418579 1 0
          0 0.4000000059604645 0 0.6000000238418579 0.800000011920929 0
          0.20000000298023224 0.4000000059604645 0 0.6000000238418579 0.6000000238418579 0
          0.4000000059604645 0.4000000059604645 0 0.800000011920929 1 0
          0 0.20000000298023224 0 0.20000000298023224 0.20000000298023224 0
          0.800000011920929 0.800000011920929 0 0.6000000238418579 0.4000000059604645 0
          0.4000000059604645 0.20000000298023224 0 0.800000011920929 0.6000000238418579 0
          0 0 0 1 1 0
          0.6000000238418579 0.20000000298023224 0 0.800000011920929 0.4000000059604645 0
          0.20000000298023224 0 0 1 0.800000011920929 0
          0.4000000059604645 0 0 1 0.6000000238418579 0
          0.800000011920929 0.20000000298023224 0 0.6000000238418579 0 0
          1 0.4000000059604645 0 0.800000011920929 0 0
          1 0.20000000298023224 0 1 0 0
          <InformationKey name="L2_NORM_RANGE" location="vtkDataArray" length="2">
            <Value index="0">
              0
            </Value>
            <Value index="1">
              1.4142135624
            </Value>
          </InformationKey>
        </DataArray>
      </Points>
      <Cells>
        <DataArray type="Int64" Name="connectivity" format="ascii" RangeMin="0" RangeMax="35">
          26 17 22 17 16 22
          28 20 26 20 17 26
          31 24 28 24 20 28
          33 30 31 30 24 31
          35 34 33 34 30 33
          17 12 16 12 10 16
          20 14 17 14 12 17
          24 19 20 19 14 20
          30 25 24 25 19 24
          34 32 30 32 25 30
          12 6 10 6 5 10
          14 8 12 8 6 12
          19 13 14 13 8 14
          25 21 19 21 13 19
          32 29 25 29 21 25
          6 3 5 3 2 5
          8 7 6 7 3 6
          13 11 8 11 7 8
          21 18 13 18 11 13
          29 27 21 27 18 21
          3 1 2 1 0 2
          7 4 3 4 1 3
          11 9 7 9 4 7
          18 15 11 15 9 11
          27 23 18 23 15 18
        </DataArray>
        <DataArray type="Int64" Name="offsets" format="ascii" RangeMin="3" RangeMax="150">
          3 6 9 12 15 18
          21 24 27 30 33 36
          39 42 45 48 51 54
          57 60 63 66 69 72
          75 78 81 84 87 90
          93 96 99 102 105 108
          111 114 117 120 123 126
          129 132 135 138 141 144
          147 150
        </DataArray>
        <DataArray type="UInt8" Name="types" format="ascii" RangeMin="5" RangeMax="5">
          5 5 5 5 5 5
          5 5 5 5 5 5
          5 5 5 5 5 5
          5 5 5 5 5 5
          5 5 5 5 5 5
          5 5 5 5 5 5
          5 5 5 5 5 5
          5 5 5 5 5 5
          5 5
        </DataArray>
      </Cells>
    </Piece>
  </UnstructuredGrid>
</VTKFile>
