<?xml version="1.0"?>
<VTKFile type="UnstructuredGrid" version="0.1" byte_order="LittleEndian" header_type="UInt32" compressor="vtkZLibDataCompressor">
  <UnstructuredGrid>
    <Piece NumberOfPoints="36" NumberOfCells="50">
      <PointData>
        <DataArray type="Float64" Name="Velocity" NumberOfComponents="3" format="ascii" RangeMin="0" RangeMax="99.93786701098884">
          0 0 0 0 0 0
          0 0 0 87.2639228100324 -48.70918844028095 0
          0 0 0 0 0 0
          13.430255810696284 -0.6205686608987742 0 28.01552707753957 1.7440305534874492 0
          3.563650785680257 -3.291116160779593 0 0 0 0
          0 0 0 -1.3282551183684133 -4.048206824949946 0
          -12.476803925020015 2.041085290582364 0 1.2033635445029587 -4.664900492650641 0
          -5.386413991116894 -0.6647466601400379 0 0 0 0
          0 0 0 -2.231226351510964 -0.7723528327153466 0
          -1.632797193731374 -1.8413817900847218 0 0.889885519987208 -1.8750837965795597 0
          0.0901197554622355 -2.1082096270840713 0 0.13945635610354756 -2.1659671146052357 0
          0 0 0 0 0 0
          0.847466492823793 -1.8721012302958853 0 0.6788339674544255 -2.8077768949754467 0
          0 0 0 0 0 0
          0 0 0 0 0 0
          2.065284647379177 -2.817333579743801 0 0 0 0
          0 0 0 0 0 0
          0 0 0 0 0 0
          <InformationKey name="L2_NORM_RANGE" location="vtkDataArray" length="2">
            <Value index="0">
              0
            </Value>
            <Value index="1">
              99.937867011
            </Value>
          </InformationKey>
        </DataArray>
        <DataArray type="Float64" Name="Pressure" format="ascii" RangeMin="-446.3746883250104" RangeMax="7061.303983924311">
          7061.303983924311 327.09349862592325 1127.785483252238 -446.3746883250104 -81.80531687078457 -103.13391250209438
          -54.65412301698557 -58.09729310550745 -25.89049305824905 -17.33552585071849 -87.9114523918033 -20.177701734106126
          -13.702380349733657 -20.773683287077642 -16.012564925138573 -19.192781146205483 -35.16648745091493 -14.482619412102231
          -19.43901497285609 -17.192466761312417 -15.979038476817031 -18.88035583228103 -20.498524698405756 -19.181087135674936
          -15.06414251076034 -17.440873306261697 -18.364289478178097 -19.274697666930493 -18.413188971314188 -18.87844188794897
          -17.884678317960965 -18.723554313396768 -18.550854491894064 -21.942934909915017 -21.902148581895965 -25.41914318293253
        </DataArray>
        <DataArray type="Float64" Name="Temperature" format="ascii" RangeMin="-123.44301512156683" RangeMax="35126.16755157874">
          960 27947.246200230897 960.0000000000001 7364.099485311795 35126.16755157874 959.9999999999999
          2682.774775725546 11859.754902508232 3519.72944685459 19610.149856167256 959.9999999999999 12214.203918324343
          3269.848960054976 5687.776203749741 3622.390445836888 24131.494586270743 959.9999999999999 4329.0931582732
          5895.589684603525 2874.7696922381583 3197.198619478354 3041.8521564100756 960 239.99999999999997
          2350.5687638034615 2405.935696746259 -123.44301512156683 239.99999999999997 205.42704929395526 239.99999999999997
          2902.2254370755736 123.74976865928524 240 206.30366958927786 240.00000000000006 240
        </DataArray>
        <DataArray type="Float64" Name="Density" format="ascii" RangeMin="-9.473035645903627" RangeMax="9.449553685260014">
          1.2181042525879406 0.041842408160942944 1.2181042525879404 0.15879471547292812 0.033290853058971566 1.2181042525879406
          0.43588455246608193 0.09860069555375968 0.33223578690954236 0.059631369013565236 1.2181042525879406 0.09573936134552838
          0.357625106471206 0.2055953048422499 0.3228199996575076 0.04845866791647976 1.2181042525879406 0.27012125628427647
          0.19834828151936817 0.4067734836782697 0.3657514660991614 0.3844302820635762 1.2181042525879406 4.872417010351763
          0.4974881401011413 0.48603962444460586 -9.473035645903627 4.872417010351763 5.692434791345816 4.872417010351763
          0.40292530950412603 9.449553685260014 4.872417010351763 5.6682466424979125 4.872417010351761 4.872417010351763
        </DataArray>
        <DataArray type="Float64" Name="stream" format="ascii" RangeMin="-5.165327290224901" RangeMax="9.555404437610976">
          0 9.555404437610976 -1.1331092604192776 1.7028048326957557 7.836384091084131 -4.8221087615013785
          -4.42541560649163 0.8228374176664982 -3.9225645224191634 1.329709114944041 -5.155109556297351 -1.4239713683112285
          -5.165327290224901 -3.100166753266443 -4.338304581851549 -1.146713390190583 -4.596103306851923 -4.475426508283845
          -1.9253019013639092 -3.6482138695368467 -4.278742892114636 -2.6564366559687085 -4.484633904596612 -1.765134921293395
          -4.005166243385141 -3.1857068037121867 -4.41312248054852 -2.2229122978005083 -4.296660339712076 -2.7470404897979335
          -3.7892199492785874 -4.149426326495882 -3.328588522928753 -3.92352139086471 -3.8125787776485756 -3.92352139086471
        </DataArray>
      </PointData>
      <CellData>
        <DataArray type="UInt8" Name="vtkGhostType" format="ascii" RangeMin="0" RangeMax="0">
          0 0 0 0 0 0
          0 0 0 0 0 0
          0 0 0 0 0 0
          0 0 0 0 0 0
          0 0 0 0 0 0
          0 0 0 0 0 0
          0 0 0 0 0 0
          0 0 0 0 0 0
          0 0
        </DataArray>
      </CellData>
      <Points>
        <DataArray type="Float32" Name="Points" NumberOfComponents="3" format="ascii" RangeMin="0" RangeMax="1.4142135623730951">
          0 1 0 0.20000000298023224 1 0
          0 0.800000011920929 0 0.20000000298023224 0.800000011920929 0
          0.4000000059604645 1 0 0 0.6000000238418579 0
          0.20000000298023224 0.6000000238418579 0 0.4000000059604645 0.800000011920929 0
          0.4000000059604645 0.6000000238418579 0 0.6000000238418579 1 0
          0 0.4000000059604645 0 0.6000000238418579 0.800000011920929 0
          0.20000000298023224 0.4000000059604645 0 0.6000000238418579 0.6000000238418579 0
          0.4000000059604645 0.4000000059604645 0 0.800000011920929 1 0
          0 0.20000000298023224 0 0.20000000298023224 0.20000000298023224 0
          0.800000011920929 0.800000011920929 0 0.6000000238418579 0.4000000059604645 0
          0.4000000059604645 0.20000000298023224 0 0.800000011920929 0.6000000238418579 0
          0 0 0 1 1 0
          0.6000000238418579 0.20000000298023224 0 0.800000011920929 0.4000000059604645 0
          0.20000000298023224 0 0 1 0.800000011920929 0
          0.4000000059604645 0 0 1 0.6000000238418579 0
          0.800000011920929 0.20000000298023224 0 0.6000000238418579 0 0
          1 0.4000000059604645 0 0.800000011920929 0 0
          1 0.20000000298023224 0 1 0 0
          <InformationKey name="L2_NORM_RANGE" location="vtkDataArray" length="2">
            <Value index="0">
              0
            </Value>
            <Value index="1">
              1.4142135624
            </Value>
          </InformationKey>
        </DataArray>
      </Points>
      <Cells>
        <DataArray type="Int64" Name="connectivity" format="ascii" RangeMin="0" RangeMax="35">
          26 17 22 17 16 22
          28 20 26 20 17 26
          31 24 28 24 20 28
          33 30 31 30 24 31
          35 34 33 34 30 33
          17 12 16 12 10 16
          20 14 17 14 12 17
          24 19 20 19 14 20
          30 25 24 25 19 24
          34 32 30 32 25 30
          12 6 10 6 5 10
          14 8 12 8 6 12
          19 13 14 13 8 14
          25 21 19 21 13 19
          32 29 25 29 21 25
          6 3 5 3 2 5
          8 7 6 7 3 6
          13 11 8 11 7 8
          21 18 13 18 11 13
          29 27 21 27 18 21
          3 1 2 1 0 2
          7 4 3 4 1 3
          11 9 7 9 4 7
          18 15 11 15 9 11
          27 23 18 23 15 18
        </DataArray>
        <DataArray type="Int64" Name="offsets" format="ascii" RangeMin="3" RangeMax="150">
          3 6 9 12 15 18
          21 24 27 30 33 36
          39 42 45 48 51 54
          57 60 63 66 69 72
          75 78 81 84 87 90
          93 96 99 102 105 108
          111 114 117 120 123 126
          129 132 135 138 141 144
          147 150
        </DataArray>
        <DataArray type="UInt8" Name="types" format="ascii" RangeMin="5" RangeMax="5">
          5 5 5 5 5 5
          5 5 5 5 5 5
          5 5 5 5 5 5
          5 5 5 5 5 5
          5 5 5 5 5 5
          5 5 5 5 5 5
          5 5 5 5 5 5
          5 5 5 5 5 5
          5 5
        </DataArray>
      </Cells>
    </Piece>
  </UnstructuredGrid>
</VTKFile>
