<?xml version="1.0"?>
<VTKFile type="UnstructuredGrid" version="0.1" byte_order="LittleEndian" header_type="UInt32" compressor="vtkZLibDataCompressor">
  <UnstructuredGrid>
    <Piece NumberOfPoints="36" NumberOfCells="50">
      <PointData>
        <DataArray type="Float64" Name="Velocity" NumberOfComponents="3" format="ascii" RangeMin="0" RangeMax="1.1889354331013153">
          0 0 0 0 0 0
          0 0 0 0.0272152440457315 -0.8011432643308625 0
          0 0 0 0 0 0
          0.09082877131975374 -0.7377945937605501 0 0.2161743931799514 -0.6965976446592582 0
          0.23618714699635845 -0.6197127663829649 0 0 0 0
          0 0 0 0.14912702620813756 -0.7161673105390979 0
          0.11853310907174829 -0.6605393095623916 0 0.1855797593996706 -0.6585269020365381 0
          0.2774000452594545 -0.5627153064733753 0 0 0 0
          0 0 0 0.1628897881866836 -0.5907946302674423 0
          0.0613057703037835 -0.8900360058225689 0 0.27117242524620067 -0.5518342443998128 0
          0.4307898374336124 -0.6431115498958959 0 0.09187088616160817 -1.0010531380276104 0
          0 0 0 0 0 0
          0.5098758552833395 -0.6024686543357907 0 0.10827765039424715 -0.9352257967180435 0
          0 0 0 0 0 0
          0 0 0 0 0 0
          0.3243098388573317 -1.1438490252232345 0 0 0 0
          0 0 0 0 0 0
          0 0 0 0 0 0
          <InformationKey name="L2_NORM_RANGE" location="vtkDataArray" length="2">
            <Value index="0">
              0
            </Value>
            <Value index="1">
              1.1889354331
            </Value>
          </InformationKey>
        </DataArray>
        <DataArray type="Float64" Name="Pressure" format="ascii" RangeMin="-3.2797823541232782" RangeMax="2.136934976586427">
          1.9694846715477237 2.1316400860884204 1.5917626692343043 1.6008853143062352 2.136934976586427 1.0887623075286679
          1.0346329005790191 1.4234854224626798 0.7671681826372914 1.9768087935413743 0.5275755043420373 1.2013877650541525
          0.45406898511775157 0.40999130966077046 0.11632043964629982 1.7602448266133706 0.0900068508524639 -0.026015351327818015
          1.0915504555254267 -0.3853835851884526 -0.4765365926132861 0.16334575875662333 -0.12440603579887556 1.6477132058359776
          -1.1473002788622446 -0.7436711694053821 -0.36449534673523015 1.056618703321084 -0.9841735594287039 0.10252398557123601
          -1.728441139492055 -1.869442292522533 -0.8635027078395222 -2.6629408423106984 -1.9613593101796165 -3.2797823541232782
        </DataArray>
        <DataArray type="Float64" Name="Temperature" format="ascii" RangeMin="239.99999999999994" RangeMax="1130.6695339691241">
          960 950.6039510543629 960.0000000000001 775.9982309593217 1002.0261868806098 959.9999999999999
          655.3826490581398 703.9345469317292 597.1028030433513 930.4744117001064 960.0000000000001 657.2129093960343
          658.7849886623457 554.4933952815915 628.3586621470051 1130.6695339691241 959.9999999999999 658.2042465685176
          730.4139302824897 557.8964485521562 659.3924257021279 591.5701749961748 959.9999999999999 240
          591.15340053652 575.3895104029549 390.0152717299661 239.99999999999997 424.7191835101337 239.99999999999994
          578.8870845418073 369.6434562202257 240 305.5347634251945 239.99999999999997 240.00000000000003
        </DataArray>
        <DataArray type="Float64" Name="Density" format="ascii" RangeMin="0.3177441743223378" RangeMax="1.4969319062601747">
          0.37423297656504356 0.377932005336149 0.37423297656504356 0.46296968623021856 0.35853719414345775 0.3742329765650436
          0.5481738920289467 0.5103651455499383 0.6016780622554846 0.38610804658885467 0.37423297656504356 0.5466472924772553
          0.5453428109100088 0.6479133215283746 0.57174935135754 0.3177441743223378 0.3742329765650436 0.5458239739038865
          0.49186309653691246 0.6439611838985478 0.5448404371947315 0.6073052237712371 0.3742329765650436 1.4969319062601742
          0.6077333855753527 0.6243833976932314 0.9211527946300121 1.4969319062601745 0.8458851670726804 1.4969319062601747
          0.6206109396736692 0.9719194306212747 1.4969319062601742 1.1758519831750733 1.4969319062601745 1.4969319062601742
        </DataArray>
        <DataArray type="Float64" Name="stream" format="ascii" RangeMin="-0.031074693637622844" RangeMax="0.5995762150986239">
          0 0.07502568846633006 -0.00690298756980495 0.07764171488163 0.23322023178029014 -0.013444301158241606
          0.06301778754142834 0.22811277386635043 0.2051037021562929 0.3756974155171302 -0.018140463198933972 0.3646759352443134
          0.054619758446165734 0.3320042427886551 0.17477533449236948 0.5202887449436427 -0.02448509736094216 0.014000771771371804
          0.5047409691608532 0.26882446221094775 0.07723538178724564 0.4617310945249568 -0.031074693637622844 0.5995762150986239
          0.13718555107748648 0.37743159035055446 -0.0061661657366289075 0.5725701688290119 0.036325273735826745 0.507159297599281
          0.2063662189807479 0.09369684823195044 0.35356681609016677 0.18224507063102757 0.21918001753023927 0.18224507063102757
        </DataArray>
      </PointData>
      <CellData>
        <DataArray type="UInt8" Name="vtkGhostType" format="ascii" RangeMin="0" RangeMax="0">
          0 0 0 0 0 0
          0 0 0 0 0 0
          0 0 0 0 0 0
          0 0 0 0 0 0
          0 0 0 0 0 0
          0 0 0 0 0 0
          0 0 0 0 0 0
          0 0 0 0 0 0
          0 0
        </DataArray>
      </CellData>
      <Points>
        <DataArray type="Float32" Name="Points" NumberOfComponents="3" format="ascii" RangeMin="0" RangeMax="1.4142135623730951">
          0 1 0 0.20000000298023224 1 0
          0 0.800000011920929 0 0.20000000298023224 0.800000011920929 0
          0.4000000059604645 1 0 0 0.6000000238418579 0
          0.20000000298023224 0.6000000238418579 0 0.4000000059604645 0.800000011920929 0
          0.4000000059604645 0.6000000238418579 0 0.6000000238418579 1 0
          0 0.4000000059604645 0 0.6000000238418579 0.800000011920929 0
          0.20000000298023224 0.4000000059604645 0 0.6000000238418579 0.6000000238418579 0
          0.4000000059604645 0.4000000059604645 0 0.800000011920929 1 0
          0 0.20000000298023224 0 0.20000000298023224 0.20000000298023224 0
          0.800000011920929 0.800000011920929 0 0.6000000238418579 0.4000000059604645 0
          0.4000000059604645 0.20000000298023224 0 0.800000011920929 0.6000000238418579 0
          0 0 0 1 1 0
          0.6000000238418579 0.20000000298023224 0 0.800000011920929 0.4000000059604645 0
          0.20000000298023224 0 0 1 0.800000011920929 0
          0.4000000059604645 0 0 1 0.6000000238418579 0
          0.800000011920929 0.20000000298023224 0 0.6000000238418579 0 0
          1 0.4000000059604645 0 0.800000011920929 0 0
          1 0.20000000298023224 0 1 0 0
          <InformationKey name="L2_NORM_RANGE" location="vtkDataArray" length="2">
            <Value index="0">
              0
            </Value>
            <Value index="1">
              1.4142135624
            </Value>
          </InformationKey>
        </DataArray>
      </Points>
      <Cells>
        <DataArray type="Int64" Name="connectivity" format="ascii" RangeMin="0" RangeMax="35">
          26 17 22 17 16 22
          28 20 26 20 17 26
          31 24 28 24 20 28
          33 30 31 30 24 31
          35 34 33 34 30 33
          17 12 16 12 10 16
          20 14 17 14 12 17
          24 19 20 19 14 20
          30 25 24 25 19 24
          34 32 30 32 25 30
          12 6 10 6 5 10
          14 8 12 8 6 12
          19 13 14 13 8 14
          25 21 19 21 13 19
          32 29 25 29 21 25
          6 3 5 3 2 5
          8 7 6 7 3 6
          13 11 8 11 7 8
          21 18 13 18 11 13
          29 27 21 27 18 21
          3 1 2 1 0 2
          7 4 3 4 1 3
          11 9 7 9 4 7
          18 15 11 15 9 11
          27 23 18 23 15 18
        </DataArray>
        <DataArray type="Int64" Name="offsets" format="ascii" RangeMin="3" RangeMax="150">
          3 6 9 12 15 18
          21 24 27 30 33 36
          39 42 45 48 51 54
          57 60 63 66 69 72
          75 78 81 84 87 90
          93 96 99 102 105 108
          111 114 117 120 123 126
          129 132 135 138 141 144
          147 150
        </DataArray>
        <DataArray type="UInt8" Name="types" format="ascii" RangeMin="5" RangeMax="5">
          5 5 5 5 5 5
          5 5 5 5 5 5
          5 5 5 5 5 5
          5 5 5 5 5 5
          5 5 5 5 5 5
          5 5 5 5 5 5
          5 5 5 5 5 5
          5 5 5 5 5 5
          5 5
        </DataArray>
      </Cells>
    </Piece>
  </UnstructuredGrid>
</VTKFile>
