<?xml version="1.0"?>
<VTKFile type="UnstructuredGrid" version="0.1" byte_order="LittleEndian" header_type="UInt32" compressor="vtkZLibDataCompressor">
  <UnstructuredGrid>
    <Piece NumberOfPoints="36" NumberOfCells="50">
      <PointData>
        <DataArray type="Float64" Name="Velocity" NumberOfComponents="3" format="ascii" RangeMin="0" RangeMax="9.82766799382815">
          0 0 0 0 0 0
          0 0 0 6.33200891750254 -7.515897901487389 0
          0 0 0 0 0 0
          -0.13221534552826672 -2.4133930424362298 0 -0.04877198983445718 -1.243647983479856 0
          0.3158076035393158 -1.7315981123372604 0 0 0 0
          0 0 0 -0.8846893152136484 -1.5369231158812688 0
          -0.46742065018148227 -2.4725491378189255 0 -0.04715726845831572 -1.7257927947918676 0
          0.3408818767604822 -2.1866480693792156 0 0 0 0
          0 0 0 -0.538836171223656 -2.277664752671339 0
          -0.4795747094739732 -2.334278684623869 0 0.4902768191185555 -2.028383178650608 0
          0.6259990127667536 -2.0566137950474364 0 0.1357998010669807 -2.697600059130403 0
          0 0 0 0 0 0
          0.7695612170754378 -2.148674934831418 0 0.44996300324654137 -3.2130131410434513 0
          0 0 0 0 0 0
          0 0 0 0 0 0
          1.5606581583693013 -3.523341191805953 0 0 0 0
          0 0 0 0 0 0
          0 0 0 0 0 0
          <InformationKey name="L2_NORM_RANGE" location="vtkDataArray" length="2">
            <Value index="0">
              0
            </Value>
            <Value index="1">
              9.8276679938
            </Value>
          </InformationKey>
        </DataArray>
        <DataArray type="Float64" Name="Pressure" format="ascii" RangeMin="-19.474276985208178" RangeMax="117.68698912670737">
          117.68698912670737 10.29426046890373 16.182458248607364 -9.591960825372404 -1.2762716957311682 -2.69277247577168
          0.4083665867335542 -1.7201158991321281 0.6129536193286236 -0.12472129331586732 0.3394007143545459 -0.39080929220870436
          2.595222557993875 0.724162039360127 2.502108842438999 0.57615657167986 2.6985188483691647 3.9472169073539143
          0.19311056197545318 2.500263155524185 4.061745592544305 0.8297286133364892 2.688855589064311 0.8886013217808514
          3.960252391398311 2.7850107516654594 2.64843407116027 0.477630751960219 1.9047622376262103 0.8702181139486014
          2.644509215321876 0.7549214967208827 1.775662574827858 -2.6885502238237384 -2.6587136989606606 -19.474276985208178
        </DataArray>
        <DataArray type="Float64" Name="Temperature" format="ascii" RangeMin="66.99992463756375" RangeMax="10008.71346967823">
          960 10008.71346967823 960 4547.469515825224 9194.333942130539 960
          2597.8435146812226 4309.080633869694 2388.9068458857496 6701.139249866879 960 3684.5795150617805
          1715.793948992169 1956.0807459675636 1692.5105225563918 8282.479655182548 960 1484.0432634293359
          3675.054709007795 1106.2133091970218 1664.0221996442096 2101.793291945206 959.9999999999999 240.00000000000003
          1127.8094521821156 1398.6381851574286 91.09548411396752 240.00000000000003 180.12481687364635 239.99999999999997
          1616.387955464883 66.99992463756375 239.99999999999994 91.94042922961597 240 240.00000000000003
        </DataArray>
        <DataArray type="Float64" Name="Density" format="ascii" RangeMin="0.07114033365208053" RangeMax="10.627224127678847">
          0.7416908496468562 0.07114033365208053 0.7416908496468562 0.15657569845892014 0.07744152215293473 0.7416908496468562
          0.2740824116761141 0.16523784912828657 0.29805398937478483 0.10625405458857261 0.7416908496468562 0.1932440900651979
          0.41498177335292125 0.3640050223534018 0.4206905695248098 0.08596739687920052 0.7416908496468562 0.4797860232292922
          0.19374492954234596 0.6436581532162413 0.42789285852870357 0.33876938250288435 0.7416908496468563 2.966763398587424
          0.6313329031631545 0.5090832090937355 7.81622955941686 2.966763398587424 3.952943453430133 2.966763398587425
          0.44050267341679106 10.627224127678847 2.9667633985874255 7.744397341051613 2.9667633985874247 2.966763398587424
        </DataArray>
        <DataArray type="Float64" Name="stream" format="ascii" RangeMin="-0.3739649729593722" RangeMax="1.497971830352898">
          0 1.058324494490659 -0.11539922349158271 0.26346242131092273 0.9981823931629323 -0.3739649729593722
          -0.03181453545511669 0.6539637452341029 0.46868355839081394 0.830004618111952 -0.34182806798456467 0.8357244576344777
          -0.08991840626091156 0.8238098777595374 0.33284389344401827 1.135328416968681 -0.309048006610228 -0.17332470099443298
          1.217133951218216 0.6427711135559864 0.0732239452686091 1.225742392829955 -0.2832236811241461 1.4441184541927188
          0.30662467354335504 1.0517382958213914 -0.15137325225325113 1.497971830352898 0.01219722578872153 1.43427170687732
          0.5386625024024642 0.18663683505464987 1.0106403452600825 0.4451987702845564 0.5640781972974905 0.4451987702845564
        </DataArray>
      </PointData>
      <CellData>
        <DataArray type="UInt8" Name="vtkGhostType" format="ascii" RangeMin="0" RangeMax="0">
          0 0 0 0 0 0
          0 0 0 0 0 0
          0 0 0 0 0 0
          0 0 0 0 0 0
          0 0 0 0 0 0
          0 0 0 0 0 0
          0 0 0 0 0 0
          0 0 0 0 0 0
          0 0
        </DataArray>
      </CellData>
      <Points>
        <DataArray type="Float32" Name="Points" NumberOfComponents="3" format="ascii" RangeMin="0" RangeMax="1.4142135623730951">
          0 1 0 0.20000000298023224 1 0
          0 0.800000011920929 0 0.20000000298023224 0.800000011920929 0
          0.4000000059604645 1 0 0 0.6000000238418579 0
          0.20000000298023224 0.6000000238418579 0 0.4000000059604645 0.800000011920929 0
          0.4000000059604645 0.6000000238418579 0 0.6000000238418579 1 0
          0 0.4000000059604645 0 0.6000000238418579 0.800000011920929 0
          0.20000000298023224 0.4000000059604645 0 0.6000000238418579 0.6000000238418579 0
          0.4000000059604645 0.4000000059604645 0 0.800000011920929 1 0
          0 0.20000000298023224 0 0.20000000298023224 0.20000000298023224 0
          0.800000011920929 0.800000011920929 0 0.6000000238418579 0.4000000059604645 0
          0.4000000059604645 0.20000000298023224 0 0.800000011920929 0.6000000238418579 0
          0 0 0 1 1 0
          0.6000000238418579 0.20000000298023224 0 0.800000011920929 0.4000000059604645 0
          0.20000000298023224 0 0 1 0.800000011920929 0
          0.4000000059604645 0 0 1 0.6000000238418579 0
          0.800000011920929 0.20000000298023224 0 0.6000000238418579 0 0
          1 0.4000000059604645 0 0.800000011920929 0 0
          1 0.20000000298023224 0 1 0 0
          <InformationKey name="L2_NORM_RANGE" location="vtkDataArray" length="2">
            <Value index="0">
              0
            </Value>
            <Value index="1">
              1.4142135624
            </Value>
          </InformationKey>
        </DataArray>
      </Points>
      <Cells>
        <DataArray type="Int64" Name="connectivity" format="ascii" RangeMin="0" RangeMax="35">
          26 17 22 17 16 22
          28 20 26 20 17 26
          31 24 28 24 20 28
          33 30 31 30 24 31
          35 34 33 34 30 33
          17 12 16 12 10 16
          20 14 17 14 12 17
          24 19 20 19 14 20
          30 25 24 25 19 24
          34 32 30 32 25 30
          12 6 10 6 5 10
          14 8 12 8 6 12
          19 13 14 13 8 14
          25 21 19 21 13 19
          32 29 25 29 21 25
          6 3 5 3 2 5
          8 7 6 7 3 6
          13 11 8 11 7 8
          21 18 13 18 11 13
          29 27 21 27 18 21
          3 1 2 1 0 2
          7 4 3 4 1 3
          11 9 7 9 4 7
          18 15 11 15 9 11
          27 23 18 23 15 18
        </DataArray>
        <DataArray type="Int64" Name="offsets" format="ascii" RangeMin="3" RangeMax="150">
          3 6 9 12 15 18
          21 24 27 30 33 36
          39 42 45 48 51 54
          57 60 63 66 69 72
          75 78 81 84 87 90
          93 96 99 102 105 108
          111 114 117 120 123 126
          129 132 135 138 141 144
          147 150
        </DataArray>
        <DataArray type="UInt8" Name="types" format="ascii" RangeMin="5" RangeMax="5">
          5 5 5 5 5 5
          5 5 5 5 5 5
          5 5 5 5 5 5
          5 5 5 5 5 5
          5 5 5 5 5 5
          5 5 5 5 5 5
          5 5 5 5 5 5
          5 5 5 5 5 5
          5 5
        </DataArray>
      </Cells>
    </Piece>
  </UnstructuredGrid>
</VTKFile>
