<?xml version="1.0"?>
<VTKFile type="UnstructuredGrid" version="0.1" byte_order="LittleEndian" header_type="UInt32" compressor="vtkZLibDataCompressor">
  <UnstructuredGrid>
    <Piece NumberOfPoints="44" NumberOfCells="66">
      <PointData>
        <DataArray type="Float64" Name="ale_BC" NumberOfComponents="3" format="ascii" RangeMin="0" RangeMax="0">
          0 0 0 0 0 0
          0 0 0 0 0 0
          0 0 0 0 0 0
          0 0 0 0 0 0
          0 0 0 0 0 0
          0 0 0 0 0 0
          0 0 0 0 0 0
          0 0 0 0 0 0
          0 0 0 0 0 0
          0 0 0 0 0 0
          0 0 0 0 0 0
          0 0 0 0 0 0
          0 0 0 0 0 0
          0 0 0 0 0 0
          0 0 0 0 0 0
          0 0 0 0 0 0
          0 0 0 0 0 0
          0 0 0 0 0 0
          0 0 0 0 0 0
          0 0 0 0 0 0
          0 0 0 0 0 0
          0 0 0 0 0 0
          <InformationKey name="L2_NORM_RANGE" location="vtkDataArray" length="2">
            <Value index="0">
              0
            </Value>
            <Value index="1">
              0
            </Value>
          </InformationKey>
        </DataArray>
        <DataArray type="Float64" Name="ale_FIXNO" NumberOfComponents="3" format="ascii" RangeMin="1" RangeMax="1.4142135623730951">
          1 1 0 0 1 0
          1 0 0 -1 -1 0
          -1 -1 0 0 1 0
          1 0 0 -1 -1 0
          -1 -1 0 -1 -1 0
          -1 -1 0 -1 -1 0
          0 1 0 1 0 0
          -1 -1 0 -1 -1 0
          -1 -1 0 -1 -1 0
          -1 -1 0 -1 -1 0
          0 1 0 1 0 0
          -1 -1 0 -1 -1 0
          -1 -1 0 -1 -1 0
          -1 -1 0 1 1 0
          1 1 0 -1 -1 0
          1 0 0 0 1 0
          -1 -1 0 1 0 0
          0 1 0 -1 -1 0
          -1 -1 0 -1 -1 0
          1 0 0 0 1 0
          -1 -1 0 1 0 0
          0 1 0 1 1 0
          <InformationKey name="L2_NORM_RANGE" location="vtkDataArray" length="2">
            <Value index="0">
              1
            </Value>
            <Value index="1">
              1.4142135624
            </Value>
          </InformationKey>
        </DataArray>
        <DataArray type="Float64" Name="nsi_BC" NumberOfComponents="3" format="ascii" RangeMin="0" RangeMax="0">
          0 0 0 0 0 0
          0 0 0 0 0 0
          0 0 0 0 0 0
          0 0 0 0 0 0
          0 0 0 0 0 0
          0 0 0 0 0 0
          0 0 0 0 0 0
          0 0 0 0 0 0
          0 0 0 0 0 0
          0 0 0 0 0 0
          0 0 0 0 0 0
          0 0 0 0 0 0
          0 0 0 0 0 0
          0 0 0 0 0 0
          0 0 0 0 0 0
          0 0 0 0 0 0
          0 0 0 0 0 0
          0 0 0 0 0 0
          0 0 0 0 0 0
          0 0 0 0 0 0
          0 0 0 0 0 0
          0 0 0 0 0 0
          <InformationKey name="L2_NORM_RANGE" location="vtkDataArray" length="2">
            <Value index="0">
              0
            </Value>
            <Value index="1">
              0
            </Value>
          </InformationKey>
        </DataArray>
        <DataArray type="Float64" Name="nsi_FIXNO" NumberOfComponents="3" format="ascii" RangeMin="1" RangeMax="1.4142135623730951">
          1 1 0 0 1 0
          1 0 0 -1 -1 0
          -1 -1 0 0 1 0
          1 0 0 -1 -1 0
          -1 -1 0 -1 -1 0
          -1 -1 0 -1 -1 0
          0 1 0 1 0 0
          -1 -1 0 -1 -1 0
          -1 -1 0 -1 -1 0
          -1 -1 0 -1 -1 0
          0 1 0 1 0 0
          -1 -1 0 -1 -1 0
          -1 -1 0 -1 -1 0
          -1 -1 0 1 1 0
          1 1 0 -1 -1 0
          1 0 0 0 1 0
          -1 -1 0 1 0 0
          0 1 0 -1 -1 0
          -1 -1 0 -1 -1 0
          1 0 0 0 1 0
          -1 -1 0 1 0 0
          0 1 0 1 1 0
          <InformationKey name="L2_NORM_RANGE" location="vtkDataArray" length="2">
            <Value index="0">
              1
            </Value>
            <Value index="1">
              1.4142135624
            </Value>
          </InformationKey>
        </DataArray>
        <DataArray type="Float64" Name="lev_BC" format="ascii" RangeMin="-0.5" RangeMax="0.5">
          -0.5 -0.3 -0.5 -0.32499 -0.35371 -0.25
          -0.5 -0.198092 -0.109713 -0.357575 -0.207421 -0.006945
          -0.25 -0.5 -0.059263 -0.216878 0.02803 -0.061131
          0.142998 -0.351371 -0.25 -0.5 0.030858 0.192875
          -0.104258 0.199684 0.083861 -0.5 -0.25 0.222426
          -0.048337 -0.280888 0.341722 0.153327 -0.061777 0.146545
          0.227286 0.363955 0.354826 0.155833 0.392298 0.5
          0.37 0.5
        </DataArray>
        <DataArray type="Float64" Name="lev_FIXNO" format="ascii" RangeMin="0" RangeMax="0">
          0 0 0 0 0 0
          0 0 0 0 0 0
          0 0 0 0 0 0
          0 0 0 0 0 0
          0 0 0 0 0 0
          0 0 0 0 0 0
          0 0 0 0 0 0
          0 0
        </DataArray>
      </PointData>
      <CellData>
        <DataArray type="UInt8" Name="vtkGhostType" format="ascii" RangeMin="0" RangeMax="0">
          0 0 0 0 0 0
          0 0 0 0 0 0
          0 0 0 0 0 0
          0 0 0 0 0 0
          0 0 0 0 0 0
          0 0 0 0 0 0
          0 0 0 0 0 0
          0 0 0 0 0 0
          0 0 0 0 0 0
          0 0 0 0 0 0
          0 0 0 0 0 0
        </DataArray>
      </CellData>
      <Points>
        <DataArray type="Float32" Name="Points" NumberOfComponents="3" format="ascii" RangeMin="0" RangeMax="1.4142135623730951">
          0 1 0 0.20000000298023224 1 0
          0 0.7799999713897705 0 0.17500990629196167 0.8324676752090454 0
          0.14628949761390686 0.6488438844680786 0 0.4000000059604645 1 0
          0 0.5849999785423279 0 0.30190789699554443 0.7062488794326782 0
          0.4018622040748596 0.8597133755683899 0 0.14242489635944366 0.45817598700523376 0
          0.29257911443710327 0.5176876783370972 0 0.49305540323257446 0.6697210073471069 0
          0.6000000238418579 1 0 0 0.38999998569488525 0
          0.6244276165962219 0.8092629909515381 0 0.2831222116947174 0.36456531286239624 0
          0.5280297994613647 0.49493080377578735 0 0.43886861205101013 0.3865315914154053 0
          0.659912109375 0.6070019006729126 0 0.14862869679927826 0.22861619293689728 0
          0.800000011920929 1 0 0 0.19499999284744263 0
          0.791735827922821 0.7191417813301086 0 0.6928746104240417 0.44221389293670654 0
          0.39574238657951355 0.1925719976425171 0 0.7972490191459656 0.5503162145614624 0
          0.5838605761528015 0.2565388083457947 0 0 0 0
          1 1 0 0.7224256992340088 0.28607040643692017 0
          1 0.7983365058898926 0 0.2191116064786911 0 0
          0.841722309589386 0.3865504860877991 0 1 0.5966730117797852 0
          0.4382232129573822 0 0 0.6465445160865784 0.11541219800710678 0
          0.7272865176200867 0.12795010209083557 0 0.8639553785324097 0.2512752115726471 0
          1 0.3951736092567444 0 0.6558331847190857 0 0
          0.8922978043556213 0.11509300023317337 0 1 0.19681400060653687 0
          0.8700000047683716 0 0 1 0 0
          <InformationKey name="L2_NORM_RANGE" location="vtkDataArray" length="2">
            <Value index="0">
              0
            </Value>
            <Value index="1">
              1.4142135624
            </Value>
          </InformationKey>
        </DataArray>
      </Points>
      <Cells>
        <DataArray type="Int64" Name="connectivity" format="ascii" RangeMin="0" RangeMax="43">
          42 36 35 35 36 26
          26 17 24 2 6 9
          4 2 9 9 6 13
          9 13 19 4 9 10
          10 9 15 19 13 21
          19 21 27 9 19 15
          15 19 24 15 24 17
          15 17 10 19 27 31
          39 24 34 34 24 31
          24 39 35 24 19 31
          42 35 39 35 26 24
          42 43 40 40 43 41
          42 40 36 40 41 37
          37 41 38 40 37 36
          36 37 29 29 37 32
          32 37 38 29 32 23
          36 29 26 26 29 23
          32 38 33 23 32 25
          25 32 33 23 25 18
          18 25 22 23 18 16
          22 25 33 18 22 14
          16 18 11 23 16 26
          14 22 20 18 14 11
          11 14 8 16 11 10
          8 14 12 11 8 7
          17 26 16 17 16 10
          7 8 3 11 7 10
          2 4 3 4 10 7
          4 7 3 3 8 1
          3 1 0 2 3 0
          28 20 22 12 5 8
          8 5 1 20 12 14
          33 30 22 22 30 28
        </DataArray>
        <DataArray type="Int64" Name="offsets" format="ascii" RangeMin="3" RangeMax="198">
          3 6 9 12 15 18
          21 24 27 30 33 36
          39 42 45 48 51 54
          57 60 63 66 69 72
          75 78 81 84 87 90
          93 96 99 102 105 108
          111 114 117 120 123 126
          129 132 135 138 141 144
          147 150 153 156 159 162
          165 168 171 174 177 180
          183 186 189 192 195 198
        </DataArray>
        <DataArray type="UInt8" Name="types" format="ascii" RangeMin="5" RangeMax="5">
          5 5 5 5 5 5
          5 5 5 5 5 5
          5 5 5 5 5 5
          5 5 5 5 5 5
          5 5 5 5 5 5
          5 5 5 5 5 5
          5 5 5 5 5 5
          5 5 5 5 5 5
          5 5 5 5 5 5
          5 5 5 5 5 5
          5 5 5 5 5 5
        </DataArray>
      </Cells>
    </Piece>
  </UnstructuredGrid>
</VTKFile>
