<?xml version="1.0"?>
<VTKFile type="UnstructuredGrid" version="0.1" byte_order="LittleEndian" header_type="UInt32" compressor="vtkZLibDataCompressor">
  <UnstructuredGrid>
    <Piece NumberOfPoints="44" NumberOfCells="66">
      <PointData>
        <DataArray type="Float64" Name="ale_BC" NumberOfComponents="3" format="ascii" RangeMin="0" RangeMax="0">
          0 0 0 0 0 0
          0 0 0 0 0 0
          0 0 0 0 0 0
          0 0 0 0 0 0
          0 0 0 0 0 0
          0 0 0 0 0 0
          0 0 0 0 0 0
          0 0 0 0 0 0
          0 0 0 0 0 0
          0 0 0 0 0 0
          0 0 0 0 0 0
          0 0 0 0 0 0
          0 0 0 0 0 0
          0 0 0 0 0 0
          0 0 0 0 0 0
          0 0 0 0 0 0
          0 0 0 0 0 0
          0 0 0 0 0 0
          0 0 0 0 0 0
          0 0 0 0 0 0
          0 0 0 0 0 0
          0 0 0 0 0 0
          <InformationKey name="L2_NORM_RANGE" location="vtkDataArray" length="2">
            <Value index="0">
              0
            </Value>
            <Value index="1">
              0
            </Value>
          </InformationKey>
        </DataArray>
        <DataArray type="Float64" Name="ale_FIXNO" NumberOfComponents="3" format="ascii" RangeMin="1" RangeMax="1.4142135623730951">
          1 1 0 0 1 0
          1 0 0 -1 -1 0
          -1 -1 0 0 1 0
          1 0 0 -1 -1 0
          -1 -1 0 -1 -1 0
          -1 -1 0 -1 -1 0
          0 1 0 1 0 0
          -1 -1 0 -1 -1 0
          -1 -1 0 -1 -1 0
          -1 -1 0 -1 -1 0
          0 1 0 1 0 0
          -1 -1 0 -1 -1 0
          -1 -1 0 -1 -1 0
          -1 -1 0 1 1 0
          1 1 0 -1 -1 0
          1 0 0 0 1 0
          -1 -1 0 1 0 0
          0 1 0 -1 -1 0
          -1 -1 0 -1 -1 0
          1 0 0 0 1 0
          -1 -1 0 1 0 0
          0 1 0 1 1 0
          <InformationKey name="L2_NORM_RANGE" location="vtkDataArray" length="2">
            <Value index="0">
              1
            </Value>
            <Value index="1">
              1.4142135624
            </Value>
          </InformationKey>
        </DataArray>
        <DataArray type="Float64" Name="nsi_BC" NumberOfComponents="3" format="ascii" RangeMin="0" RangeMax="0">
          0 0 0 0 0 0
          0 0 0 0 0 0
          0 0 0 0 0 0
          0 0 0 0 0 0
          0 0 0 0 0 0
          0 0 0 0 0 0
          0 0 0 0 0 0
          0 0 0 0 0 0
          0 0 0 0 0 0
          0 0 0 0 0 0
          0 0 0 0 0 0
          0 0 0 0 0 0
          0 0 0 0 0 0
          0 0 0 0 0 0
          0 0 0 0 0 0
          0 0 0 0 0 0
          0 0 0 0 0 0
          0 0 0 0 0 0
          0 0 0 0 0 0
          0 0 0 0 0 0
          0 0 0 0 0 0
          0 0 0 0 0 0
          <InformationKey name="L2_NORM_RANGE" location="vtkDataArray" length="2">
            <Value index="0">
              0
            </Value>
            <Value index="1">
              0
            </Value>
          </InformationKey>
        </DataArray>
        <DataArray type="Float64" Name="nsi_FIXNO" NumberOfComponents="3" format="ascii" RangeMin="1" RangeMax="1.4142135623730951">
          1 1 0 0 1 0
          1 0 0 -1 -1 0
          -1 -1 0 0 1 0
          1 0 0 -1 -1 0
          -1 -1 0 -1 -1 0
          -1 -1 0 -1 -1 0
          0 1 0 1 0 0
          -1 -1 0 -1 -1 0
          -1 -1 0 -1 -1 0
          -1 -1 0 -1 -1 0
          0 1 0 1 0 0
          -1 -1 0 -1 -1 0
          -1 -1 0 -1 -1 0
          -1 -1 0 1 1 0
          1 1 0 -1 -1 0
          1 0 0 0 1 0
          -1 -1 0 1 0 0
          0 1 0 -1 -1 0
          -1 -1 0 -1 -1 0
          1 0 0 0 1 0
          -1 -1 0 1 0 0
          0 1 0 1 1 0
          <InformationKey name="L2_NORM_RANGE" location="vtkDataArray" length="2">
            <Value index="0">
              1
            </Value>
            <Value index="1">
              1.4142135624
            </Value>
          </InformationKey>
        </DataArray>
        <DataArray type="Float64" Name="lev_BC" format="ascii" RangeMin="-0.5" RangeMax="0.5">
          -0.5 -0.3 -0.5 -0.32499 -0.35371 -0.25
          -0.5 -0.198092 -0.109713 -0.357575 -0.207421 -0.006945
          -0.25 -0.5 -0.059263 -0.216878 0.02803 -0.061131
          0.142998 -0.351371 -0.25 -0.5 0.030858 0.192875
          -0.104258 0.199684 0.083861 -0.5 -0.25 0.222426
          -0.048337 -0.280888 0.341722 0.153327 -0.061777 0.146545
          0.227286 0.363955 0.354826 0.155833 0.392298 0.5
          0.37 0.5
        </DataArray>
        <DataArray type="Float64" Name="lev_FIXNO" format="ascii" RangeMin="0" RangeMax="0">
          0 0 0 0 0 0
          0 0 0 0 0 0
          0 0 0 0 0 0
          0 0 0 0 0 0
          0 0 0 0 0 0
          0 0 0 0 0 0
          0 0 0 0 0 0
          0 0
        </DataArray>
        <DataArray type="Float64" Name="Velocity" NumberOfComponents="3" format="ascii" RangeMin="0" RangeMax="1.2646503288731301">
          0 0 0 0.15188970427616807 0 0
          0 0.07504503054880987 0 0.1839774818181828 0.04214517051787299 0
          0.29455495004609566 0.13139341193283793 0 0.18354013037654365 0 0
          0 0.1285280390654233 0 0.406645340849664 0.06950730226353896 0
          0.21006875935206507 -0.0669052571426264 0 0.2772045801931522 0.17205485257157593 0
          1.1993732316191066 0.4010539933655527 0 0.16476868283175247 -0.15326632106586902 0
          0.10651282617802539 0 0 0 0.12488410858480563 0
          0.09351266268410255 -0.5384029667890265 0 0.034552283005228 0.09421961986105716 0
          -0.004318333225332264 -0.06409733734469693 0 -0.6201474818082272 -0.06738345505775244 0
          -0.05153187874921951 0.027962514879641482 0 -0.10268945165031501 0.04699270015301464 0
          0.024988628035828735 0 0 0 0.04616692151310351 0
          -0.006176782448354246 -0.11776893106206227 0 -0.008730480604218036 -0.07821565802755515 0
          -0.6496507622237029 -0.10526331983826766 0 0.00483482712708226 -0.07809267771074717 0
          0.06134808874736182 -0.05641855418268773 0 0 0 0
          0 0 0 -0.008035786856259268 -0.07611397691433949 0
          0 -0.3777191461463743 0 -0.3422325786392293 0 0
          -0.004409740522368306 -0.07812539713775124 0 0 -0.0037379600358494487 0
          -0.8988313437664395 0 0 0.080421652947023 -0.0849022357174043 0
          0.003705868357369174 -0.08409673846080062 0 0.003385161554866327 -0.07667283976451698 0
          0 -0.0857564882046375 0 0.19918402487344802 0 0
          0.0160911540726861 -0.12076972024580741 0 0 -0.09596070372717172 0
          -0.025210711035084366 0 0 0 0 0
          <InformationKey name="L2_NORM_RANGE" location="vtkDataArray" length="2">
            <Value index="0">
              0
            </Value>
            <Value index="1">
              1.2646503289
            </Value>
          </InformationKey>
        </DataArray>
        <DataArray type="Float64" Name="Pressure" format="ascii" RangeMin="-4316.313775944189" RangeMax="3392.337029670428">
          -4316.313775944189 -4218.741977304619 -2249.3657792359863 -2671.4153891707365 -1265.0471921468902 -3878.333562181801
          -1010.9087968673566 -1460.2238571025891 -2531.635996594544 -61.0238198445265 -140.24031852085614 -752.2707798385134
          -3233.174883509448 380.6331469490294 -1183.4778947696689 472.05786653216467 107.7188669916879 538.1551906071116
          -273.4275527882691 1394.4571640979216 -3005.6614763670846 1757.7872540829346 -542.0173497119205 325.79234496040687
          1247.0650756493383 42.36519806713764 918.5059912515927 3392.337029670428 -2901.310655117052 751.5208082853152
          -954.0365650628434 3156.5555290872076 592.7958135136512 -125.92938842671039 1994.936712657904 1308.8883672641632
          1093.069692888833 791.2573652241342 607.3563659227863 1678.83835053101 955.884396258991 842.1338970894989
          1091.123848930193 993.507052522319
        </DataArray>
        <DataArray type="Float64" Name="Proj_residual_U" NumberOfComponents="3" format="ascii" RangeMin="0" RangeMax="922.5630907558975">
          0 0 0 53.96187051945548 -26.297763873650034 0
          -13.916290816138742 -24.909345139145177 0 112.57006701846394 -53.87951548130098 0
          598.7063285462258 21.97955707157587 0 -20.821195305534104 0 0
          0 -16.424920432808054 0 -198.0588916278746 -337.6646515507871 0
          -46.100600400611775 -214.98704905003856 0 834.8114439666664 155.02899008082875 0
          804.0111367059509 -139.5019625868475 0 -30.39110644870323 -23.229576666779227 0
          -47.52481263903088 -62.23712047800448 0 77.5734424195653 42.1357946541541 0
          -47.43851353834114 -429.0408416267325 0 289.2228206862296 83.50381099128643 0
          -98.6546473674231 -4.655600206116026 0 888.9347571328924 246.81501977424304 0
          -50.17204752008649 150.77622394230383 0 157.71571270523245 40.36617535247085 0
          -2.770854243226815 -0.07848624147372517 0 0 14.783371382740045 0
          -9.851767470868673 78.62630136497575 0 12.592902897009498 -12.223129723527153 0
          734.2495837396468 176.99817741150991 0 3.007435464480078 -0.6071010903536151 0
          -185.18416151154483 -12.818905767493986 0 0 0 0
          -0.009241739937210508 -0.5286674521103759 0 6.029984624980172 -0.04284177932669988 0
          -0.018894678896380863 113.4589458197437 0 706.3541766135336 77.49417504581635 0
          -0.7584359587886567 -8.229660656843095 0 0.002507903597084449 62.6192612195062 0
          891.6854472793578 1.3194862087207726 0 -111.24431404693058 23.35522051901709 0
          9.615245913496967 11.100059545821953 0 4.361087073949666 -8.356694145436926 0
          1.210156685753865 -14.886039052293759 0 -374.4596225954543 13.463526583675092 0
          -9.583854252275378 43.135293311160304 0 2.6867047555479076 5.145785421393903 0
          11.072775167320462 1.6372816158742782 0 0 0 0
          <InformationKey name="L2_NORM_RANGE" location="vtkDataArray" length="2">
            <Value index="0">
              0
            </Value>
            <Value index="1">
              922.56309076
            </Value>
          </InformationKey>
        </DataArray>
        <DataArray type="Float64" Name="Proj_residual_P" format="ascii" RangeMin="-2.1452409404350377" RangeMax="2.4532422573361767">
          0.6160208183397071 0.3362229912772226 1.204758030473106 0.3609025926879102 1.9238957130957777 0.3634761785881127
          1.818528537153129 -1.0446351433491619 0.013115150549177725 2.4532422573361767 0.4033707264712174 -1.7483371744832106
          1.6890362463217141 1.1359201514952244 0.10594273850633495 -0.7958216962937272 0.21375309694362277 -0.7181197567793889
          -1.2241737259267766 -0.7139822839190545 0.6484548504470665 -0.3706970049078306 -0.5170222273166798 0.10303252033790154
          -0.8054773521715011 0.11967705834180667 1.442290951245039 -1.0256834665318055 0.004052139396741586 -0.16296029341211526
          -0.6095610634430353 -2.1452409404350377 0.12507570998265827 -0.4589909490690469 -0.8599269756214959 0.7469687918202162
          -0.37811782586139203 0.12958746104720423 0.1845294557811761 1.5032908887111558 -0.33212219732086534 -0.13021903264840035
          -1.2786953205187275 -0.727352701310219
        </DataArray>
        <DataArray type="Float64" Name="Proj_residual_GraP2" NumberOfComponents="3" format="ascii" RangeMin="3.8037148604350817" RangeMax="2882.2501210118025">
          0.6160208183397071 443.60679426357177 0 0.3362229912772226 1311.3495365165943 0
          1.204758030473106 557.1431221534805 0 0.3609025926879102 951.5864633350334 0
          1.9238957130957777 1162.7827228852816 0 0.3634761785881127 2463.917734487928 0
          1.818528537153129 664.4645744910074 0 -1.0446351433491619 1840.3492360407115 0
          0.013115150549177725 2712.9054045698554 0 2.4532422573361767 658.7721627245894 0
          0.4033707264712174 1103.3512064615966 0 -1.7483371744832106 1833.4660487831404 0
          1.6890362463217141 2677.5998972289894 0 1.1359201514952244 -199.90154212705698 0
          0.10594273850633495 1810.0778693564077 0 -0.7958216962937272 62.63537243164877 0
          0.21375309694362277 205.76499695563004 0 -0.7181197567793889 302.17444209630156 0
          -1.2241737259267766 968.9795082070339 0 -0.7139822839190545 -983.4046657501787 0
          0.6484548504470665 304.52731043709866 0 -0.3706970049078306 -697.9480777682576 0
          -0.5170222273166798 178.34311925392808 0 0.10303252033790154 331.48821222633774 0
          -0.8054773521715011 -1302.718354061791 0 0.11967705834180667 354.64911351680087 0
          1.442290951245039 -471.54531114796475 0 -1.0256834665318055 -882.775023588397 0
          0.004052139396741586 3.803712702040072 0 -0.16296029341211526 -177.59304836924034 0
          -0.6095610634430353 -128.74571997248927 0 -2.1452409404350377 -2562.951501103524 0
          0.12507570998265827 268.4980805685376 0 -0.4589909490690469 -76.6032593771525 0
          -0.8599269756214959 -2882.2499927310514 0 0.7469687918202162 -1486.9897610262888 0
          -0.37811782586139203 -1031.8052753069096 0 0.12958746104720423 -225.9522973647899 0
          0.1845294557811761 127.2810718005524 0 1.5032908887111558 -1389.644476396465 0
          -0.33212219732086534 -651.8299278060698 0 -0.13021903264840035 -226.32925468347554 0
          -1.2786953205187275 -1747.8042702199161 0 -0.727352701310219 -587.7404069207278 0
          <InformationKey name="L2_NORM_RANGE" location="vtkDataArray" length="2">
            <Value index="0">
              3.8037148604
            </Value>
            <Value index="1">
              2882.250121
            </Value>
          </InformationKey>
        </DataArray>
        <DataArray type="Float64" Name="ALEdispl" NumberOfComponents="3" format="ascii" RangeMin="0" RangeMax="0">
          0 0 0 0 0 0
          0 0 0 0 0 0
          0 0 0 0 0 0
          0 0 0 0 0 0
          0 0 0 0 0 0
          0 0 0 0 0 0
          0 0 0 0 0 0
          0 0 0 0 0 0
          0 0 0 0 0 0
          0 0 0 0 0 0
          0 0 0 0 0 0
          0 0 0 0 0 0
          0 0 0 0 0 0
          0 0 0 0 0 0
          0 0 0 0 0 0
          0 0 0 0 0 0
          0 0 0 0 0 0
          0 0 0 0 0 0
          0 0 0 0 0 0
          0 0 0 0 0 0
          0 0 0 0 0 0
          0 0 0 0 0 0
          <InformationKey name="L2_NORM_RANGE" location="vtkDataArray" length="2">
            <Value index="0">
              0
            </Value>
            <Value index="1">
              0
            </Value>
          </InformationKey>
        </DataArray>
        <DataArray type="Float64" Name="ALEveloc" NumberOfComponents="3" format="ascii" RangeMin="0" RangeMax="0">
          0 0 0 0 0 0
          0 0 0 0 0 0
          0 0 0 0 0 0
          0 0 0 0 0 0
          0 0 0 0 0 0
          0 0 0 0 0 0
          0 0 0 0 0 0
          0 0 0 0 0 0
          0 0 0 0 0 0
          0 0 0 0 0 0
          0 0 0 0 0 0
          0 0 0 0 0 0
          0 0 0 0 0 0
          0 0 0 0 0 0
          0 0 0 0 0 0
          0 0 0 0 0 0
          0 0 0 0 0 0
          0 0 0 0 0 0
          0 0 0 0 0 0
          0 0 0 0 0 0
          0 0 0 0 0 0
          0 0 0 0 0 0
          <InformationKey name="L2_NORM_RANGE" location="vtkDataArray" length="2">
            <Value index="0">
              0
            </Value>
            <Value index="1">
              0
            </Value>
          </InformationKey>
        </DataArray>
        <DataArray type="Float64" Name="LEVEL" format="ascii" RangeMin="-0.5439011677385711" RangeMax="0.5522680348674187">
          -0.5439011677385711 -0.44225505767995865 -0.4086201900906372 -0.31137684144207844 -0.3051003539808472 -0.33881026989229057
          -0.5018610677119197 -0.14184798953778976 -0.21736858105018383 -0.3622330922432414 -0.22139342723402583 -0.00789638358178087
          -0.2350866353596745 -0.5011302387488485 -0.063669394321308 -0.21684919907559191 0.027873881841654763 -0.05529644001883282
          0.14057997335832204 -0.3504268114316065 -0.24949370242118288 -0.4996090106094867 0.029453718584118434 0.2593535632053905
          -0.09787588482965748 0.28491770217819634 0.08342126907838802 -0.5001758737333316 -0.250216280020866 0.22332140827219912
          -0.05179886566994042 -0.2770001966389383 0.4117775417326024 0.15326321225480768 -0.05320314343909279 0.1459304468992402
          0.2265165639879083 0.3650373319804402 0.5522680348674187 0.15374734500664453 0.39153628952304176 0.5004712528915194
          0.37060081108889364 0.5001412934884727
        </DataArray>
      </PointData>
      <CellData>
        <DataArray type="UInt8" Name="vtkGhostType" format="ascii" RangeMin="0" RangeMax="0">
          0 0 0 0 0 0
          0 0 0 0 0 0
          0 0 0 0 0 0
          0 0 0 0 0 0
          0 0 0 0 0 0
          0 0 0 0 0 0
          0 0 0 0 0 0
          0 0 0 0 0 0
          0 0 0 0 0 0
          0 0 0 0 0 0
          0 0 0 0 0 0
        </DataArray>
        <DataArray type="Float64" Name="Residual_U" NumberOfComponents="3" format="ascii" RangeMin="0.8572328755893669" RangeMax="3735.8348768857095">
          23.542183459182027 32.90060275690108 0 -2.9848417762622717 -15.467535194155658 0
          -1572.4471156999916 -94.52676438460857 0 179.8430360610206 -28.66944290123168 0
          398.38841318968775 8.918733882895742 0 179.84303606102054 32.426813053566484 0
          259.5342698005978 66.71629161442442 0 3625.7621731159497 900.1727008508813 0
          3262.4812945760027 812.8448853317924 0 23.64981433653658 32.27488524228479 0
          23.649814336536576 8.994707426920794 0 126.76126517687369 42.80420465023642 0
          465.5155766382615 128.25500736072303 0 1766.661983372555 441.2748149413632 0
          42.868236060141044 25.05938221928443 0 240.5126676496877 3.219827040065609 0
          -2735.599170596417 30.67103588441917 0 1575.2241729764096 19.179608152402622 0
          -1085.3653462966822 130.82091003811354 0 779.7823832269524 223.6161678933335 0
          -57.33926776794033 20.819259517375336 0 -1511.6537424005874 -94.96723045394701 0
          -13.523358055833336 42.24214426087478 0 -0.8013616539894959 38.443634993350514 0
          -23.34635168158503 68.23526007206303 0 10.066085878613219 -31.485040450393264 0
          -0.028077357848198346 -4.5675279763653265 0 7.942650121951239 -28.024313144538 0
          5.690946573386794 -4.009769499717789 0 3.3487820867619034 0.9340907403012098 0
          4.205045278867395 1.4992413360107815 0 -0.2949749319213048 1.1464387823028837 0
          -2.724621628713413 -6.195414709551372 0 -0.4395233539519827 0.7359805869192577 0
          -0.0409529400427584 -22.63925342229938 0 -5.750026528207556 -0.03379965383546702 0
          -2.513686603447581 -4.960761003823554 0 2.1772242953903937 -12.647600236613354 0
          -3.911573191898146 30.292306186944536 0 13.320769525623525 -28.30987369548645 0
          4.362843332009803 14.542717795289747 0 -278.0465539365739 1083.417928660593 0
          -262.36557038994454 191.2094817596544 0 18.17453563402528 2.0730263544529075 0
          -59.169056122324754 4.331646759637028 0 -294.02464855670826 986.4352576740819 0
          -78.60135317677658 -193.52095326555434 0 -737.1789516769247 -208.03741931291228 0
          -71.77934829377959 -738.361313856692 0 -329.44821100985905 -303.5431197761738 0
          -2232.206733261008 -21.522838118953658 0 527.489374717827 342.23120647669543 0
          55.9074519724222 -117.59419885466214 0 -1643.6111808411465 -1056.1390115515972 0
          139.50021636147238 -46.773960454693395 0 599.0271353811335 -193.41848503476777 0
          233.63859701990606 -104.82243069633356 0 27.328300188666105 -81.96490029276777 0
          80.74244300900301 -3.534075514553694 0 64.4681887827675 -18.58210877462791 0
          -7.668246781984365 -29.304634490201416 0 -59.873700234018635 -10.636115479123838 0
          32.94591960268609 -10.63611547912383 0 -33.43666565322172 -506.5924189629799 0
          -0.03727094350537876 547.665295137676 0 -0.09162624930333069 -431.98368746731956 0
          <InformationKey name="L2_NORM_RANGE" location="vtkDataArray" length="2">
            <Value index="0">
              0.85723287559
            </Value>
            <Value index="1">
              3735.8348769
            </Value>
          </InformationKey>
        </DataArray>
        <DataArray type="Float64" Name="Residual_P" format="ascii" RangeMin="-6.041068982939127" RangeMax="5.9087082678954985">
          -1.3905236983778688 -0.6762442241485795 4.181521507202691 1.6720492063909984 1.8405793045841503 1.96500786791526
          1.6860923222048554 5.9087082678954985 5.162519296317765 -0.2872347855268086 -0.4541592242888527 -0.09546825320692286
          -0.9693483173680189 -3.9220693839208254 -3.236788440883548 -1.3563571058491932 4.499176634957751 -3.086870379340094
          1.9126156748974608 -2.1412617085025993 -1.7834003778280065 3.599070329237133 -0.8553943511096375 -0.6369746523805713
          -0.8898156270149824 0.2531603302191212 0.02656027949418066 0.3510338812064415 0.11366316602297974 0.05746513167131451
          0.01222874656525665 0.015086729952666252 -0.43593314805391714 -0.5192014976437851 0.4349018362335335 0.056211098705616414
          0.05935313694668161 0.8644556026810228 0.12495811295223203 0.552729341255688 -0.23025131143728633 -2.8367342433168075
          -1.3251951216204663 -0.1806544886039818 -0.1877551855225518 -3.893123711205946 -1.1579080403822277 -6.041068982939127
          2.104283477596545 -1.4584524395273888 5.618482008506074 -2.6937601199021897 -0.3329804439354246 -3.734120269167735
          0.8132778825902595 0.5423827200873101 0.5503449120640163 -0.04260403295416737 0.507884073701957 0.7101266507093718
          0.2943749750194237 0.09178185284087803 0.6351705043353472 2.4151295337757523 -1.8248228848907924 1.9026753101563987
        </DataArray>
        <DataArray type="Float64" Name="Residual_GraP2" NumberOfComponents="3" format="ascii" RangeMin="902.7014093820209" RangeMax="10924.90495279283">
          -2280.34584653996 -2528.253537992863 0 -2098.6508966197844 -3698.3389307982716 0
          -544.9513168906033 -3533.767885475838 0 1013.9937604735276 -6351.061448044255 0
          1048.0067171525689 -6336.008835579934 0 314.93538850848677 -7136.112532391724 0
          -65.1553411585719 -6342.073806685348 0 1991.2055135645737 -6355.1262961939865 0
          1083.8153967242843 -4065.686789642161 0 -847.221526575191 -7062.328754532846 0
          -548.6746289613243 -8382.306541474323 0 -437.436118182432 -6352.134607768553 0
          -1386.0917955095256 -5413.636137836856 0 970.3071283542365 -3870.679998933062 0
          997.0549331920363 -4060.328429091528 0 -1076.0794982247426 -8039.428389828501 0
          -1452.5911590776795 -4204.032110167171 0 -5301.493925603681 -5053.088404146763 0
          -758.4460831698598 -3266.5087521040823 0 -1801.723579562255 -8263.146128206201 0
          -2744.190516928007 -3426.3270756595566 0 -700.2027539314358 -3077.1932110582484 0
          -750.898433906722 -1029.5679978073076 0 -472.5755041777147 -769.1178241020459 0
          -909.1998098761069 -998.8991263634309 0 -119.95952536431969 -1233.8394583619784 0
          -99.84593078699845 -1183.595506175212 0 -940.8166100740289 -1404.6772024847521 0
          -252.1931483317166 -2167.809857804019 0 -83.28683657780834 -1480.7823473819763 0
          170.39643184869055 -1439.0883686936777 0 833.1538563658111 -2568.841164698222 0
          -739.8943669983337 -2182.802354552978 0 -599.8209430374081 -2840.0402962319986 0
          290.2573962589953 -3639.146093484629 0 597.5709717105085 -3198.805747176242 0
          -57.97990798350634 -3376.831493336128 0 870.3791350062254 -3462.20614068399 0
          882.584553766975 -3432.635113497183 0 170.95674640918355 -3602.111415850445 0
          -38.34491895864892 -3462.7091565868027 0 1557.588678572943 -4226.122010196613 0
          1103.3679580469181 -4699.348215851262 0 254.2958997555774 -3341.5113793241007 0
          -877.0799128701019 -8746.035411603518 0 1261.737111088527 -4278.025935105558 0
          4414.756577436939 -7246.444790625881 0 588.9737812283663 -4802.275197442464 0
          3729.7198139269603 -10268.531459617676 0 2107.2677301355616 -8354.001155773767 0
          -539.1922228656774 -3527.3442792387063 0 620.0409030898221 -4480.84408910763 0
          1578.1189869357001 -8009.35667954362 0 2343.7997339010426 -7116.248610739375 0
          -121.10867704227348 -7640.022194158499 0 1352.777382120289 -7067.2191745918935 0
          1667.2574021303576 -7919.738598787253 0 1756.917311831048 -9498.061731667694 0
          487.8589931978495 -9308.761553203747 0 405.09638756649014 -9395.218166855468 0
          521.7541062501623 -8787.195840961871 0 3225.7933933617674 -9556.796537446477 0
          1702.0420756140882 -9577.023199892563 0 1137.5670357118179 -10600.507275558622 0
          -416.8532053014218 -4106.381058724721 0 1693.4704035225259 -9656.056202804222 0
          <InformationKey name="L2_NORM_RANGE" location="vtkDataArray" length="2">
            <Value index="0">
              902.70140938
            </Value>
            <Value index="1">
              10924.904953
            </Value>
          </InformationKey>
        </DataArray>
      </CellData>
      <Points>
        <DataArray type="Float32" Name="Points" NumberOfComponents="3" format="ascii" RangeMin="0" RangeMax="1.4142135623730951">
          0 1 0 0.20000000298023224 1 0
          0 0.7799999713897705 0 0.17500990629196167 0.8324676752090454 0
          0.14628949761390686 0.6488438844680786 0 0.4000000059604645 1 0
          0 0.5849999785423279 0 0.30190789699554443 0.7062488794326782 0
          0.4018622040748596 0.8597133755683899 0 0.14242489635944366 0.45817598700523376 0
          0.29257911443710327 0.5176876783370972 0 0.49305540323257446 0.6697210073471069 0
          0.6000000238418579 1 0 0 0.38999998569488525 0
          0.6244276165962219 0.8092629909515381 0 0.2831222116947174 0.36456531286239624 0
          0.5280297994613647 0.49493080377578735 0 0.43886861205101013 0.3865315914154053 0
          0.659912109375 0.6070019006729126 0 0.14862869679927826 0.22861619293689728 0
          0.800000011920929 1 0 0 0.19499999284744263 0
          0.791735827922821 0.7191417813301086 0 0.6928746104240417 0.44221389293670654 0
          0.39574238657951355 0.1925719976425171 0 0.7972490191459656 0.5503162145614624 0
          0.5838605761528015 0.2565388083457947 0 0 0 0
          1 1 0 0.7224256992340088 0.28607040643692017 0
          1 0.7983365058898926 0 0.2191116064786911 0 0
          0.841722309589386 0.3865504860877991 0 1 0.5966730117797852 0
          0.4382232129573822 0 0 0.6465445160865784 0.11541219800710678 0
          0.7272865176200867 0.12795010209083557 0 0.8639553785324097 0.2512752115726471 0
          1 0.3951736092567444 0 0.6558331847190857 0 0
          0.8922978043556213 0.11509300023317337 0 1 0.19681400060653687 0
          0.8700000047683716 0 0 1 0 0
          <InformationKey name="L2_NORM_RANGE" location="vtkDataArray" length="2">
            <Value index="0">
              0
            </Value>
            <Value index="1">
              1.4142135624
            </Value>
          </InformationKey>
        </DataArray>
      </Points>
      <Cells>
        <DataArray type="Int64" Name="connectivity" format="ascii" RangeMin="0" RangeMax="43">
          42 36 35 35 36 26
          26 17 24 2 6 9
          4 2 9 9 6 13
          9 13 19 4 9 10
          10 9 15 19 13 21
          19 21 27 9 19 15
          15 19 24 15 24 17
          15 17 10 19 27 31
          39 24 34 34 24 31
          24 39 35 24 19 31
          42 35 39 35 26 24
          42 43 40 40 43 41
          42 40 36 40 41 37
          37 41 38 40 37 36
          36 37 29 29 37 32
          32 37 38 29 32 23
          36 29 26 26 29 23
          32 38 33 23 32 25
          25 32 33 23 25 18
          18 25 22 23 18 16
          22 25 33 18 22 14
          16 18 11 23 16 26
          14 22 20 18 14 11
          11 14 8 16 11 10
          8 14 12 11 8 7
          17 26 16 17 16 10
          7 8 3 11 7 10
          2 4 3 4 10 7
          4 7 3 3 8 1
          3 1 0 2 3 0
          28 20 22 12 5 8
          8 5 1 20 12 14
          33 30 22 22 30 28
        </DataArray>
        <DataArray type="Int64" Name="offsets" format="ascii" RangeMin="3" RangeMax="198">
          3 6 9 12 15 18
          21 24 27 30 33 36
          39 42 45 48 51 54
          57 60 63 66 69 72
          75 78 81 84 87 90
          93 96 99 102 105 108
          111 114 117 120 123 126
          129 132 135 138 141 144
          147 150 153 156 159 162
          165 168 171 174 177 180
          183 186 189 192 195 198
        </DataArray>
        <DataArray type="UInt8" Name="types" format="ascii" RangeMin="5" RangeMax="5">
          5 5 5 5 5 5
          5 5 5 5 5 5
          5 5 5 5 5 5
          5 5 5 5 5 5
          5 5 5 5 5 5
          5 5 5 5 5 5
          5 5 5 5 5 5
          5 5 5 5 5 5
          5 5 5 5 5 5
          5 5 5 5 5 5
          5 5 5 5 5 5
        </DataArray>
      </Cells>
    </Piece>
  </UnstructuredGrid>
</VTKFile>
