<?xml version="1.0"?>
<VTKFile type="UnstructuredGrid" version="0.1" byte_order="LittleEndian" header_type="UInt32" compressor="vtkZLibDataCompressor">
  <UnstructuredGrid>
    <Piece NumberOfPoints="44" NumberOfCells="66">
      <PointData>
        <DataArray type="Float64" Name="ale_BC" NumberOfComponents="3" format="ascii" RangeMin="0" RangeMax="0">
          0 0 0 0 0 0
          0 0 0 0 0 0
          0 0 0 0 0 0
          0 0 0 0 0 0
          0 0 0 0 0 0
          0 0 0 0 0 0
          0 0 0 0 0 0
          0 0 0 0 0 0
          0 0 0 0 0 0
          0 0 0 0 0 0
          0 0 0 0 0 0
          0 0 0 0 0 0
          0 0 0 0 0 0
          0 0 0 0 0 0
          0 0 0 0 0 0
          0 0 0 0 0 0
          0 0 0 0 0 0
          0 0 0 0 0 0
          0 0 0 0 0 0
          0 0 0 0 0 0
          0 0 0 0 0 0
          0 0 0 0 0 0
          <InformationKey name="L2_NORM_RANGE" location="vtkDataArray" length="2">
            <Value index="0">
              0
            </Value>
            <Value index="1">
              0
            </Value>
          </InformationKey>
        </DataArray>
        <DataArray type="Float64" Name="ale_FIXNO" NumberOfComponents="3" format="ascii" RangeMin="1" RangeMax="1.4142135623730951">
          1 1 0 0 1 0
          1 0 0 -1 -1 0
          -1 -1 0 0 1 0
          1 0 0 -1 -1 0
          -1 -1 0 -1 -1 0
          -1 -1 0 -1 -1 0
          0 1 0 1 0 0
          -1 -1 0 -1 -1 0
          -1 -1 0 -1 -1 0
          -1 -1 0 -1 -1 0
          0 1 0 1 0 0
          -1 -1 0 -1 -1 0
          -1 -1 0 -1 -1 0
          -1 -1 0 1 1 0
          1 1 0 -1 -1 0
          1 0 0 0 1 0
          -1 -1 0 1 0 0
          0 1 0 -1 -1 0
          -1 -1 0 -1 -1 0
          1 0 0 0 1 0
          -1 -1 0 1 0 0
          0 1 0 1 1 0
          <InformationKey name="L2_NORM_RANGE" location="vtkDataArray" length="2">
            <Value index="0">
              1
            </Value>
            <Value index="1">
              1.4142135624
            </Value>
          </InformationKey>
        </DataArray>
        <DataArray type="Float64" Name="nsi_BC" NumberOfComponents="3" format="ascii" RangeMin="0" RangeMax="0">
          0 0 0 0 0 0
          0 0 0 0 0 0
          0 0 0 0 0 0
          0 0 0 0 0 0
          0 0 0 0 0 0
          0 0 0 0 0 0
          0 0 0 0 0 0
          0 0 0 0 0 0
          0 0 0 0 0 0
          0 0 0 0 0 0
          0 0 0 0 0 0
          0 0 0 0 0 0
          0 0 0 0 0 0
          0 0 0 0 0 0
          0 0 0 0 0 0
          0 0 0 0 0 0
          0 0 0 0 0 0
          0 0 0 0 0 0
          0 0 0 0 0 0
          0 0 0 0 0 0
          0 0 0 0 0 0
          0 0 0 0 0 0
          <InformationKey name="L2_NORM_RANGE" location="vtkDataArray" length="2">
            <Value index="0">
              0
            </Value>
            <Value index="1">
              0
            </Value>
          </InformationKey>
        </DataArray>
        <DataArray type="Float64" Name="nsi_FIXNO" NumberOfComponents="3" format="ascii" RangeMin="1" RangeMax="1.4142135623730951">
          1 1 0 0 1 0
          1 0 0 -1 -1 0
          -1 -1 0 0 1 0
          1 0 0 -1 -1 0
          -1 -1 0 -1 -1 0
          -1 -1 0 -1 -1 0
          0 1 0 1 0 0
          -1 -1 0 -1 -1 0
          -1 -1 0 -1 -1 0
          -1 -1 0 -1 -1 0
          0 1 0 1 0 0
          -1 -1 0 -1 -1 0
          -1 -1 0 -1 -1 0
          -1 -1 0 1 1 0
          1 1 0 -1 -1 0
          1 0 0 0 1 0
          -1 -1 0 1 0 0
          0 1 0 -1 -1 0
          -1 -1 0 -1 -1 0
          1 0 0 0 1 0
          -1 -1 0 1 0 0
          0 1 0 1 1 0
          <InformationKey name="L2_NORM_RANGE" location="vtkDataArray" length="2">
            <Value index="0">
              1
            </Value>
            <Value index="1">
              1.4142135624
            </Value>
          </InformationKey>
        </DataArray>
        <DataArray type="Float64" Name="lev_BC" format="ascii" RangeMin="-0.5" RangeMax="0.5">
          -0.5 -0.3 -0.5 -0.32499 -0.35371 -0.25
          -0.5 -0.198092 -0.109713 -0.357575 -0.207421 -0.006945
          -0.25 -0.5 -0.059263 -0.216878 0.02803 -0.061131
          0.142998 -0.351371 -0.25 -0.5 0.030858 0.192875
          -0.104258 0.199684 0.083861 -0.5 -0.25 0.222426
          -0.048337 -0.280888 0.341722 0.153327 -0.061777 0.146545
          0.227286 0.363955 0.354826 0.155833 0.392298 0.5
          0.37 0.5
        </DataArray>
        <DataArray type="Float64" Name="lev_FIXNO" format="ascii" RangeMin="0" RangeMax="0">
          0 0 0 0 0 0
          0 0 0 0 0 0
          0 0 0 0 0 0
          0 0 0 0 0 0
          0 0 0 0 0 0
          0 0 0 0 0 0
          0 0 0 0 0 0
          0 0
        </DataArray>
        <DataArray type="Float64" Name="Velocity" NumberOfComponents="3" format="ascii" RangeMin="0" RangeMax="0.9010748270634114">
          0 0 0 0.06305886195820351 0 0
          0 -0.19818741175046367 0 0.0637578729702643 -0.15803453581723412 0
          0.06800686789589101 -0.2980356613309713 0 0.10576954627137983 0 0
          0 -0.2875706359887925 0 0.13166766296351454 -0.29510513700235924 0
          0.1111369626404151 -0.16877786539477285 0 0.029649503499975645 -0.358841910425914 0
          0.2916220580030313 -0.5951184953175211 0 0.12837601335541665 -0.2611559995507468 0
          0.1278923995026763 0 0 0 -0.2911039083586763 0
          0.11790550322360771 -0.5082123348784867 0 -0.1649668401775394 -0.3291225172187991 0
          -0.0729605716285863 -0.10802419439508516 0 -0.24632523137381193 -0.25800522689841543 0
          -0.04242539839207865 -0.07685852604167695 0 -0.1976786605742274 -0.19800156777182468 0
          0.1751234611742057 0 0 0 -0.1625373602222037 0
          -0.007961046519267078 -0.26190695946872244 0 0.015789768413211468 -0.14111709232364322 0
          -0.8691440298727687 -0.22411156777279054 0 -0.005485714996890796 -0.12079155156691876 0
          -0.04466695873818969 -0.13174444186963927 0 0 0 0
          0 0 0 0.005729155459305853 -0.15199035441389325 0
          0 -0.3857591374589854 0 -0.4210531938119716 0 0
          -0.009794025712570964 -0.15153040384588884 0 0 -0.08119667210466895 0
          -0.9010748270634114 0 0 0.10815975690238011 -0.14403875557538673 0
          0.026889647187851414 -0.16562616727490256 0 0.002294673445426061 -0.15759545394477786 0
          0 -0.15405539415571362 0 0.11909952262680089 0 0
          0.01682468261432852 -0.22162074100960716 0 0 -0.18946419738678907 0
          -0.002418609314336504 0 0 0 0 0
          <InformationKey name="L2_NORM_RANGE" location="vtkDataArray" length="2">
            <Value index="0">
              0
            </Value>
            <Value index="1">
              0.90107482706
            </Value>
          </InformationKey>
        </DataArray>
        <DataArray type="Float64" Name="Pressure" format="ascii" RangeMin="-4052.412400978862" RangeMax="3852.852495977096">
          -4052.412400978862 -3936.2447626108014 -1983.3079465979636 -2398.5570503851986 -983.3327979952426 -3587.2850824859256
          -751.4007379604384 -1150.2555116269464 -2276.530541944032 0.9436462980562882 54.49903243944532 -439.9593776259566
          -3059.935714050424 445.89470897118946 -960.2579343552235 540.4657941074452 280.7878847932648 613.8842053641379
          -47.71274029631431 1725.9913015444677 -2564.695546067141 2077.4619100418636 -373.66131797613764 487.7151470507047
          1273.7702714072598 193.89252782526194 1004.6158585152209 3852.852495977096 -2432.38202855928 903.5329588944475
          -744.4039556456672 3599.4595207780703 704.0440740709156 61.46267399082234 1905.1915355435544 1352.3565488718207
          1241.2149177851059 964.3464176090923 695.1230298486325 1686.2519785085676 1162.4006143775518 1025.1751996511953
          1385.4848878252265 1248.7562458984553
        </DataArray>
        <DataArray type="Float64" Name="Proj_residual_U" NumberOfComponents="3" format="ascii" RangeMin="0" RangeMax="994.7138315887584">
          0 0 0 -13.807022791184433 3.439048455956913 0
          -5.696101640384686 -164.3811869699364 0 -8.299409496770258 -160.43498906756685 0
          -54.37690501694816 -228.25916508533047 0 -7.095504867436682 0 0
          0 -93.26667875101546 0 118.78237813335888 -383.71141476946036 0
          0.5950807173954741 -77.99694838642804 0 -393.38819692983293 211.39097684188908 0
          -528.7509413928499 -10.77260294853508 0 10.268990038821782 -14.280701872587963 0
          4.8633717324590515 -13.67454860899025 0 -141.79932323368348 182.6140967108223 0
          -4.818100294578074 7.722670140557356 0 -916.5132022368823 386.59947863322867 0
          -28.39168141303941 -14.881138045452461 0 -376.11186529503726 150.43769866876028 0
          -21.41788538228712 60.5962010653404 0 -79.31217424292508 192.2031236164325 0
          9.987575885913433 -0.1650732201884039 0 0 147.24868765120496 0
          -8.302576487716179 57.30280118096399 0 3.4309289737522444 -15.246829437382846 0
          43.574195869693035 61.81513105349203 0 3.2677325922356784 15.72044907264665 0
          -161.67398432895504 -9.229805344604017 0 0 0 0
          -0.06022806676219657 -0.48166707072656223 0 -2.8591450914164662 -0.8165747974003793 0
          -0.01226439422497297 31.88957418771636 0 82.6817365587152 3.2428829587443717 0
          2.506236151595134 -19.994119332878082 0 -0.2590273324601063 32.96647595793684 0
          -68.65877182373879 3.5677687540290224 0 -208.2673786361043 31.91874373247407 0
          44.68816684751917 59.88970123114218 0 11.692561293447792 -19.68069885540919 0
          2.4951048811070597 -25.38766022521392 0 -347.33188846158714 25.986273294860002 0
          -0.015406802358019103 140.51884522773767 0 5.015130469009421 19.11341605801722 0
          29.072285335278394 11.411844750801384 0 0 0 0
          <InformationKey name="L2_NORM_RANGE" location="vtkDataArray" length="2">
            <Value index="0">
              0
            </Value>
            <Value index="1">
              994.71383159
            </Value>
          </InformationKey>
        </DataArray>
        <DataArray type="Float64" Name="Proj_residual_P" format="ascii" RangeMin="-3.2645713590423844" RangeMax="2.3656216788520448">
          1.2621096167358812 1.274109775066483 1.035731849785405 1.2133701613533687 1.5489384795303638 1.3651771214427388
          0.4464238310454882 1.330262521685383 1.1556731284286639 0.03587286421998494 0.4134792033303066 -0.17422539331996245
          2.3656216788520448 -0.9278718814100981 0.5488392298779565 -2.00697224542763 0.180558405670687 -0.40971411263700985
          -1.0625307903193917 -2.4617926883649273 0.7795347772667335 -2.076437028135451 -0.5434873725894368 0.40033016927583986
          -1.0565758399945104 -0.16158327335561193 1.3922993879212107 -2.5589494627416856 0.00339421429508275 0.1612575655426335
          -0.47244059692563445 -3.2645713590423844 0.14882253379185056 -0.4487804606233398 -1.0908137378455405 1.041837574742989
          -0.4996618439683164 0.1659935746614008 0.25099419204205564 1.448549064196764 -0.7866234010542108 -0.19414615795466655
          -1.9254505533462607 -1.4449738823192686
        </DataArray>
        <DataArray type="Float64" Name="Proj_residual_GraP2" NumberOfComponents="3" format="ascii" RangeMin="2.8561373312651654" RangeMax="4048.5820969160636">
          1.2621096167358812 509.2191938041992 0 1.274109775066483 1322.2531073992625 0
          1.035731849785405 536.7068067171016 0 1.2133701613533687 990.1235662404056 0
          1.5489384795303638 1513.2012494391458 0 1.3651771214427388 2190.7726214009444 0
          0.4464238310454882 -264.0507694480521 0 1.330262521685383 1879.7026408841607 0
          1.1556731284286639 2548.6989535879147 0 0.03587286421998494 654.4999040537784 0
          0.4134792033303066 1232.0239035575453 0 -0.17422539331996245 1714.5395935238416 0
          2.3656216788520448 2919.0272021339974 0 -0.9278718814100981 -37.4343119348101 0
          0.5488392298779565 1883.3967164264702 0 -2.00697224542763 -371.61762022699025 0
          0.180558405670687 246.9863511749828 0 -0.40971411263700985 344.49251753128914 0
          -1.0625307903193917 638.0594407135313 0 -2.4617926883649273 -1423.9671960060803 0
          0.7795347772667335 664.4594215328068 0 -2.076437028135451 -388.9327678842819 0
          -0.5434873725894368 137.29576679194776 0 0.40033016927583986 273.7575989207155 0
          -1.0565758399945104 -2029.2589407577 0 -0.16158327335561193 229.31875168656902 0
          1.3922993879212107 -161.2060768187104 0 -2.5589494627416856 -844.5725433463867 0
          0.00339421429508275 2.856135314433793 0 0.1612575655426335 -17.300875303480318 0
          -0.47244059692563445 -76.32155606719543 0 -3.2645713590423844 -3795.8667550094724 0
          0.14882253379185056 155.99916520146934 0 -0.4487804606233398 -6.3991811184115015 0
          -1.0908137378455405 -4048.581949966514 0 1.041837574742989 -820.620532204749 0
          -0.4996618439683164 -519.3320242850607 0 0.1659935746614008 -184.13941695582352 0
          0.25099419204205564 -14.96888299391404 0 1.448549064196764 -863.4018569493624 0
          -0.7866234010542108 -552.1557492169029 0 -0.19414615795466655 -263.14430091065236 0
          -1.9254505533462607 -1052.3575237887574 0 -1.4449738823192686 -676.8124446688785 0
          <InformationKey name="L2_NORM_RANGE" location="vtkDataArray" length="2">
            <Value index="0">
              2.8561373313
            </Value>
            <Value index="1">
              4048.5820969
            </Value>
          </InformationKey>
        </DataArray>
        <DataArray type="Float64" Name="ALEdispl" NumberOfComponents="3" format="ascii" RangeMin="0" RangeMax="0">
          0 0 0 0 0 0
          0 0 0 0 0 0
          0 0 0 0 0 0
          0 0 0 0 0 0
          0 0 0 0 0 0
          0 0 0 0 0 0
          0 0 0 0 0 0
          0 0 0 0 0 0
          0 0 0 0 0 0
          0 0 0 0 0 0
          0 0 0 0 0 0
          0 0 0 0 0 0
          0 0 0 0 0 0
          0 0 0 0 0 0
          0 0 0 0 0 0
          0 0 0 0 0 0
          0 0 0 0 0 0
          0 0 0 0 0 0
          0 0 0 0 0 0
          0 0 0 0 0 0
          0 0 0 0 0 0
          0 0 0 0 0 0
          <InformationKey name="L2_NORM_RANGE" location="vtkDataArray" length="2">
            <Value index="0">
              0
            </Value>
            <Value index="1">
              0
            </Value>
          </InformationKey>
        </DataArray>
        <DataArray type="Float64" Name="ALEveloc" NumberOfComponents="3" format="ascii" RangeMin="0" RangeMax="0.9165535299829308">
          0 0 0 0.11875849833186021 0 0
          0 0.059138376315069706 0 0.14098950537630792 0.030944339027008702 0
          0.2129156288176762 0.10572694721754311 0 0.1495463021676287 0 0
          0 0.10389918950698547 0 0.31234137394526096 0.04997453158128845 0
          0.17141885356668038 -0.06994286431935842 0 0.18396624203018208 0.13975041705783525 0
          0.8562639572476693 0.3269287519364621 0 0.16201102446264382 -0.1511603358865681 0
          0.0903258571482183 0 0 0 0.10028274955988155 0
          0.08522850763688045 -0.5124885931400646 0 -0.07585693240362572 0.07054567293827849 0
          0.027066597762024466 -0.05889877926290589 0 -0.618978686362998 -0.06956172769166695 0
          -0.03132534514516892 0.0021669169195204932 0 -0.14638575019435413 0.03317043107394895 0
          0.015368419771698788 0 0 0 0.034735800786726286 0
          -0.00471222174319578 -0.12004252302009105 0 0.029925325804443903 -0.04210204646166605 0
          -0.6812631669700415 -0.10468106599051231 0 0.003590615388566363 -0.046483910511653466 0
          0.10947636249887605 -0.05431855737638609 0 0 0 0
          0 0 0 0.072872682150882 -0.04729046531988671 0
          0 -0.3641071039283463 0 -0.384868011268264 0 0
          0.02443088823477831 -0.040778538081570226 0 0 -0.02555339979303206 0
          -0.8806713393244302 0 0 0.16385331886922183 -0.08311935090275065 0
          0.12423987290993854 -0.057968585802613215 0 0.0402644751197498 -0.03695823200367061 0
          0 -0.035627014283559695 0 0.27604625810146577 0 0
          0.0503400784773172 -0.02316454507787886 0 0 -0.029397985837805587 0
          0.07886137948220238 0 0 0 0 0
          <InformationKey name="L2_NORM_RANGE" location="vtkDataArray" length="2">
            <Value index="0">
              0
            </Value>
            <Value index="1">
              0.91655352998
            </Value>
          </InformationKey>
        </DataArray>
        <DataArray type="Float64" Name="LEVEL" format="ascii" RangeMin="-0.5433223691281063" RangeMax="0.5493415616622267">
          -0.5433223691281063 -0.442601375323712 -0.4093027541759217 -0.3131558913756923 -0.3049743821782108 -0.3393405793250396
          -0.49914916946006466 -0.1446835814903713 -0.21913962186285643 -0.3618752349061262 -0.22106981802174835 -0.010050722536106635
          -0.2357737715242227 -0.5024820848421856 -0.06848025502085786 -0.21647459331708124 0.028048936070108967 -0.054694725604727795
          0.13944018952497547 -0.34823048482315566 -0.24921775079457295 -0.4990070539543694 0.026458947866519908 0.2597068573386764
          -0.08893938377180657 0.2825942707592408 0.08425428936818392 -0.500684852002185 -0.2503782099443712 0.22460578190744343
          -0.05539662320519738 -0.2721311694959243 0.4109245122660069 0.1521983633536712 -0.045499709013242275 0.14481631236743223
          0.22497323663782626 0.3671968328120309 0.5493415616622267 0.1521578620436932 0.39027737636840093 0.5014277807122175
          0.37149237578576794 0.5002548624098215
        </DataArray>
      </PointData>
      <CellData>
        <DataArray type="UInt8" Name="vtkGhostType" format="ascii" RangeMin="0" RangeMax="0">
          0 0 0 0 0 0
          0 0 0 0 0 0
          0 0 0 0 0 0
          0 0 0 0 0 0
          0 0 0 0 0 0
          0 0 0 0 0 0
          0 0 0 0 0 0
          0 0 0 0 0 0
          0 0 0 0 0 0
          0 0 0 0 0 0
          0 0 0 0 0 0
        </DataArray>
        <DataArray type="Float64" Name="Residual_U" NumberOfComponents="3" format="ascii" RangeMin="5.196503413848139" RangeMax="2318.2717995912726">
          112.18165602665199 80.70122902366761 0 197.67266383307077 29.33319486313502 0
          87.60197777996402 116.53445482961969 0 -10.708367893432918 -170.56642899395334 0
          -136.00936950790242 -87.47736652921519 0 -10.708367893432918 17.17108456564653 0
          -349.4454729391736 272.7291045638491 0 -584.9686991854066 278.41178709570846 0
          -1943.0926454589476 1264.4267902664458 0 22.740143325497765 181.70601504324958 0
          22.740143325497765 119.89626444574108 0 -292.84880155846014 291.92234330697005 0
          -383.60001307454934 211.50360132310135 0 -842.2276145650577 83.11137044584937 0
          -1441.4692992721946 830.1405728459432 0 26.3954323036221 66.73837082471208 0
          -732.0983764357338 74.639139390568 0 191.16322763278595 46.330302422500715 0
          -680.5990530525089 131.4928470562916 0 230.39991242159869 132.26563697398305 0
          58.44220895619307 25.343234191416787 0 -755.4994589824939 -93.3741098141228 0
          -11.533948079933321 127.38107211946695 0 1.7452008039710851 103.54879260550842 0
          -14.653037629802633 221.04327569772212 0 20.750555643067365 -72.22482208626758 0
          0.2134797353960018 -21.68903222672043 0 21.22808173642628 -40.45213802331415 0
          18.938443967980472 -8.257491350586218 0 13.136529780599435 -3.0910522271862018 0
          7.56047251407869 -4.439831725332066 0 2.524430557553845 -4.542124843090923 0
          -29.617906467227964 9.512444907992592 0 -38.40310984050015 8.358976166849745 0
          -0.7059315940924662 -33.92236564444079 0 5.599818750232321 -17.785262022707702 0
          -2.828404379393969 -20.25666646225637 0 25.92186873493766 -27.90434369047921 0
          -1.494690093342796 89.67685294962924 0 0.8899595917705323 -24.904625212059642 0
          1.1151459015685965 73.02311845494206 0 -34.66172494743887 85.13080233922085 0
          -83.14654191400177 42.39920821989415 0 -48.981491652285165 12.065827072786274 0
          -55.477032161251536 -28.20635204270659 0 -32.507300065628606 89.10143941734327 0
          5.599806418384752 51.214684373863946 0 13.142771478905065 -102.25281469106406 0
          -1.6815340709105466 -83.30347800349983 0 23.607905203302675 -143.43117574801437 0
          284.3145714644678 185.62760390231418 0 -502.4587691787889 232.11272654596482 0
          35.87106376883813 -178.6315018930093 0 431.491025086787 -843.4191682599505 0
          -5.022430840735156 -216.06689077333618 0 274.4996334482959 -730.4015441019445 0
          -30.60445312978085 -214.56620594327825 0 -10.278415022119546 -82.30453759531576 0
          -10.745361559017638 -59.42175283069412 0 -9.378754398523887 -132.97184800073182 0
          -60.55729200476253 -78.89430848798168 0 -1.2395446093097569 -39.63590846119902 0
          -10.205212879226623 -39.635908461198994 0 18.22287355640081 3.7979822052702534 0
          -0.026390258220110395 75.61634902393833 0 -0.06342678528512012 -155.21369899318438 0
          <InformationKey name="L2_NORM_RANGE" location="vtkDataArray" length="2">
            <Value index="0">
              5.1965034138
            </Value>
            <Value index="1">
              2318.2717996
            </Value>
          </InformationKey>
        </DataArray>
        <DataArray type="Float64" Name="Residual_P" format="ascii" RangeMin="-3.6369281509078375" RangeMax="4.392743270113747">
          -2.2458060321972413 -0.8138865739295217 3.2529005345354602 0.6665519127594499 0.9605325365740891 0.22629574933152652
          -0.9668431404588402 2.032087740144013 -1.1041192644781654 -1.9893323817617818 -2.163541674509121 -1.4452865832172956
          -3.095425703583694 -1.292056273770617 -2.7320803477850033 -2.7877252918056774 3.5243051419759395 -3.3545438672518757
          2.7123691858836274 -3.6369281509078375 -1.815437002096807 4.392743270113747 -1.9069749834036553 -1.1188709448394252
          -1.87943476924357 0.3946963024343431 0.16164107246151144 0.33565499841484014 0.028063664234101143 -0.00824430654096893
          0.10799329872682886 -0.09834842147511086 0.47088159213836966 0.3767553727799981 0.4234615705629935 0.007413509672877655
          0.24647176171842383 0.4895339474960516 -0.5913627839219574 0.8281798539353908 -0.7931567954030312 -2.429267512576341
          -1.347063958172145 0.5976812489725405 0.480422574244865 -2.8526808679726345 -0.2647654114286227 -1.936709891493376
          2.586515283476343 0.5911294121952155 2.0098720023948995 -1.5858185304020798 1.1704995038854864 1.3898128822547546
          1.1518061668979402 2.3551175985351946 1.2491811698019637 1.180883454375725 1.2586021723180298 1.2651619647378294
          0.056906506745880825 1.3137075437380392 1.4166466991474382 2.9006217458002337 -1.4720251075012614 1.951110972222148
        </DataArray>
        <DataArray type="Float64" Name="Residual_GraP2" NumberOfComponents="3" format="ascii" RangeMin="1208.4590812133522" RangeMax="11128.974361360986">
          -1024.0477876065179 -2269.755271599659 0 -929.7527162229596 -2876.9999181235007 0
          -296.3140131920936 -3336.2987377134054 0 -343.0776103609104 -6317.472864807818 0
          2167.9654078772874 -5206.197600165426 0 -185.02392853519382 -6139.976650931427 0
          466.9358195630524 -7501.970636012951 0 2422.1208948496105 -5211.349014194497 0
          1655.042458252372 -3275.930449701981 0 -472.34136915097577 -8367.011287541918 0
          -305.524166617588 -9104.567107360166 0 -1186.413889904789 -7546.652025906113 0
          -2710.804475531675 -6038.583011635262 0 982.0333523488825 -3620.534548448184 0
          927.0898544216805 -3230.9718089076464 0 -1156.4562314319555 -8551.356413709953 0
          -1006.1098158861585 -3500.828853639113 0 -7732.443125943655 -4984.637611287633 0
          -591.3615030356668 -2940.6631987778965 0 -3167.766649738525 -9171.448039248568 0
          -1404.3590821889347 -3006.0955414026885 0 -515.1155235504773 -2692.831403316495 0
          -1051.7587840520841 -1734.5309135450257 0 -412.15700903638924 -1136.0017389375762 0
          -619.306291860812 -1818.313065199627 0 -147.34904675995494 -1484.9989381236974 0
          -218.9697830080408 -1663.908224268261 0 -600.6869874767826 -1579.3481647551703 0
          -96.07873595527415 -2138.5551280284053 0 -45.2165918237672 -1931.673029339825 0
          48.04085994654815 -1916.3457504429775 0 492.321949622607 -2569.8742290152986 0
          -272.5630501401265 -2143.9804589592823 0 -155.65837325283155 -2692.5084169214506 0
          114.96401935738137 -3144.7257701899366 0 321.01789487800227 -3027.9528686493913 0
          55.62197182654625 -3100.02554628973 0 455.7413517688909 -3158.030396869535 0
          376.72330528689724 -3349.473627664832 0 230.9783218382076 -3202.9896862236747 0
          114.61259337975417 -3358.0331635224647 0 1188.1067664389038 -4303.278383758456 0
          865.9650295742669 -3950.225213363674 0 307.3031087624104 -2964.323447587434 0
          -685.207863728212 -7781.049416622269 0 701.1445083781086 -4388.7105911683775 0
          4177.419062396257 -7661.458838759663 0 573.6353559539283 -4008.7185095385566 0
          3520.9986208226946 -10557.302640731432 0 2057.413965716314 -8679.026113990429 0
          -34.610660770503266 -3044.3987826827324 0 615.1813095728871 -3578.8698103857137 0
          1539.8004334164962 -8341.894736430431 0 2471.6282578815944 -6511.476750034037 0
          -65.16866503600613 -7697.001054670778 0 1308.0981879617875 -6453.912737308894 0
          1878.8136659787888 -8001.057228977579 0 1670.1961457345476 -9427.591461032438 0
          580.8381918403029 -9265.096442438333 0 446.8928731234108 -9405.020247185905 0
          661.5675875393044 -7820.678032359199 0 2636.74684217751 -9308.404299287247 0
          1744.7984006243782 -9320.244249702044 0 2476.2008399164133 -10691.109412741409 0
          -260.59708604476407 -3996.09562283948 0 1402.7299673579337 -8370.270638532074 0
          <InformationKey name="L2_NORM_RANGE" location="vtkDataArray" length="2">
            <Value index="0">
              1208.4590812
            </Value>
            <Value index="1">
              11128.974361
            </Value>
          </InformationKey>
        </DataArray>
      </CellData>
      <Points>
        <DataArray type="Float32" Name="Points" NumberOfComponents="3" format="ascii" RangeMin="0" RangeMax="1.4142135623730951">
          0 1 0 0.20000000298023224 1 0
          0 0.7799999713897705 0 0.17500990629196167 0.8324676752090454 0
          0.14628949761390686 0.6488438844680786 0 0.4000000059604645 1 0
          0 0.5849999785423279 0 0.30190789699554443 0.7062488794326782 0
          0.4018622040748596 0.8597133755683899 0 0.14242489635944366 0.45817598700523376 0
          0.29257911443710327 0.5176876783370972 0 0.49305540323257446 0.6697210073471069 0
          0.6000000238418579 1 0 0 0.38999998569488525 0
          0.6244276165962219 0.8092629909515381 0 0.2831222116947174 0.36456531286239624 0
          0.5280297994613647 0.49493080377578735 0 0.43886861205101013 0.3865315914154053 0
          0.659912109375 0.6070019006729126 0 0.14862869679927826 0.22861619293689728 0
          0.800000011920929 1 0 0 0.19499999284744263 0
          0.791735827922821 0.7191417813301086 0 0.6928746104240417 0.44221389293670654 0
          0.39574238657951355 0.1925719976425171 0 0.7972490191459656 0.5503162145614624 0
          0.5838605761528015 0.2565388083457947 0 0 0 0
          1 1 0 0.7224256992340088 0.28607040643692017 0
          1 0.7983365058898926 0 0.2191116064786911 0 0
          0.841722309589386 0.3865504860877991 0 1 0.5966730117797852 0
          0.4382232129573822 0 0 0.6465445160865784 0.11541219800710678 0
          0.7272865176200867 0.12795010209083557 0 0.8639553785324097 0.2512752115726471 0
          1 0.3951736092567444 0 0.6558331847190857 0 0
          0.8922978043556213 0.11509300023317337 0 1 0.19681400060653687 0
          0.8700000047683716 0 0 1 0 0
          <InformationKey name="L2_NORM_RANGE" location="vtkDataArray" length="2">
            <Value index="0">
              0
            </Value>
            <Value index="1">
              1.4142135624
            </Value>
          </InformationKey>
        </DataArray>
      </Points>
      <Cells>
        <DataArray type="Int64" Name="connectivity" format="ascii" RangeMin="0" RangeMax="43">
          42 36 35 35 36 26
          26 17 24 2 6 9
          4 2 9 9 6 13
          9 13 19 4 9 10
          10 9 15 19 13 21
          19 21 27 9 19 15
          15 19 24 15 24 17
          15 17 10 19 27 31
          39 24 34 34 24 31
          24 39 35 24 19 31
          42 35 39 35 26 24
          42 43 40 40 43 41
          42 40 36 40 41 37
          37 41 38 40 37 36
          36 37 29 29 37 32
          32 37 38 29 32 23
          36 29 26 26 29 23
          32 38 33 23 32 25
          25 32 33 23 25 18
          18 25 22 23 18 16
          22 25 33 18 22 14
          16 18 11 23 16 26
          14 22 20 18 14 11
          11 14 8 16 11 10
          8 14 12 11 8 7
          17 26 16 17 16 10
          7 8 3 11 7 10
          2 4 3 4 10 7
          4 7 3 3 8 1
          3 1 0 2 3 0
          28 20 22 12 5 8
          8 5 1 20 12 14
          33 30 22 22 30 28
        </DataArray>
        <DataArray type="Int64" Name="offsets" format="ascii" RangeMin="3" RangeMax="198">
          3 6 9 12 15 18
          21 24 27 30 33 36
          39 42 45 48 51 54
          57 60 63 66 69 72
          75 78 81 84 87 90
          93 96 99 102 105 108
          111 114 117 120 123 126
          129 132 135 138 141 144
          147 150 153 156 159 162
          165 168 171 174 177 180
          183 186 189 192 195 198
        </DataArray>
        <DataArray type="UInt8" Name="types" format="ascii" RangeMin="5" RangeMax="5">