<?xml version="1.0"?>
<VTKFile type="UnstructuredGrid" version="0.1" byte_order="LittleEndian" header_type="UInt32" compressor="vtkZLibDataCompressor">
  <UnstructuredGrid>
    <Piece NumberOfPoints="109" NumberOfCells="77">
      <PointData>
        <DataArray type="Float64" Name="Velocity" NumberOfComponents="3" format="ascii" RangeMin="0" RangeMax="1.6098788362935328">
          0 0 0 -0.7233642194033736 -0.5733263964328581 0
          -0.6020978002869166 -1.0717092829827093 0 1.8602176770181775e-16 5.788099542623514e-16 0
          -0.8711575895382507 -0.6320352095202887 0 -0.8105243799800224 -0.8812266527952143 0
          -0.35866394427876414 -0.18036154583185338 0 0 0 0
          -0.3616821097016868 -0.28666319821642905 0 -0.7203460539804508 -0.46702474404828254 0
          -0.6288929761704009 -0.6317453561410469 0 -0.5682597666121723 -0.8809367994159725 0
          -0.7956627996745906 -1.1709015352535885 0 -0.30104890014345814 -0.5358546414913544 0
          1.8294685999628067e-17 1.5388567634788269e-16 0 6.646570887201988e-17 2.0128054553116464e-16 0
          -0.17933197213938207 -0.09018077291592669 0 -0.3601730269902254 -0.23351237202414127 0
          -0.7197086780752114 -0.7564860044681306 0 -0.3978313998372953 -0.5854507676267939 0
          -0.3144464880852004 -0.31587267807052344 0 -0.2841298833060861 -0.4404683997079862 0
          -0.7972609044708122 -0.6026808029765733 0 -0.853170146205316 -0.6028236494166943 0
          -0.9450542746056895 -0.661389616064004 0 -0.7954331338067311 -0.6942606069942098 0
          -0.7063110901334695 -0.976467967888962 0 -0.765116529027617 -0.8188563286316723 0
          -0.9147376698265751 -0.7859853377014668 0 -0.8549606468444122 -0.9172513078250858 0
          -0.1808410548508434 -0.14333159910821452 0 -0.3609275683459561 -0.2600877851202852 0
          -0.7777643784264159 -0.5203184166806912 0 -0.7218551366919121 -0.5201755702405704 0
          -0.6743008271228061 -0.6941156803045885 0 -0.5816573545539145 -0.6609548359951412 0
          -0.6761285977868872 -0.6025358762869525 0 -0.5513407497748002 -0.7855505576326041 0
          -0.6439842223436919 -0.8187114019420515 0 -0.5851787834495444 -0.9763230411993407 0
          -0.4261948249591292 -0.6607025995619793 0 -0.6988802999807536 -1.121305409118149 0
          -0.8475298566916963 -1.062088749054273 0 -0.596747099755943 -0.8781761514401912 0
          -0.4515733502151873 -0.803781962237032 0 -0.34944014999037676 -0.5606527045590741 0
          -0.2925893917247721 -0.48816152059967033 0 -0.26899795820907313 -0.13527115937389003 0
          -0.08966598606969103 -0.045090386457963344 0 -0.1800865134951127 -0.11675618601207063 0
          -0.35941848563449474 -0.20693695892799732 0 -0.13449897910453656 -0.06763557968694503 0
          -0.18046378417297804 -0.1300438925601426 0 -0.17970924281724737 -0.10346847946399865 0
          -0.787512641448614 -0.5614996098286323 0 -0.6128207884488032 -0.7398331189685963 0
          -0.6751476562385806 -0.8975896849155068 0 -0.8550854018166532 -0.7401229723478383 0
          -0.7357808657968091 -0.6483982416405811 0 -0.7769204734125829 -1.0192783584716172 0
          -0.5241602249855652 -0.8409790568386116 0 -0.4388840875871583 -0.7322422808995056 0
          -0.7173278885575283 -0.36072309166370675 0 0 0 0
          0 0 0 -0.5344217329374281 -0.6901643158492355 0
          2.1247264108118978e-17 1.3060873322812109e-17 0 0 0 0
          -5.3090349957778046e-17 -1.762488632000222e-16 0 0 0 0
          -0.35866394427876414 -0.18036154583185338 0 0 0 0
          1.0623632054059489e-17 6.5304366614060544e-18 0 -0.26721086646871406 -0.34508215792461777 0
          -0.26721086646871406 -0.3450821579246178 0 1.0623632054059489e-17 6.5304366614060544e-18 0
          0 0 0 -2.6545174978889023e-17 -8.81244316000111e-17 0
          -0.13360543323435703 -0.1725410789623089 0 -0.17933197213938207 -0.09018077291592669 0
          0 0 0 1.593544808108923e-17 9.795654992109083e-18 0
          5.3118160270297446e-18 3.2652183307030272e-18 0 -0.9000698382111714 -0.7007562942059211 0
          -0.8849115358216142 -0.7630541550246526 0 -0.7992078162065116 -0.515188969105911 0
          -0.9882694474375815 -1.0253252729147002 0 0 0 0
          -0.3996039081032558 -0.2575944845529555 0 -0.835182702872381 -0.5736120893130999 0
          -0.899396913708802 -0.9532759628549573 0 -0.8926010273183462 -0.6269057619455083 0
          -0.9512639707259076 -0.8444631766556417 0 -0.9188276509620179 -0.6441476890047563 0
          -0.9330008202762414 -0.8152242571785543 0 -0.9892277990622651 -1.270093787524467 0
          -1.4943239570256162e-16 -2.710386015665861e-16 0 -0.49461389953113266 -0.6350468937622336 0
          -0.9319409627838537 -0.6527686525343801 0 -0.9820026171394088 -0.6760668193358617 0
          -0.9668443147498516 -0.7383646801545929 0 -0.9238692450514083 -0.8006047974400106 0
          -0.9668295102398886 -0.6704382640673245 0 -0.9334570764805115 -0.719560487180257 0
          -0.9694326108710036 -0.7512877060049407 0 -0.9844851557187198 -0.6854717285928182 0
          -1.0110409937080707 -0.7131972065320227 0 -0.9516564033403688 -0.6648097087987872 0
          -0.972020906992156 -0.7642107318552884 0
          <InformationKey name="L2_NORM_RANGE" location="vtkDataArray" length="2">
            <Value index="0">
              0
            </Value>
            <Value index="1">
              1.6098788363
            </Value>
          </InformationKey>
        </DataArray>
        <DataArray type="Float64" Name="Pressure" format="ascii" RangeMin="1371.5260483015663" RangeMax="1591.3190804867131">
          1443.3911514000813 1490.038266062796 1432.3596019798697 1403.9337576989105 1547.913017162177 1519.0736851207141
          1474.4868988487428 1421.797779206378 1430.7821571821805 1497.8104561801006 1455.785698370853 1426.94636632939
          1430.9200182552415 1418.1466798393903 1409.110564228375 1428.7364217327197 1440.1505059999781 1444.6426949878792
          1487.4296917457837 1420.0152912418087 1443.239737394843 1427.8413940310547 1518.9756416124865 1527.2905080197534
          1576.8503927118677 1517.6713544539803 1475.7166435502918 1503.251688433249 1562.4307266911364 1501.8055961985522
          1401.1541027418734 1437.7124260850298 1502.2392275287148 1493.9243611214483 1471.6076950583185 1438.6594145248814
          1472.9119822168245 1424.23974850415 1457.188029037587 1429.6529841546303 1427.3938801802224 1431.6398101175557
          1457.7287627658156 1425.467654748525 1425.25314090963 1419.0809855405996 1422.9940369352225 1449.326869396778
          1422.982309575595 1418.0588143917691 1451.5729638907285 1428.97291780863 1409.6064585668214 1426.511170216717
          1510.6074345706006 1447.923721781234 1466.4523362939394 1540.051040572558 1495.2916683354022 1466.7227031580537
          1425.3603978290773 1426.3235105449262 1505.5826462974044 1400.204407012674 1411.4238192897512 1421.5331306789099
          1371.5260483015663 1489.8615045360984 1453.5390857665298 1481.2777077180149 1458.5032327935778 1405.8141131512123
          1391.4749337956587 1455.6973176075044 1437.5361082227196 1430.6937764188324 1485.5696061270567 1467.4083967422723
          1461.5528571748885 1434.9635260416644 1408.618966220482 1381.5004910486127 1401.449376542705 1558.4507166422127
          1551.2408836318473 1465.4229805924806 1450.0013294320652 1487.1899836293646 1476.3064821109224 1506.667998877329
          1484.53750727639 1511.0967702259431 1511.3462517869639 1543.9735814689056 1536.8884892390497 1429.4804345306138
          1414.2873707578403 1421.8839026442267 1560.4119870903867 1591.3190804867131 1584.1092474763477 1549.659607965093
          1571.8170993400975 1571.2799820592809 1569.2695916178232 1560.656654918058 1571.9713822795486 1552.3151181934818
          1554.429935759299
        </DataArray>
        <DataArray type="Float64" Name="Temperature" format="ascii" RangeMin="80.92625929290725" RangeMax="962.0233912444007">
          920.9715657564952 373.8103350310354 592.2877665610177 279.1630541963707 418.75468714177197 527.9934029067633
          699.3587228983401 904.121127876393 371.0924876288144 425.77810753561045 387.25411575175605 496.4928315167474
          630.3338552488104 435.7254103786942 274.388454530491 269.6056028836848 591.7285987714696 325.2142786476805
          457.6237593292598 452.3611548896508 354.82799832749527 383.04921720021605 396.28251108640376 444.85590013288174
          441.2268631971404 438.1892232355159 560.1405847338908 492.8085811180116 495.846221079636 569.1475409400242
          369.7335639277038 348.1533831382475 448.3676103298008 399.79422128332294 422.4389375405078 393.9760061121164
          380.53222539139574 448.59536399461206 477.0582954230036 544.3902990388826 439.7710243584817 611.3108109049142
          620.3177671110476 541.3475050692306 514.0065884698561 444.0432826341725 409.3873137894551 435.532334219008
          537.9135367080345 274.93236420371534 302.27517415711344 359.0223505938806 322.33296406570975 227.53176434172119
          422.32506070810246 435.5171507675599 518.599440078447 467.01772215757603 409.3607243134559 590.229175922469
          527.6770467695435 476.8888064141688 477.74588004018534 887.2706899962913 80.92625929290725 400.69789647247677
          368.37464022659327 276.429121579875 260.04815157099875 281.72161323409784 279.3360696665464 484.0984746445994
          224.65044975975033 338.56350902617595 330.37302402173776 322.40188090323426 279.07536740698635 270.8848824025483
          304.72419571436205 180.1311644797268 282.5123669687533 296.5125449931719 152.78835452632876 454.12229267735825
          481.431971618606 523.1595391062106 692.6099550398063 962.0233912444007 742.5914651753058 470.9571131239912
          610.3016789732848 493.5466159181817 600.2855908355222 467.38673955766086 548.0659059575789 668.3799439366028
          269.61385486461126 468.9968994006072 454.30680137740063 452.46295122482456 479.7726301660725 521.9560635186075
          465.5575552474376 466.9474614217154 508.6488593162144 489.91757898244043 526.984270975134 478.6521592700507
          537.5250884663565
        </DataArray>
        <DataArray type="Float64" Name="Density" format="ascii" RangeMin="0.3180067131026892" RangeMax="3.7803538585694563">
          0.33218169588790764 0.8184094122280878 0.5165223964591495 1.0958824671775336 0.7305706800935694 0.5794199224711856
          0.43744345578428523 0.3383726882880227 0.8244033678298034 0.7185195555221153 0.7899977924925307 0.6161819006388107
          0.4853458116362402 0.7021162624223519 1.1149517828693416 1.1347312270417493 0.5170104963875286 0.9407025357240298
          0.6685183851160533 0.6762956838152094 0.8621920987620892 0.7986699432872818 0.7719994903101606 0.6877056064360408
          0.693361900861518 0.6981684632008954 0.5461662748877125 0.6207884933405289 0.6169854353460928 0.5375230051459936
          0.8274333910279092 0.8787215962685423 0.6823193503038829 0.7652184055975394 0.7241990957526222 0.7765191073348606
          0.8039526646209019 0.6819729340341749 0.6412840936059371 0.5619679430688816 0.6956572389547744 0.500449020563976
          0.493182547393919 0.565126639936043 0.5951867221940784 0.6889641360244971 0.7472871930146613 0.7024275180994873
          0.5687343331231038 1.1127460292410347 1.0120907131411367 0.8521193626844598 0.949111417953419 1.3445590661270042
          0.724394370688277 0.7024520068575032 0.5899155936829726 0.6550712790173532 0.747335732050536 0.5183239139261397
          0.5797672998104566 0.6415120096399158 0.640361140428466 0.3447988308717974 3.7803538585694563 0.7634926443856388
          0.8304857695669597 1.106720937465103 1.1764355744478683 1.0859298051914832 1.0952036983363225 0.6319579849990903
          1.3618040689645057 0.9036115482660636 0.926013549330846 0.9489085352741974 1.09622679858873 1.1293723513256353
          1.003956695530349 1.6983729465201214 1.0828902814416297 1.031760381620883 2.0023116128580063 0.6736729324030107
          0.6354582051312001 0.5847736181972305 0.4417058899477579 0.3180067131026892 0.4119760472944736 0.6495918376690716
          0.50127651146594 0.619860184854859 0.5096405798308739 0.6545540784213714 0.5581991020642207 0.4577185466931849
          1.134696496703255 0.6523068637948828 0.6733993320152671 0.6761435289881238 0.6376560006593897 0.5861219324002124
          0.6571258335930916 0.6551698464021395 0.6014559768969131 0.6244517643415676 0.5805294644021163 0.6391486816733061
          0.5691453350584998
        </DataArray>
      </PointData>
      <CellData>
        <DataArray type="UInt8" Name="vtkGhostType" format="ascii" RangeMin="0" RangeMax="1">
          0 0 0 0 0 1
          1 1 1 0 1 1
          0 0 0 0 0 0
          0 0 0 0 0 0
          0 0 0 0 0 0
          0 0 0 0 0 0
          0 1 0 1 1 0
          0 0 0 0 0 0
          0 0 0 0 0 0
          0 0 0 0 1 0
          1 1 0 0 0 0
          0 0 0 0 1 1
          1 1 1 1 1
        </DataArray>
      </CellData>
      <Points>
        <DataArray type="Float32" Name="Points" NumberOfComponents="3" format="ascii" RangeMin="0" RangeMax="1.25">
          0 0.25 0 0.5 0.25 0
          0.75 0.5 0 1 0.5 0
          0.5 0.375 0 0.625 0.5 0
          0.125 0.25 0 0 0.125 0
          0.5 0.125 0 0.375 0.25 0
          0.625 0.25 0 0.75 0.375 0
          0.75 0.625 0 0.875 0.5 0
          1 0.625 0 1 0.375 0
          0.125 0.125 0 0.375 0.125 0
          0.625 0.375 0 0.875 0.625 0
          0.625 0.125 0 0.875 0.375 0
          0.5 0.3125 0 0.4375 0.375 0
          0.5 0.4375 0 0.5625 0.375 0
          0.6875 0.5 0 0.625 0.4375 0
          0.5625 0.5 0 0.625 0.5625 0
          0.5 0.0625 0 0.4375 0.125 0
          0.375 0.3125 0 0.4375 0.25 0
          0.625 0.3125 0 0.6875 0.25 0
          0.5625 0.25 0 0.75 0.3125 0
          0.6875 0.375 0 0.75 0.4375 0
          0.8125 0.375 0 0.75 0.5625 0
          0.6875 0.625 0 0.8125 0.625 0
          0.8125 0.5 0 0.875 0.5625 0
          0.875 0.4375 0 0.1875 0.125 0
          0.125 0.0625 0 0.375 0.0625 0
          0.3125 0.125 0 0.1875 0.0625 0
          0.4375 0.0625 0 0.3125 0.0625 0
          0.4375 0.3125 0 0.6875 0.3125 0
          0.6875 0.4375 0 0.5625 0.4375 0
          0.5625 0.3125 0 0.6875 0.5625 0
          0.8125 0.5625 0 0.8125 0.4375 0
          0.25 0.25 0 0 0 0
          0.25 0 0 0.75 0.25 0
          0.5 0 0 0.75 0 0
          1 0.25 0 1 0 0
          0.25 0.125 0 0.125 0 0
          0.375 0 0 0.75 0.125 0
          0.875 0.25 0 0.625 0 0
          0.875 0 0 1 0.125 0
          0.875 0.125 0 0.25 0.0625 0
          0.1875 0 0 0.4375 0 0
          0.3125 0 0 0.53125 0.4375 0
          0.5625 0.46875 0 0.25 0.375 0
          0.625 0.75 0 0 0.375 0
          0.125 0.375 0 0.375 0.375 0
          0.625 0.625 0 0.375 0.4375 0
          0.5625 0.625 0 0.4375 0.4375 0
          0.5625 0.5625 0 0.75 0.75 0
          1 0.75 0 0.875 0.75 0
          0.46875 0.4375 0 0.5 0.46875 0
          0.53125 0.5 0 0.5625 0.53125 0
          0.46875 0.46875 0 0.53125 0.46875 0
          0.53125 0.53125 0 0.4375 0.5 0
          0.5 0.5625 0 0.4375 0.46875 0
          0.53125 0.5625 0
          <InformationKey name="L2_NORM_RANGE" location="vtkDataArray" length="2">
            <Value index="0">
              0
            </Value>
            <Value index="1">
              1.25
            </Value>
          </InformationKey>
        </DataArray>
      </Points>
      <Cells>
        <DataArray type="Int64" Name="connectivity" format="ascii" RangeMin="0" RangeMax="108">
          62 6 16 70 0 7
          16 6 63 71 16 7
          1 9 17 8 62 70
          17 9 62 85 88 6
          0 6 88 87 62 9
          89 85 95 86 90 12
          3 14 19 13 96 97
          19 14 95 12 19 97
          67 73 20 75 65 10
          20 73 1 8 20 10
          66 75 20 8 68 15
          21 74 3 13 21 15
          65 74 21 11 69 77
          78 76 68 74 78 77
          65 73 78 74 67 76
          78 73 64 79 51 80
          70 47 51 79 16 48
          51 47 71 80 51 48
          66 30 52 81 8 31
          52 30 17 49 52 31
          72 81 52 49 64 82
          53 79 72 49 53 82
          17 50 53 49 70 79
          53 50 1 22 54 33
          4 23 54 22 89 32
          54 23 9 33 54 32
          89 23 93 91 4 24
          93 23 65 37 55 35
          11 38 55 37 18 34
          55 38 10 35 55 34
          2 26 56 39 5 27
          56 26 18 38 56 27
          11 39 56 38 4 25
          57 24 18 27 57 25
          5 28 57 27 1 36
          58 22 10 34 58 36
          18 25 58 34 4 22
          58 25 2 41 59 26
          12 42 59 41 90 29
          59 42 5 26 59 29
          5 29 94 28 90 92
          94 29 2 44 60 41
          13 45 60 44 19 43
          60 45 12 41 60 43
          2 39 61 44 11 40
          61 39 21 46 61 40
          13 44 61 46 24 99
          102 98 24 83 103 99
          57 84 103 83 28 100
          103 84 28 101 104 100
          93 98 102 107 94 108
          104 101
        </DataArray>
        <DataArray type="Int64" Name="offsets" format="ascii" RangeMin="4" RangeMax="308">
          4 8 12 16 20 24
          28 32 36 40 44 48
          52 56 60 64 68 72
          76 80 84 88 92 96
          100 104 108 112 116 120
          124 128 132 136 140 144
          148 152 156 160 164 168
          172 176 180 184 188 192
          196 200 204 208 212 216
          220 224 228 232 236 240
          244 248 252 256 260 264
          268 272 276 280 284 288
          292 296 300 304 308
        </DataArray>
        <DataArray type="UInt8" Name="types" format="ascii" RangeMin="9" RangeMax="9">
          9 9 9 9 9 9
          9 9 9 9 9 9
          9 9 9 9 9 9
          9 9 9 9 9 9
          9 9 9 9 9 9
          9 9 9 9 9 9
          9 9 9 9 9 9
          9 9 9 9 9 9
          9 9 9 9 9 9
          9 9 9 9 9 9
          9 9 9 9 9 9
          9 9 9 9 9 9
          9 9 9 9 9
        </DataArray>
      </Cells>
    </Piece>
  </UnstructuredGrid>
</VTKFile>
