<?xml version="1.0"?>
<VTKFile type="UnstructuredGrid" version="0.1" byte_order="LittleEndian" header_type="UInt32" compressor="vtkZLibDataCompressor">
  <UnstructuredGrid>
    <Piece NumberOfPoints="118" NumberOfCells="86">
      <PointData>
        <DataArray type="Float64" Name="Velocity" NumberOfComponents="3" format="ascii" RangeMin="0" RangeMax="1.0842316898489948">
          0 0 0 2.444233465454246e-16 2.459709468189159e-16 0
          -0.5028621457067719 -0.4434022535710904 0 -0.6470168809673301 -0.38777079827086647 0
          -0.6321426842134358 -0.5402193644410549 0 -0.7233277857007836 -0.4749268262578635 0
          4.12215177896982e-16 3.336216158661994e-16 0 0 0 0
          1.222116732727123e-16 1.2298547340945795e-16 0 0 0 0
          -0.25143107285338595 -0.22170112678554504 0 -2.134356858960898e-17 2.8519405225025644e-17 0
          -0.5749395133370512 -0.4155865259209782 0 -0.25143107285338595 -0.2217011267855452 0
          -0.5675024149601038 -0.49181080900607255 0 -0.5828592067837929 -0.3026837164889363 0
          -0.32350844048366506 -0.19388539913543323 0 -0.6851723333340567 -0.43134881226436506 0
          -0.6777352349571097 -0.5075730953494592 0 -0.6382277123596866 -0.7061198454319301 0
          -0.31607134210671806 -0.27010968222052756 0 -0.3221563702529682 -0.43601016321140235 0
          6.255234708616973e-17 7.234473974866737e-17 0 2.06107588948491e-16 1.668108079330997e-16 0
          0 0 0 -4.87166774499237e-17 -9.339367841009326e-17 0
          -0.29142960339189644 -0.15134185824446816 0 -0.6068285684285338 -0.3757226610848792 0
          -0.2874697566685256 -0.2077932629604891 0 -0.6263373741470805 -0.46157981063521875 0
          -0.6034984286099745 -0.6688493243134279 0 -0.12571553642669298 -0.11085056339277252 0
          -0.2837512074800519 -0.24590540450303625 0 -0.3191138561798433 -0.3530599227159649 0
          -0.16107818512648417 -0.21800508160570128 0 1.8331750990906844e-16 1.8447821011418692e-16 0
          -0.06285776821334643 -0.0554252816963862 0 -0.18857330464003946 -0.16627584508915877 0
          -0.1257155364266928 -0.11085056339277244 0 -0.2675911401667189 -0.23380326564429066 0
          -1.542270261571258e-16 -8.020636557191946e-17 0 -0.14187560374002595 -0.12295270225151808 0
          1.1153988897790779e-16 1.3724517602197077e-16 0 -0.5998225495867701 -0.5160150867235638 0
          -0.5969198945535921 -0.4766953098206457 0 -0.42562681122007784 -0.3688581067545544 0
          -0.6149380438755615 -0.3452272573799014 0 -0.5948438876061634 -0.33920318878690775 0
          -0.7042500595174201 -0.4531378192611142 0 -0.6460004508812953 -0.4035357366746221 0
          -0.6660946071506935 -0.40955980526761576 0 -0.6557548537405686 -0.44646431144979193 0
          -0.7005315103289464 -0.4912499608036613 0 -0.652036304552095 -0.4845764529923389 0
          -0.6549389595852728 -0.5238962298952571 0 -0.6406168317835422 -0.5882112098314435 0
          -0.6208630704848306 -0.6874845848726789 0 -0.6351851982865612 -0.6231696049364924 0
          -0.47867078426976495 -0.5295898840739475 0 -0.4741070131600769 -0.4051645233307911 0
          -0.2999112747933851 -0.25800754336178183 0 -0.15803567105335917 -0.13505484111026386 0
          -0.31759259914328064 -0.31158480246824627 0 -0.6615316543841622 -0.4326899763219824 0
          -0.6304692473784284 -0.37438149702726176 0 -0.6781431820347574 -0.4688571361267266 0
          -0.6259294270694324 -0.5002957698579514 0 -0.6379010150350517 -0.6056904073839678 0
          -0.6433326485320326 -0.5707320122789191 0 -0.09428665232001959 -0.0831379225445793 0
          -0.4498669121900776 -0.3870113150426728 0 -0.14995563739669263 -0.12900377168089094 0
          -0.13379557008335938 -0.11690163282214523 0 -0.47638889871492085 -0.46737720370236935 0
          0 0 0 -2.871104837246426e-16 -1.889321363688646e-16 0
          0 0 0 -0.6443127405059369 -0.8720203264228051 0
          -9.74333548998474e-17 -1.8678735682018652e-16 0 0 0 0
          -0.3221563702529685 -0.4360101632114026 0 -0.7137889226091019 -0.4640323227594888 0
          -0.6828908569507912 -0.4429138977915483 0 -0.6911966207760888 -0.4609974776939204 0
          -0.7119296480148651 -0.48308839353076233 0 -0.6893373461818519 -0.48005354846519394 0
          -0.6719320794304895 -0.5309909865412902 0 -0.6692972561355957 -0.4472670961456626 0
          -0.6446905569062779 -0.5619924135026568 0 -0.7001953217939063 -0.4683855211136032 0
          -0.6846881254906534 -0.514089820492129 0 -0.6915430893723488 -0.4556497094525758 0
          -0.6642217780507476 -0.5042736643634251 0 -0.701563134395477 -0.4720429356123413 0
          -0.6783101024605714 -0.5225404035167096 0 0 0 0
          -0.6307979300732744 -0.448761605680822 0 -0.5687691448602629 -0.6315788031949258 0
          -0.259350766300128 -0.10879831735350295 0 -0.528484803523011 -0.32009650990539334 0
          -0.5292616222628393 -0.8301255532773967 0 1.395617258007642e-17 1.2474600838468257e-16 0
          -0.26463081113141973 -0.4150627766386982 0 -0.6188132492509042 -0.4122421333828506 0
          -0.677062857887029 -0.46184421596934283 0 -0.6460484652805231 -0.5532528147263946 0
          -0.5861337867351186 -0.6502140637541769 0 -0.5676566859757723 -0.3479095854951363 0
          -0.5663800254364069 -0.7494874387954122 0 -0.5760948441176463 -0.39179429044371883 0
          -0.6104480033346544 -0.5270708005000995 0 -0.5289349249382047 -0.7296961152294347 0
          -0.518701532600256 -0.2175966347070059 0 -0.6437554306108417 -0.4944575082347211 0
          -0.6282482343075888 -0.5401618076132471 0 -0.5382680744457657 -0.4225963851037809 0
          -0.5333764389843884 -0.3713464475045871 0 -0.47173606314129046 -0.8091781667046924 0
          <InformationKey name="L2_NORM_RANGE" location="vtkDataArray" length="2">
            <Value index="0">
              0
            </Value>
            <Value index="1">
              1.0842316898
            </Value>
          </InformationKey>
        </DataArray>
        <DataArray type="Float64" Name="Pressure" format="ascii" RangeMin="458.1092382213792" RangeMax="557.509469156485">
          470.8683218525888 485.99478133262255 486.9159500269295 483.59963303113614 527.3243541660611 557.509469156485
          516.5257194715238 473.4445897264061 478.4315515926055 472.95606525676226 486.4553656797758 491.3937480482723
          485.2577915290326 480.97987934393234 507.1201520964953 499.86530768551506 510.04378015668 520.5545510938109
          542.4169116612732 504.06522519069404 512.0585344649915 498.66590784342554 506.65921711772285 494.98515459896475
          505.2992644515822 474.1381119473608 502.5822860685489 513.383239824162 495.5118297503062 513.8373515951529
          514.3681327581105 479.7057154682691 499.2569500723838 505.36222115420856 486.402009895393 482.213166462614
          479.0686335304373 483.08054057402245 486.225073506199 492.8561578760798 494.0932314060974 495.3253490603281
          488.6942646904472 517.2222531312782 510.4787518458241 503.18855108443955 491.7324703583256 506.62427375483855
          539.0320101251476 516.9688954589866 502.0770920624735 517.195951344482 549.9631904088792 528.1271316282127
          534.8706329136671 528.3925222096921 509.21667897440227 515.6947896783772 504.7137231724513 519.6914443155264
          505.65774226868734 504.4256246144567 508.7103778096 529.5871080093168 504.3506829086559 533.5795708766806
          522.6746923797455 522.0436559440346 534.7413884753488 482.64685351831827 511.439997699983 499.8754868373925
          490.7752112832636 512.2025837439892 475.0438086609355 496.79271476392194 536.4879272822238 480.806096215327
          474.83163416831565 505.7658679715796 477.81886519182115 548.2707396408166 534.3095590672322 536.3057905009141
          553.7363297826821 541.7713806427798 542.3522894421139 535.896214284482 537.9158216081776 549.8573948580662
          549.2998619487458 542.0834769626497 542.5051739555917 545.021060141798 545.8260756954298 474.110601620941
          526.9011719628093 524.6710403255272 495.1207919804175 506.2119285545141 486.3193538549476 458.1092382213792
          472.21429603816364 520.1422058934857 542.2053205596471 541.0902547410062 519.5195865418184 509.79758418933807
          500.34374330652906 510.6973037776544 529.2156513652278 504.2977846082887 516.1309823398942 535.7104859624375
          535.152953053117 496.29287476913294 501.2524016618235 489.07598267475817
        </DataArray>
        <DataArray type="Float64" Name="Temperature" format="ascii" RangeMin="258.7924473570535" RangeMax="980.8207537679913">
          971.300138762919 749.020214984207 643.1120921250185 540.2099226270018 668.4517275901103 509.2742077939038
          668.1579247988045 266.34309086685397 860.1601768735628 956.2691057879775 696.0661535546126 749.319099904233
          591.66100737601 792.1750824690274 655.7819098575644 496.75887468365613 760.5153381974964 524.7420652104528
          588.862967692007 666.4614652590541 709.0348562071847 666.3145638634013 708.8879548115319 467.25050783282927
          953.2539828233856 262.56776911195374 725.0064287535208 471.0331138805322 776.3452103332619 590.2619875340087
          602.8622498379195 826.1676296712951 702.5505048808988 687.674710035293 464.4411664876775 804.5901959288849
          843.163903272429 761.1168916129539 722.5431842694097 699.3083292177557 749.4685423642461 725.9348023925659
          749.16965744422 662.1168187238374 623.0219486957865 679.1662073692316 518.484398655329 483.8959942820942
          517.0081365021782 497.88758954549246 532.4759939187272 557.5020263722307 549.0685877429555 589.5624776130079
          628.6573476410587 595.8626087649634 634.6618575484868 667.4565964245822 677.0680876471736 688.7432918986475
          705.7926805440418 729.3264205157219 698.3547831212388 487.5891849905742 508.18599410041065 553.2853070575931
          625.8396481684226 631.6596025947729 560.0656149351539 782.8535437709195 683.9547496339396 727.6306114541441
          724.2389933309877 682.9056897729105 941.2380728130361 749.6179848242591 980.8207537679913 664.4712029279979
          258.7924473570535 961.0294132905137 461.6318251425258 513.141172148041 502.2986607463762 535.1467217798856
          529.1713977684296 551.1769474002742 554.5671013390547 482.43998271311517 542.1671180202492 493.28249411478
          516.7714144496242 497.790577430578 500.11647781938416 532.1590597741576 535.6692578943392 925.6872118787801
          445.30735307740844 539.263034416785 689.4975193095452 417.32416255061173 616.861531983832 262.39373636454906
          439.6276341741906 458.1702334789703 477.29078043565613 524.2686211053444 571.0626421273524 444.17863821557194
          609.8618909108758 428.7512819673665 489.6323019426324 582.0596693195506 453.30782674031053 483.46154118914427
          506.95046152398845 381.3404983609131 399.3323304557624 593.0566965117491
        </DataArray>
        <DataArray type="Float64" Name="Density" format="ascii" RangeMin="0.3067867140762719" RangeMax="1.1627185384245062">
          0.3097938156680738 0.40172851162987466 0.4678854274874992 0.5570108277223524 0.4501488495378766 0.5908462897615765
          0.45034678925181043 1.1297562672527397 0.34982179393609003 0.3146632828824336 0.43229048648561497 0.40156827202823364
          0.5085729368592068 0.37984377797954655 0.45884580166545036 0.6057320593173375 0.3956564201051702 0.5734298736382308
          0.5109894706499448 0.4514931347596115 0.4243836159986589 0.4515926747895326 0.4244715601442171 0.6439859799017058
          0.31565855644795565 1.1460004293900794 0.4150346317116474 0.6388144851799358 0.38758888718734497 0.5097783399595207
          0.49912359950750346 0.364215160869972 0.42830056210308376 0.4375655695275623 0.6478813633637658 0.3739826531180975
          0.35687340857270017 0.3953437106206158 0.41644953920719385 0.4302862751297174 0.4014882001545753 0.41450385785964033
          0.40164837584695984 0.45445572085943026 0.48297299441246677 0.44304733198056057 0.5803506854336891 0.6218335751935954
          0.5820078155482307 0.6043588602418869 0.565101111754949 0.5397339595415007 0.5480240226147499 0.510383186807571
          0.47864353653923913 0.5049868404563452 0.4741151095933096 0.4508199900310582 0.4444202608809078 0.436886688677287
          0.4263330924802893 0.41257627268393704 0.43087379569655726 0.6171235651014514 0.5921115096431405 0.5438474008039624
          0.4807985192803203 0.4763685613425744 0.537263435072931 0.384366627117607 0.439945444208613 0.4135378190658453
          0.4154744206223336 0.4406212756059401 0.3196882753021237 0.4014081602068793 0.3067867140762719 0.4528454729420382
          1.1627185384245062 0.3131046479795234 0.6518241589028063 0.5863937498655514 0.5990515198650469 0.5622808921364566
          0.5686300835896125 0.5459277235115811 0.542590383417509 0.6237102788498092 0.5550000473010167 0.6100009218577263
          0.5822744210160385 0.604476640959035 0.6016653909471156 0.5654376649605364 0.5617323968321649 0.32505880202836573
          0.6757193072758173 0.5579888791593545 0.43640878715214926 0.7210288862912454 0.4877963052398296 1.1467605146193116
          0.6844491855283821 0.6567488548120738 0.630439112759814 0.5739477131243985 0.5269172835844339 0.6774363966604309
          0.4933949483166963 0.7018119567259902 0.6145484580009376 0.5169620779568197 0.663793471888749 0.6223923735612555
          0.5935545955352795 0.7890658805965843 0.7535146873854931 0.5073760703085375
        </DataArray>
      </PointData>
      <CellData>
        <DataArray type="UInt8" Name="vtkGhostType" format="ascii" RangeMin="0" RangeMax="1">
          0 0 0 0 0 0
          0 0 0 0 0 0
          0 0 0 0 0 0
          0 0 0 0 0 0
          0 0 0 0 0 0
          0 0 0 0 0 0
          0 0 0 0 0 0
          0 0 0 0 0 0
          0 0 0 0 0 0
          0 0 0 0 0 0
          0 0 0 0 0 0
          0 0 0 0 0 0
          0 0 0 0 0 0
          0 0 0 0 0 0
          1 1
        </DataArray>
      </CellData>
      <Points>
        <DataArray type="Float32" Name="Points" NumberOfComponents="3" format="ascii" RangeMin="0.25" RangeMax="1.4142135623730951">
          0 1 0 0.25 1 0
          0.25 0.75 0 0.25 0.5 0
          0.5 0.75 0 0.5 0.5 0
          0.75 1 0 1 1 0
          0.125 1 0 0 0.875 0
          0.25 0.875 0 0.375 1 0
          0.25 0.625 0 0.125 0.75 0
          0.375 0.75 0 0.25 0.375 0
          0.125 0.5 0 0.375 0.5 0
          0.5 0.625 0 0.625 0.75 0
          0.5 0.875 0 0.75 0.875 0
          0.625 1 0 0.875 1 0
          0 0.375 0 1 0.875 0
          0.125 0.375 0 0.375 0.375 0
          0.125 0.625 0 0.375 0.625 0
          0.625 0.625 0 0.125 0.875 0
          0.375 0.875 0 0.625 0.875 0
          0.875 0.875 0 0.1875 1 0
          0.125 0.9375 0 0.1875 0.875 0
          0.25 0.9375 0 0.3125 0.875 0
          0.4375 1 0 0.375 0.9375 0
          0.3125 1 0 0.4375 0.75 0
          0.375 0.6875 0 0.375 0.8125 0
          0.25 0.4375 0 0.3125 0.375 0
          0.4375 0.5 0 0.375 0.4375 0
          0.3125 0.5 0 0.375 0.5625 0
          0.5 0.5625 0 0.4375 0.625 0
          0.5 0.6875 0 0.5625 0.625 0
          0.625 0.6875 0 0.5625 0.75 0
          0.625 0.8125 0 0.5 0.8125 0
          0.4375 0.875 0 0.5 0.9375 0
          0.5625 0.875 0 0.4375 0.4375 0
          0.3125 0.4375 0 0.4375 0.5625 0
          0.4375 0.6875 0 0.5625 0.6875 0
          0.5625 0.5625 0 0.1875 0.9375 0
          0.4375 0.8125 0 0.4375 0.9375 0
          0.3125 0.9375 0 0.5625 0.8125 0
          0 0.75 0 0.5 1 0
          0 0.5 0 0.75 0.75 0
          1 0.75 0 0 0.625 0
          0.875 0.75 0 0.46875 0.5 0
          0.4375 0.46875 0 0.4375 0.53125 0
          0.5 0.53125 0 0.46875 0.5625 0
          0.53125 0.5625 0 0.46875 0.4375 0
          0.5625 0.53125 0 0.5 0.46875 0
          0.53125 0.5 0 0.46875 0.46875 0
          0.53125 0.46875 0 0.46875 0.53125 0
          0.53125 0.53125 0 0 0.25 0
          0.5 0.375 0 0.625 0.5 0
          0.125 0.25 0 0.375 0.25 0
          0.75 0.625 0 1 0.625 0
          0.875 0.625 0 0.4375 0.375 0
          0.5 0.4375 0 0.5625 0.5 0
          0.625 0.5625 0 0.375 0.3125 0
          0.6875 0.625 0 0.4375 0.3125 0
          0.5625 0.4375 0 0.6875 0.5625 0
          0.25 0.25 0 0.53125 0.4375 0
          0.5625 0.46875 0 0.5 0.25 0
          0.4375 0.25 0 0.75 0.5625 0
          <InformationKey name="L2_NORM_RANGE" location="vtkDataArray" length="2">
            <Value index="0">
              0.25
            </Value>
            <Value index="1">
              1.4142135624
            </Value>
          </InformationKey>
        </DataArray>
      </Points>
      <Cells>
        <DataArray type="Int64" Name="connectivity" format="ascii" RangeMin="0" RangeMax="117">
          112 15 26 98 3 16
          26 15 76 24 26 16
          95 98 26 24 112 99
          27 15 3 12 28 16
          2 13 28 12 74 79
          28 13 76 16 28 79
          2 12 29 14 3 17
          29 12 77 19 30 100
          78 80 102 101 77 100
          102 80 2 10 31 13
          0 9 31 8 74 13
          31 9 2 14 32 10
          77 21 33 19 6 22
          33 21 75 20 33 22
          78 25 34 80 7 23
          34 25 6 21 34 23
          77 80 34 21 27 107
          109 103 17 49 63 48
          27 103 63 49 96 104
          63 103 3 46 64 50
          15 47 64 46 27 49
          64 47 17 50 64 49
          18 53 65 52 29 51
          65 53 17 48 65 51
          4 43 66 54 14 44
          66 43 29 53 66 44
          18 54 66 53 30 106
          111 108 4 54 67 57
          18 55 67 54 30 56
          67 55 19 57 67 56
          97 106 68 105 30 55
          68 106 18 52 68 55
          1 35 69 38 8 36
          69 35 31 37 69 36
          10 38 69 37 4 59
          70 43 20 60 70 59
          32 45 70 60 14 43
          70 45 75 40 71 61
          11 41 71 40 32 60
          71 41 20 61 71 60
          1 38 72 42 10 39
          72 38 32 41 72 39
          11 42 72 41 4 57
          73 59 19 58 73 57
          33 62 73 58 20 59
          73 62 5 81 91 89
          48 82 91 81 63 87
          91 82 104 89 91 87
          5 89 92 90 104 113
          92 89 110 114 92 113
          105 90 92 114 5 84
          93 81 52 85 93 84
          65 83 93 85 48 81
          93 83 5 90 94 84
          105 88 94 90 68 86
          94 88 52 84 94 86
          99 116 109 107 100 108
          111 117
        </DataArray>
        <DataArray type="Int64" Name="offsets" format="ascii" RangeMin="4" RangeMax="344">
          4 8 12 16 20 24
          28 32 36 40 44 48
          52 56 60 64 68 72
          76 80 84 88 92 96
          100 104 108 112 116 120
          124 128 132 136 140 144
          148 152 156 160 164 168
          172 176 180 184 188 192
          196 200 204 208 212 216
          220 224 228 232 236 240
          244 248 252 256 260 264
          268 272 276 280 284 288
          292 296 300 304 308 312
          316 320 324 328 332 336
          340 344
        </DataArray>
        <DataArray type="UInt8" Name="types" format="ascii" RangeMin="9" RangeMax="9">
          9 9 9 9 9 9
          9 9 9 9 9 9
          9 9 9 9 9 9
          9 9 9 9 9 9
          9 9 9 9 9 9
          9 9 9 9 9 9
          9 9 9 9 9 9
          9 9 9 9 9 9
          9 9 9 9 9 9
          9 9 9 9 9 9
          9 9 9 9 9 9
          9 9 9 9 9 9
          9 9 9 9 9 9
          9 9 9 9 9 9
          9 9
        </DataArray>
      </Cells>
    </Piece>
  </UnstructuredGrid>
</VTKFile>
