<?xml version="1.0"?>
<VTKFile type="UnstructuredGrid" version="0.1" byte_order="LittleEndian" header_type="UInt32" compressor="vtkZLibDataCompressor">
  <UnstructuredGrid>
    <Piece NumberOfPoints="118" NumberOfCells="86">
      <PointData>
        <DataArray type="Float64" Name="Velocity" NumberOfComponents="3" format="ascii" RangeMin="0" RangeMax="1.6098788362935328">
          0 0 0 3.8726854649487194e-16 3.817592326173312e-16 0
          -0.7731723049306597 -0.7198869195188353 0 -0.8810877438554949 -0.6696548465481152 0
          -0.9873110958128986 -0.7805567583049331 0 -1.018950959673128 -0.6907440226077193 0
          6.271586929553194e-16 4.9201714495389e-16 0 0 0 0
          1.9363427324743597e-16 1.908796163086656e-16 0 0 0 0
          -0.38658615246532957 -0.3599434597594175 0 -3.380136447832123e-17 5.3219275165395326e-17 0
          -0.8271300243930774 -0.6947708830334751 0 -0.38658615246532985 -0.35994345975941766 0
          -0.8802417003717793 -0.7502218389118843 0 -0.7992078162065116 -0.515188969105911 0
          -0.44054387192774747 -0.3348274232740576 0 -0.9500193517643115 -0.6801994345779172 0
          -1.0031310277430134 -0.7356503904563262 0 -0.9882694474375815 -1.0253252729147002 0
          -0.4936555479064495 -0.39027837915246677 0 -0.4946138995311321 -0.6350468937622332 0
          8.614370875190248e-17 1.0834823133367472e-16 0 3.135793464776597e-16 2.46008572476945e-16 0
          0 0 0 -7.471619785128081e-17 -1.3551930078329306e-16 0
          -0.3996039081032558 -0.2575944845529555 0 -0.835182702872381 -0.5736120893130999 0
          -0.4135650121965387 -0.34738544151673756 0 -0.9151305260680451 -0.7152106367449007 0
          -0.899396913708802 -0.9532759628549573 0 -0.19329307623266478 -0.17997172987970875 0
          -0.44012085018588964 -0.37511091945594205 0 -0.49413472371879075 -0.5126626364573499 0
          -0.24730694976556616 -0.3175234468811167 0 2.90451409871154e-16 2.8631942446299836e-16 0
          -0.0966465381163323 -0.08998586493985428 0 -0.2899396143489972 -0.2699575948195631 0
          -0.1932930762326646 -0.1799717298797086 0 -0.4133535013256096 -0.36752718960767977 0
          -2.4433631996491784e-16 -1.110507035605726e-16 0 -0.22006042509294482 -0.187555459727971 0
          1.7673359100827543e-16 2.174892538913632e-16 0 -0.9337763980923389 -0.7653892986084087 0
          -0.8976861132199122 -0.7327162378283925 0 -0.6601812752788345 -0.5626663791839132 0
          -0.8401477800310033 -0.5924219078270132 0 -0.8171952595394463 -0.5444005292095055 0
          -0.9844851557187198 -0.6854717285928182 0 -0.8926010273183462 -0.6269057619455083 0
          -0.9155535478099033 -0.6749271405630162 0 -0.9325749389161784 -0.697705035661409 0
          -1.0110409937080707 -0.7131972065320227 0 -0.9591307769055295 -0.7254305136006133 0
          -0.9952210617779559 -0.7581035743806297 0 -0.9512639707259076 -0.8444631766556417 0
          -0.9438331805731918 -0.9893006178848287 0 -0.9877902716252401 -0.9029410156098165 0
          -0.7412020855781861 -0.768993954686025 0 -0.740483321859674 -0.5854175687286999 0
          -0.46688819904616946 -0.38269464930420444 0 -0.24682777395322497 -0.19513918957623352 0
          -0.4938951358126201 -0.4514705078049083 0 -0.9188276509620179 -0.6441476890047563 0
          -0.8663744036746746 -0.6096638348862611 0 -0.9718079663121245 -0.7054511210967158 0
          -0.9464535874989339 -0.7454099061045111 0 -0.9695271211755739 -0.8737020961327294 0
          -0.9330008202762414 -0.8152242571785543 0 -0.14496980717449842 -0.13497879740978141 0
          -0.7003322985692539 -0.5740419739563064 0 -0.23344409952308492 -0.19134732465210227 0
          -0.20667675066280466 -0.1837635948038398 0 -0.74084270371893 -0.6772057617073627 0
          0 0 0 -4.548712754515144e-16 -2.7532068228654043e-16 0
          0 0 0 -0.9892277990622651 -1.270093787524467 0
          -1.4943239570256162e-16 -2.710386015665861e-16 0 0 0 0
          -0.49461389953113266 -0.6350468937622336 0 -1.0017180576959241 -0.6881078756002685 0
          -0.9516564033403688 -0.6648097087987872 0 -0.9781465610154221 -0.695461424844767 0
          -1.0149959766905992 -0.7019706145698708 0 -0.9914244800100975 -0.7093241638143692 0
          -0.972020906992156 -0.7642107318552884 0 -0.9319409627838537 -0.6527686525343801 0
          -0.9238692450514083 -0.8006047974400106 0 -0.9820026171394088 -0.6760668193358617 0
          -0.9668443147498516 -0.7383646801545929 0 -0.9668295102398886 -0.6704382640673245 0
          -0.9334570764805115 -0.719560487180257 0 -0.9965712688530107 -0.698716019707319 0
          -0.9694326108710036 -0.7512877060049407 0 0 0 0
          -0.8711575895382507 -0.6320352095202887 0 -0.8105243799800224 -0.8812266527952143 0
          -0.35866394427876414 -0.18036154583185338 0 -0.7203460539804508 -0.46702474404828254 0
          -0.7956627996745906 -1.1709015352535885 0 1.8294685999628067e-17 1.5388567634788269e-16 0
          -0.3978313998372953 -0.5854507676267939 0 -0.853170146205316 -0.6028236494166943 0
          -0.9450542746056895 -0.661389616064004 0 -0.9147376698265751 -0.7859853377014668 0
          -0.8549606468444122 -0.9172513078250858 0 -0.7777643784264159 -0.5203184166806912 0
          -0.8475298566916963 -1.062088749054273 0 -0.787512641448614 -0.5614996098286323 0
          -0.8550854018166532 -0.7401229723478383 0 -0.7769204734125829 -1.0192783584716172 0
          -0.7173278885575283 -0.36072309166370675 0 -0.9000698382111714 -0.7007562942059211 0
          -0.8849115358216142 -0.7630541550246526 0 -0.7233642194033736 -0.5733263964328581 0
          -0.7218551366919121 -0.5201755702405704 0 -0.6988802999807536 -1.121305409118149 0
          <InformationKey name="L2_NORM_RANGE" location="vtkDataArray" length="2">
            <Value index="0">
              0
            </Value>
            <Value index="1">
              1.6098788363
            </Value>
          </InformationKey>
        </DataArray>
        <DataArray type="Float64" Name="Pressure" format="ascii" RangeMin="1409.110564228375" RangeMax="1605.7877682615588">
          1420.3947326495113 1420.6771263258984 1450.3980189210424 1425.2633148875566 1470.5222243335168 1605.7877682615588
          1460.946438339838 1448.3090599230295 1420.5359294877044 1418.2114145573269 1435.5375726234706 1439.3800080719275
          1437.8306669042995 1433.2130576930924 1460.4601216272797 1465.4229805924806 1478.1260653731024 1515.5255415745578
          1538.1549962975375 1450.0013294320652 1464.302557075737 1445.213436435226 1459.5146640788978 1454.6277491314336
          1487.1899836293646 1431.2982153404348 1476.3064821109224 1506.667998877329 1455.6695615330973 1487.9928316009186
          1484.53750727639 1426.8744935903985 1449.920064849604 1454.7579967554811 1438.2558258878303 1420.6065279068016
          1423.7052115390516 1431.2060331069347 1428.1073494746845 1442.7288187365373 1448.7314489449427 1444.6500364607662
          1430.0285671989132 1465.4911729803985 1474.2264766140993 1455.190093238442 1445.3431477400186 1486.0454897349048
          1560.656654918058 1511.0967702259431 1470.3944282310572 1501.7591865877382 1571.9713822795486 1513.0739139492282
          1504.3386103155271 1511.3462517869639 1467.2694183542276 1460.261776882791 1452.3796630937732 1467.412390704627
          1457.1113109626701 1461.1927234468471 1459.5302769156092 1543.9735814689056 1478.2199589829809 1536.8652844336434
          1489.282543464813 1485.8040143348776 1536.8884892390497 1425.906280506868 1461.301241971534 1452.9213799538065
          1436.378692967725 1459.8960268992003 1416.0280964651424 1458.0828898179575 1530.9888158586482 1429.4804345306138
          1414.2873707578403 1473.508456161895 1421.8839026442267 1583.222211589809 1552.3151181934818 1548.7609696758507
          1588.8795752705535 1554.4183333565961 1554.429935759299 1560.4119870903867 1549.659607965093 1591.3190804867131
          1584.1092474763477 1571.8170993400975 1571.2799820592809 1568.8202724732025 1569.2695916178232 1443.3911514000813
          1547.913017162177 1519.0736851207141 1474.4868988487428 1497.8104561801006 1430.9200182552415 1409.110564228375
          1420.0152912418087 1527.2905080197534 1576.8503927118677 1562.4307266911364 1501.8055961985522 1502.2392275287148
          1457.7287627658156 1510.6074345706006 1540.051040572558 1466.7227031580537 1505.5826462974044 1558.4507166422127
          1551.2408836318473 1490.038266062796 1493.9243611214483 1431.6398101175557
        </DataArray>
        <DataArray type="Float64" Name="Temperature" format="ascii" RangeMin="269.61385486461126" RangeMax="1003.0752167323064">
          979.9362225175337 678.6242011628783 667.4138025253853 568.5731981722356 716.8399661430096 463.6990392525089
          634.286934666852 280.008995920352 829.2802118402059 958.3770588049126 673.0190018441316 731.286725855445
          617.9935003488102 802.1158488088385 692.1268843341974 523.1595391062106 785.8242074522709 516.1361187123722
          590.2695026977591 692.6099550398063 750.3946083455107 651.3334393017278 709.1180926074321 457.1479652936019
          962.0233912444007 274.8114253924815 742.5914651753058 470.9571131239912 793.9700281305547 604.1315015232848
          610.3016789732848 815.6980303245222 711.7068050948212 700.8640238236192 463.0724323471046 753.9522065015422
          822.489121082364 744.3585160843269 675.8216015035048 692.3629034694764 757.6179882017284 721.4967654751331
          704.955463509162 704.4834252386033 648.1291929287411 701.9168447145094 545.8663686392231 497.05832611510084
          489.91757898244043 493.5466159181817 542.3546584423038 560.1338101178285 526.984270975134 597.2005021105219
          653.5547344203842 600.2855908355222 651.4558170065455 704.7249605914078 696.7369894317128 733.6172872442601
          731.0507067201661 767.1719294467614 725.629316084565 467.38673955766086 519.7064922787024 543.5590405464812
          650.8419636745624 652.505275713465 548.0659059575789 749.1553612929343 717.7670659793846 744.3343474609476
          698.6591834893189 715.1771383379862 936.8178950922916 783.9492505480121 1003.0752167323064 668.3799439366028
          269.61385486461126 969.9465559122989 468.9968994006072 476.80830911747455 478.6521592700507 516.7383097644608
          495.3416551138214 535.2716557608076 537.5250884663565 454.30680137740063 521.9560635186075 452.46295122482456
          479.7726301660725 465.5575552474376 466.9474614217154 506.03998243914106 508.6488593162144 920.9715657564952
          418.75468714177197 527.9934029067633 699.3587228983401 425.77810753561045 630.3338552488104 274.388454530491
          452.3611548896508 444.85590013288174 441.2268631971404 495.846221079636 569.1475409400242 448.3676103298008
          620.3177671110476 422.32506070810246 467.01772215757603 590.229175922469 477.74588004018534 454.12229267735825
          481.431971618606 373.8103350310354 399.79422128332294 611.3108109049142
        </DataArray>
        <DataArray type="Float64" Name="Density" format="ascii" RangeMin="0.3049919801369977" RangeMax="1.134696496703255">
          0.31219368112710044 0.4508089986376823 0.4583811353914846 0.538065982640392 0.42677572544344045 0.6597596084535752
          0.4823209810213394 1.09257167103501 0.36891016113680514 0.319216631665856 0.4545635349659657 0.4183446598455119
          0.49503740153393216 0.3814036302011082 0.44201417905017293 0.5847736181972305 0.3893108581744928 0.5927310364187478
          0.518288502420194 0.4417058899477579 0.4076920238700226 0.4696978200681837 0.43142305882032694 0.6692141709108378
          0.3180067131026892 1.1132357257003045 0.4119760472944736 0.6495918376690716 0.3853166816609724 0.5063961998441542
          0.50127651146594 0.3750528813411763 0.4298538308015405 0.4365039239830138 0.6606523627997332 0.40576828867853243
          0.3719561617726229 0.41099804726742195 0.4526784818610858 0.4418635011270813 0.40380495360687674 0.4240211615863139
          0.4339705306412711 0.4342613120726269 0.4720199304634159 0.43584920191217963 0.5604483334266945 0.6154808812249769
          0.6244517643415676 0.619860184854859 0.5640771989609071 0.5461728805714826 0.5805294644021163 0.5122733411917273
          0.4681014159416246 0.5096405798308739 0.4696095860856522 0.43411247463236824 0.43908950036808464 0.4170156591139243
          0.41847972208395534 0.3987761867123483 0.42160630751291356 0.6545540784213714 0.5886589856442924 0.5628273540809102
          0.47005250683329786 0.46885428817877844 0.5581991020642207 0.40836642488888186 0.4262244829526924 0.41101139242212015
          0.43788145036557913 0.4277680034466574 0.32656282312732215 0.3902419657441817 0.3049919801369977 0.4577185466931849
          1.134696496703255 0.31540902404647125 0.6523068637948828 0.6416203130851065 0.6391486816733061 0.5920402857627933
          0.6176139103569567 0.5715413720958216 0.5691453350584998 0.6733993320152671 0.5861219324002124 0.6761435289881238
          0.6376560006593897 0.6571258335930916 0.6551698464021395 0.6045567686231729 0.6014559768969131 0.33218169588790764
          0.7305706800935694 0.5794199224711856 0.43744345578428523 0.7185195555221153 0.4853458116362402 1.1149517828693416
          0.6762956838152094 0.6877056064360408 0.693361900861518 0.6169854353460928 0.5375230051459936 0.6823193503038829
          0.493182547393919 0.724394370688277 0.6550712790173532 0.5183239139261397 0.640361140428466 0.6736729324030107
          0.6354582051312001 0.8184094122280878 0.7652184055975394 0.500449020563976
        </DataArray>
      </PointData>
      <CellData>
        <DataArray type="UInt8" Name="vtkGhostType" format="ascii" RangeMin="0" RangeMax="1">
          0 0 0 0 0 0
          0 0 0 0 0 0
          0 0 0 0 0 0
          0 0 0 0 0 0
          0 0 0 0 0 0
          0 0 0 0 0 0
          0 0 0 0 0 0
          0 0 0 0 0 0
          0 0 0 0 0 0
          0 0 0 0 0 0
          0 0 0 0 0 0
          0 0 0 0 0 0
          0 0 0 0 0 0
          0 0 0 0 0 0
          1 1
        </DataArray>
      </CellData>
      <Points>
        <DataArray type="Float32" Name="Points" NumberOfComponents="3" format="ascii" RangeMin="0.25" RangeMax="1.4142135623730951">
          0 1 0 0.25 1 0
          0.25 0.75 0 0.25 0.5 0
          0.5 0.75 0 0.5 0.5 0
          0.75 1 0 1 1 0
          0.125 1 0 0 0.875 0
          0.25 0.875 0 0.375 1 0
          0.25 0.625 0 0.125 0.75 0
          0.375 0.75 0 0.25 0.375 0
          0.125 0.5 0 0.375 0.5 0
          0.5 0.625 0 0.625 0.75 0
          0.5 0.875 0 0.75 0.875 0
          0.625 1 0 0.875 1 0
          0 0.375 0 1 0.875 0
          0.125 0.375 0 0.375 0.375 0
          0.125 0.625 0 0.375 0.625 0
          0.625 0.625 0 0.125 0.875 0
          0.375 0.875 0 0.625 0.875 0
          0.875 0.875 0 0.1875 1 0
          0.125 0.9375 0 0.1875 0.875 0
          0.25 0.9375 0 0.3125 0.875 0
          0.4375 1 0 0.375 0.9375 0
          0.3125 1 0 0.4375 0.75 0
          0.375 0.6875 0 0.375 0.8125 0
          0.25 0.4375 0 0.3125 0.375 0
          0.4375 0.5 0 0.375 0.4375 0
          0.3125 0.5 0 0.375 0.5625 0
          0.5 0.5625 0 0.4375 0.625 0
          0.5 0.6875 0 0.5625 0.625 0
          0.625 0.6875 0 0.5625 0.75 0
          0.625 0.8125 0 0.5 0.8125 0
          0.4375 0.875 0 0.5 0.9375 0
          0.5625 0.875 0 0.4375 0.4375 0
          0.3125 0.4375 0 0.4375 0.5625 0
          0.4375 0.6875 0 0.5625 0.6875 0
          0.5625 0.5625 0 0.1875 0.9375 0
          0.4375 0.8125 0 0.4375 0.9375 0
          0.3125 0.9375 0 0.5625 0.8125 0
          0 0.75 0 0.5 1 0
          0 0.5 0 0.75 0.75 0
          1 0.75 0 0 0.625 0
          0.875 0.75 0 0.46875 0.5 0
          0.4375 0.46875 0 0.4375 0.53125 0
          0.5 0.53125 0 0.46875 0.5625 0
          0.53125 0.5625 0 0.46875 0.4375 0
          0.5625 0.53125 0 0.5 0.46875 0
          0.53125 0.5 0 0.46875 0.46875 0
          0.53125 0.46875 0 0.46875 0.53125 0
          0.53125 0.53125 0 0 0.25 0
          0.5 0.375 0 0.625 0.5 0
          0.125 0.25 0 0.375 0.25 0
          0.75 0.625 0 1 0.625 0
          0.875 0.625 0 0.4375 0.375 0
          0.5 0.4375 0 0.5625 0.5 0
          0.625 0.5625 0 0.375 0.3125 0
          0.6875 0.625 0 0.4375 0.3125 0
          0.5625 0.4375 0 0.6875 0.5625 0
          0.25 0.25 0 0.53125 0.4375 0
          0.5625 0.46875 0 0.5 0.25 0
          0.4375 0.25 0 0.75 0.5625 0
          <InformationKey name="L2_NORM_RANGE" location="vtkDataArray" length="2">
            <Value index="0">
              0.25
            </Value>
            <Value index="1">
              1.4142135624
            </Value>
          </InformationKey>
        </DataArray>
      </Points>
      <Cells>
        <DataArray type="Int64" Name="connectivity" format="ascii" RangeMin="0" RangeMax="117">
          112 15 26 98 3 16
          26 15 76 24 26 16
          95 98 26 24 112 99
          27 15 3 12 28 16
          2 13 28 12 74 79
          28 13 76 16 28 79
          2 12 29 14 3 17
          29 12 77 19 30 100
          78 80 102 101 77 100
          102 80 2 10 31 13
          0 9 31 8 74 13
          31 9 2 14 32 10
          77 21 33 19 6 22
          33 21 75 20 33 22
          78 25 34 80 7 23
          34 25 6 21 34 23
          77 80 34 21 27 107
          109 103 17 49 63 48
          27 103 63 49 96 104
          63 103 3 46 64 50
          15 47 64 46 27 49
          64 47 17 50 64 49
          18 53 65 52 29 51
          65 53 17 48 65 51
          4 43 66 54 14 44
          66 43 29 53 66 44
          18 54 66 53 30 106
          111 108 4 54 67 57
          18 55 67 54 30 56
          67 55 19 57 67 56
          97 106 68 105 30 55
          68 106 18 52 68 55
          1 35 69 38 8 36
          69 35 31 37 69 36
          10 38 69 37 4 59
          70 43 20 60 70 59
          32 45 70 60 14 43
          70 45 75 40 71 61
          11 41 71 40 32 60
          71 41 20 61 71 60
          1 38 72 42 10 39
          72 38 32 41 72 39
          11 42 72 41 4 57
          73 59 19 58 73 57
          33 62 73 58 20 59
          73 62 5 81 91 89
          48 82 91 81 63 87
          91 82 104 89 91 87
          5 89 92 90 104 113
          92 89 110 114 92 113
          105 90 92 114 5 84
          93 81 52 85 93 84
          65 83 93 85 48 81
          93 83 5 90 94 84
          105 88 94 90 68 86
          94 88 52 84 94 86
          99 116 109 107 100 108
          111 117
        </DataArray>
        <DataArray type="Int64" Name="offsets" format="ascii" RangeMin="4" RangeMax="344">
          4 8 12 16 20 24
          28 32 36 40 44 48
          52 56 60 64 68 72
          76 80 84 88 92 96
          100 104 108 112 116 120
          124 128 132 136 140 144
          148 152 156 160 164 168
          172 176 180 184 188 192
          196 200 204 208 212 216
          220 224 228 232 236 240
          244 248 252 256 260 264
          268 272 276 280 284 288
          292 296 300 304 308 312
          316 320 324 328 332 336
          340 344
        </DataArray>
        <DataArray type="UInt8" Name="types" format="ascii" RangeMin="9" RangeMax="9">
          9 9 9 9 9 9
          9 9 9 9 9 9
          9 9 9 9 9 9
          9 9 9 9 9 9
          9 9 9 9 9 9
          9 9 9 9 9 9
          9 9 9 9 9 9
          9 9 9 9 9 9
          9 9 9 9 9 9
          9 9 9 9 9 9
          9 9 9 9 9 9
          9 9 9 9 9 9
          9 9 9 9 9 9
          9 9 9 9 9 9
          9 9
        </DataArray>
      </Cells>
    </Piece>
  </UnstructuredGrid>
</VTKFile>
