<?xml version="1.0"?>
<VTKFile type="UnstructuredGrid" version="0.1" byte_order="LittleEndian" header_type="UInt32" compressor="vtkZLibDataCompressor">
  <UnstructuredGrid>
    <Piece NumberOfPoints="102" NumberOfCells="74">
      <PointData>
        <DataArray type="Float64" Name="Velocity" NumberOfComponents="3" format="ascii" RangeMin="0" RangeMax="0.25750229954452636">
          0 0 0 -5.748096775044395e-17 -3.486828160149256e-17 0
          0.07999519428230328 0.1477871419161573 0 -0.10258223776006767 0.23618704191139683 0
          0.09469945642243996 -0.07269656549756916 0 -0.10275671225900308 -0.004470986734668701 0
          -1.2538331799798199e-17 6.094118051636966e-18 0 0 0 0
          -2.8740483875221973e-17 -1.743414080074628e-17 0 0 0 0
          0.03999759714115162 0.07389357095807862 0 -2.425745709791312e-18 -2.820957607820011e-17 0
          -0.011293521738882178 0.19198709191377705 0 0.03999759714115164 0.07389357095807865 0
          0.08734732535237162 0.037545288209294064 0 -0.08455900667343219 0.23609020927255853 0
          -0.051291118880033834 0.11809352095569842 0 -0.10266947500953538 0.11585802758836407 0
          -0.004028627918281583 -0.03858377611611893 0 0.0633292188781107 -0.07229524345364144 0
          0.04734972821122001 -0.036348282748784586 0 0.015979490666890722 -0.03594696070485684 0
          2.0045572265531563e-17 -7.728376251635353e-18 0 -6.2691658998990995e-18 3.047059025818483e-18 0
          0 0 0 1.0715236803360829e-18 -8.283163515872804e-18 0
          -0.042279503336716096 0.11804510463627926 0 -0.09651492185084037 0.10955515065299812 0
          -0.005646760869441089 0.09599354595688853 0 -0.00766107482858186 0.07670165789882907 0
          -0.0035125335772191596 -0.08863430500875494 0 0.01999879857057581 0.03694678547903931 0
          0.043673662676185825 0.01877264410464703 0 0.03166460943905535 -0.036147621726820706 0
          0.007989745333445358 -0.017973480352428427 0 -4.311072581283296e-17 -2.615121120111942e-17 0
          0.009999399285287891 0.018473392739519645 0 0.029998197855863717 0.05542017821855896 0
          0.019998798570575783 0.03694678547903929 0 0.04183562990866872 0.04633310753136283 0
          2.5101865310535003e-17 -2.4880223316553895e-17 0 0.021836831338092912 0.009386322052323499 0
          -2.995335673011763e-17 -3.1538928839846344e-17 0 0.09102339088740577 -0.01757563864413754 0
          0.03984312526189488 0.05712347305406157 0 0.06551049401427872 0.028158966156970548 0
          -0.09357062221674993 0.23613862559197768 0 -0.09053696426213628 0.17282267996277834 0
          -0.10271309363426925 0.05569352042684767 0 -0.09959219843018786 0.1127065891206811 0
          -0.10262585638480153 0.17602253474988044 0 -0.05516527491905862 0.09627984274359658 0
          -0.05339267008864235 -0.021527381425393816 0 -0.005844851373431714 0.01905894089135507 0
          0.04533541425207921 -0.05564017080684404 0 -0.003770580747750385 -0.06360904056243692 0
          0.02990834265044577 -0.08046477423119819 0 0.07901433765027532 -0.07249590447560529 0
          0.04749691415858302 -0.05422143259023107 0 0.07102459231682998 -0.054522424123176864 0
          0.04551169544370291 -0.008787819322068784 0 0.02367486410561003 -0.018174141374392303 0
          0.039507168825137676 -0.036247952237802646 0 -0.10260298653690685 0.0509905708850328 0
          -0.09658141032346891 0.17442260735632936 0 -0.054278972503850484 0.03737623065910137 0
          0.042589269756987055 0.0007416511236087654 0 0.0376218784512625 -0.06805247251902109 0
          -0.0451630399467632 -0.05916560860585274 0 0.014999098927931838 0.027710089109279475 0
          0.06826754316555433 -0.013181728983103162 0 0.022755847721851463 -0.004393909661034401 0
          0.020917814954334348 0.023166553765681393 0 0.05926075323770651 -0.05437192835670397 0
          0 0 0 5.2629476330861324e-17 -2.1550870554907672e-17 0
          0 0 0 0.031958981333781444 -0.0718939214097137 0
          2.1430473606721658e-18 -1.6566327031745607e-17 0 0 0 0
          0.015979490666890722 -0.03594696070485686 0 0 0 0
          -0.1084708370282486 -0.01697990796656227 0 -0.07035428603254901 -0.10497336656386844 0
          -0.03326788779339835 0.11799668831686011 0 -0.0903603686921454 0.10325227371763218 0
          -0.0029964392361567227 -0.13868483390139094 0 6.116982307467984e-18 6.552209829270628e-17 0
          -0.0014982196180783579 -0.06934241695069543 0 -0.10249287943954448 0.04628762134321791 0
          -0.10561377464362584 -0.01072544735061548 0 -0.08655549914577605 -0.05472217664926855 0
          -0.036933409804884076 -0.09680383578631169 0 -0.0934376452714929 0.10640371218531515 0
          -0.003254486406687941 -0.11365956945507294 0 -0.10238277234218211 0.04158467180140304 0
          -0.09369297041787278 -0.05566432408638365 0 -0.028703779663004927 -0.13444206296677058 0
          -0.0665357755867967 0.23599337663372022 0 -0.11418496179749407 -0.029488829198455843 0
          -0.10227266524481973 0.03688172225958817 0 -0.0204741495211258 -0.17208029014722956 0
          <InformationKey name="L2_NORM_RANGE" location="vtkDataArray" length="2">
            <Value index="0">
              0
            </Value>
            <Value index="1">
              0.25750229954
            </Value>
          </InformationKey>
        </DataArray>
        <DataArray type="Float64" Name="Pressure" format="ascii" RangeMin="0.803436798597545" RangeMax="9.58296180239347">
          0.803436798597545 6.530985398291705 6.684406949432173 6.2176674297478485 8.020139216394341 9.58296180239347
          5.899222827554013 3.678074078082659 3.6672110984446817 2.6793579351272 6.607696173861882 6.243155044902778
          6.451037189589897 5.619843010544628 7.35227308291303 6.343337385947393 7.782742645948588 7.9003146160705455
          8.801550509393792 7.101920804869678 6.987731953954153 6.041462610449912 5.927273759534046 4.788648452818279
          7.913341789948959 5.488940978277697 7.1283395879479485 7.376129197658656 6.701292828246437 7.626293849491958
          7.756918552032062 4.6435270544943705 6.797714063908074 6.514597282201862 5.7652017943637475 5.099098248368136
          4.155369076469526 5.625611614178126 6.569340786076964 6.702705118884978 6.099239868208429 6.520434554405597
          6.387070221597355 7.686206149653799 7.489283466202494 7.074993573410552 6.280502407847621 6.859733291803025
          8.741638209231837 7.638221906864715 7.058991022909197 7.763304232781252 9.19225615589346 8.213922179442761
          8.41084486289401 8.279234530712984 7.42941967845087 7.5610300106320665 6.80825904353577 7.503935585174304
          6.892723008931171 6.471528322734116 6.751164618078008 8.317081656373261 6.959362157356054 8.47778019433747
          7.9500641645481664 7.920132270672411 8.638336790753442 5.362354931273217 7.289464579292485 6.495981438569743
          6.54488767024111 7.1560973143550655 4.555279071656855 5.955324691514079 9.34781786214944 6.1837023933453565
          7.299807878472848 6.951548466903091 6.741755135908875 6.478865717748363 8.408921009370033 8.411916299194445
          6.473936529947537 6.851943779246994 6.712286594670331 5.824973536447828 6.268630065559137 7.892525103514345
          8.995941405881581 8.9974390507939 8.084417425613196 7.114036488452825 7.2346025733511965 7.4679685506555415
          8.664976555620683 7.530498060472951 6.469007342147165 7.234880216346937 7.043411997796966 6.976578695332819
        </DataArray>
        <DataArray type="Float64" Name="Temperature" format="ascii" RangeMin="239.1197148745844" RangeMax="955.6459665160048">
          955.6459665160048 815.9491238373616 611.3702400529194 503.4908486334576 632.2839429040653 531.8706426592687
          721.4727477988724 239.65429506037216 885.7975451766831 954.9683723536903 713.6596819451404 783.2125198978553
          557.4305443431884 782.8305091221476 621.8270914784923 455.05515899780636 729.5547234081729 517.6807456463631
          582.077292781667 642.2723870968454 691.3799294312071 686.8667895442491 735.9743318786108 480.56352142962237
          954.3250706297857 239.38700496747828 704.6901148137961 457.7855010269683 756.1926162651603 569.7539185624277
          591.5258422402247 834.3140271494154 702.5198056881738 689.1233594877281 463.1268972558636 850.8733345070224
          860.0557861630493 773.986854547278 764.804402891251 708.0897438166571 766.8442179281021 742.8661627930145
          799.5808218676084 627.0555171912788 595.7905050204599 662.1734485833331 479.27300381563197 456.42033001238735
          524.7756941528158 487.7331233366657 510.58579713991037 543.7173321043954 556.9739677204678 575.9156056720474
          607.1806178428661 586.8015675109458 616.899114668535 637.2781650004553 665.6978732922867 661.8319361676362
          696.9498675596903 720.927922694778 690.2516444594676 491.9631830971826 483.50306357614886 550.3456499124317
          601.485561431663 612.0398662557006 561.5632687661911 812.4300945271502 662.0026923754846 731.8970427438965
          753.8352828421328 663.7649047299615 954.2907781913759 750.4759159583489 955.6185981828884 652.2608312896255
          239.1197148745844 954.9546881871322 445.69027308210497 953.031543076683 460.5158430561304 540.779297383604
          679.8255062194189 397.8902564075736 600.9743916987824 239.38750524883625 420.1809484738093 459.1506720415494
          496.1932428576995 536.3249700214363 566.1525698119144 427.83787871727094 596.2501169695036 426.3381609859162
          500.94174037113055 570.7418708576377 406.6194693621551 389.1610434529922 393.5256499302829 575.3311719033609
        </DataArray>
        <DataArray type="Float64" Name="Density" format="ascii" RangeMin="0.31398171504580236" RangeMax="1.2548332106395923">
          0.31398171504580236 0.36773782920699216 0.490791569307211 0.5959499767626155 0.4745579306745501 0.5641510086796095
          0.4158928531378792 1.2520341413773144 0.33874033765068623 0.3142044995728587 0.4204460012725843 0.3831084819512731
          0.538282953075076 0.3832954337456462 0.48253825485452795 0.6593823926842791 0.4112856101343106 0.5796146796393925
          0.5154905770492704 0.46717773575723504 0.4339948945150199 0.4368465095573944 0.40769813096251944 0.624382305695338
          0.31441630192664194 1.253432113343255 0.42579759987492344 0.6554496786599239 0.3967975263039115 0.5266402735770245
          0.50725655265868 0.3596431916271286 0.4271130253037786 0.43541603315602306 0.6478901599565855 0.3526439804546751
          0.34887894991315616 0.3876750073731002 0.39232953995685094 0.42375329139210177 0.39128593856259763 0.4039157718735714
          0.37526582846553147 0.4785148225587956 0.5036256150691667 0.45313710506702276 0.6260635528278674 0.6574101542215594
          0.5717783100219611 0.6152039818222076 0.5876688329837692 0.5518591036669162 0.5387242078320783 0.5210057803402601
          0.4941780925242754 0.5113404192426626 0.4863929164568842 0.4708389146568112 0.4507380473657513 0.45337092869948364
          0.43052646038073944 0.4162071548313911 0.43470430233928725 0.6099142575147245 0.6205862633506182 0.5452125579461597
          0.49885712772406926 0.49025459955567696 0.534321555970976 0.36933068034356425 0.4532539867271548 0.40996935637065174
          0.39803835980191954 0.45205065438849873 0.31442760047621954 0.39982010503312615 0.3139907072903926 0.460023575154805
          1.2548332106395923 0.3142090020134023 0.6732373975054701 0.31484305186229866 0.6515635977951058 0.5548573345818251
          0.44137114126820276 0.7541158767053117 0.4992814397550753 1.2534294938718706 0.7141098629844272 0.6535008610771369
          0.6047147232703244 0.5594655783625098 0.5299902809643382 0.7013295794260069 0.5032374015595297 0.7037966267185984
          0.5989825469943828 0.5257286610011876 0.7379266910509263 0.7710313367466933 0.7624798017523292 0.5215350292087064
        </DataArray>
      </PointData>
      <CellData>
        <DataArray type="UInt8" Name="vtkGhostType" format="ascii" RangeMin="0" RangeMax="1">
          0 0 0 0 0 0
          0 0 0 0 0 0
          0 0 0 0 0 0
          0 0 0 0 0 0
          0 0 0 0 0 0
          0 0 0 0 0 0
          0 0 0 0 0 0
          0 0 0 0 0 0
          0 0 0 0 0 0
          0 0 0 0 0 0
          0 0 0 0 0 0
          0 0 0 0 0 0
          1 1
        </DataArray>
      </CellData>
      <Points>
        <DataArray type="Float32" Name="Points" NumberOfComponents="3" format="ascii" RangeMin="0.25" RangeMax="1.4142135623730951">
          0 1 0 0.25 1 0
          0.25 0.75 0 0.25 0.5 0
          0.5 0.75 0 0.5 0.5 0
          0.75 1 0 1 1 0
          0.125 1 0 0 0.875 0
          0.25 0.875 0 0.375 1 0
          0.25 0.625 0 0.125 0.75 0
          0.375 0.75 0 0.25 0.375 0
          0.125 0.5 0 0.375 0.5 0
          0.5 0.625 0 0.625 0.75 0
          0.5 0.875 0 0.75 0.875 0
          0.625 1 0 0.875 1 0
          0 0.375 0 1 0.875 0
          0.125 0.375 0 0.375 0.375 0
          0.125 0.625 0 0.375 0.625 0
          0.625 0.625 0 0.125 0.875 0
          0.375 0.875 0 0.625 0.875 0
          0.875 0.875 0 0.1875 1 0
          0.125 0.9375 0 0.1875 0.875 0
          0.25 0.9375 0 0.3125 0.875 0
          0.4375 1 0 0.375 0.9375 0
          0.3125 1 0 0.4375 0.75 0
          0.375 0.6875 0 0.375 0.8125 0
          0.25 0.4375 0 0.3125 0.375 0
          0.4375 0.5 0 0.375 0.4375 0
          0.3125 0.5 0 0.375 0.5625 0
          0.5 0.5625 0 0.4375 0.625 0
          0.5 0.6875 0 0.5625 0.625 0
          0.625 0.6875 0 0.5625 0.75 0
          0.625 0.8125 0 0.5 0.8125 0
          0.4375 0.875 0 0.5 0.9375 0
          0.5625 0.875 0 0.4375 0.4375 0
          0.3125 0.4375 0 0.4375 0.5625 0
          0.4375 0.6875 0 0.5625 0.6875 0
          0.5625 0.5625 0 0.1875 0.9375 0
          0.4375 0.8125 0 0.4375 0.9375 0
          0.3125 0.9375 0 0.5625 0.8125 0
          0 0.75 0 0.5 1 0
          0 0.5 0 0.75 0.75 0
          1 0.75 0 0 0.625 0
          0.875 0.75 0 0 0.25 0
          0.5 0.375 0 0.625 0.5 0
          0.125 0.25 0 0.375 0.25 0
          0.75 0.625 0 1 0.625 0
          0.875 0.625 0 0.4375 0.375 0
          0.5 0.4375 0 0.5625 0.5 0
          0.625 0.5625 0 0.375 0.3125 0
          0.6875 0.625 0 0.4375 0.3125 0
          0.5625 0.4375 0 0.6875 0.5625 0
          0.25 0.25 0 0.5 0.25 0
          0.4375 0.25 0 0.75 0.5625 0
          <InformationKey name="L2_NORM_RANGE" location="vtkDataArray" length="2">
            <Value index="0">
              0.25
            </Value>
            <Value index="1">
              1.4142135624
            </Value>
          </InformationKey>
        </DataArray>
      </Points>
      <Cells>
        <DataArray type="Int64" Name="connectivity" format="ascii" RangeMin="0" RangeMax="101">
          98 15 26 84 3 16
          26 15 76 24 26 16
          81 84 26 24 98 85
          27 15 3 12 28 16
          2 13 28 12 74 79
          28 13 76 16 28 79
          2 12 29 14 3 17
          29 12 77 19 30 86
          78 80 88 87 77 86
          88 80 2 10 31 13
          0 9 31 8 74 13
          31 9 2 14 32 10
          77 21 33 19 6 22
          33 21 75 20 33 22
          78 25 34 80 7 23
          34 25 6 21 34 23
          77 80 34 21 27 93
          95 89 5 48 63 90
          17 49 63 48 27 89
          63 49 82 90 63 89
          3 46 64 50 15 47
          64 46 27 49 64 47
          17 50 64 49 5 90
          96 91 5 52 65 48
          18 53 65 52 29 51
          65 53 17 48 65 51
          4 43 66 54 14 44
          66 43 29 53 66 44
          18 54 66 53 30 92
          97 94 4 54 67 57
          18 55 67 54 30 56
          67 55 19 57 67 56
          5 91 68 52 83 92
          68 91 30 55 68 92
          18 52 68 55 1 35
          69 38 8 36 69 35
          31 37 69 36 10 38
          69 37 4 59 70 43
          20 60 70 59 32 45
          70 60 14 43 70 45
          75 40 71 61 11 41
          71 40 32 60 71 41
          20 61 71 60 1 38
          72 42 10 39 72 38
          32 41 72 39 11 42
          72 41 4 57 73 59
          19 58 73 57 33 62
          73 58 20 59 73 62
          85 100 95 93 86 94
          97 101
        </DataArray>
        <DataArray type="Int64" Name="offsets" format="ascii" RangeMin="4" RangeMax="296">
          4 8 12 16 20 24
          28 32 36 40 44 48
          52 56 60 64 68 72
          76 80 84 88 92 96
          100 104 108 112 116 120
          124 128 132 136 140 144
          148 152 156 160 164 168
          172 176 180 184 188 192
          196 200 204 208 212 216
          220 224 228 232 236 240
          244 248 252 256 260 264
          268 272 276 280 284 288
          292 296
        </DataArray>
        <DataArray type="UInt8" Name="types" format="ascii" RangeMin="9" RangeMax="9">
          9 9 9 9 9 9
          9 9 9 9 9 9
          9 9 9 9 9 9
          9 9 9 9 9 9
          9 9 9 9 9 9
          9 9 9 9 9 9
          9 9 9 9 9 9
          9 9 9 9 9 9
          9 9 9 9 9 9
          9 9 9 9 9 9
          9 9 9 9 9 9
          9 9 9 9 9 9
          9 9
        </DataArray>
      </Cells>
    </Piece>
  </UnstructuredGrid>
</VTKFile>
