<?xml version="1.0"?>
<VTKFile type="UnstructuredGrid" version="0.1" byte_order="LittleEndian" header_type="UInt32" compressor="vtkZLibDataCompressor">
  <UnstructuredGrid>
    <Piece NumberOfPoints="118" NumberOfCells="86">
      <PointData>
        <DataArray type="Float64" Name="Velocity" NumberOfComponents="3" format="ascii" RangeMin="0" RangeMax="0.5407017240475177">
          0 0 0 9.778178042334722e-17 1.0140680638858616e-16 0
          -0.22234436663685217 -0.1405677239851524 0 -0.394541773214233 -0.07012071658949728 0
          -0.27081799980527077 -0.2844189220498399 0 -0.41463583658570646 -0.22677192749004632 0
          1.9500015960680506e-16 1.5880128208983594e-16 0 0 0 0
          4.889089021167361e-17 5.070340319429308e-17 0 0 0 0
          -0.11117218331842604 -0.07028386199257618 0 -9.576018947682673e-18 1.8802814969362088e-18 0
          -0.3084430699255426 -0.10534422028732479 0 -0.11117218331842608 -0.0702838619925762 0
          -0.24658118322106143 -0.21249332301749624 0 -0.3376589874453501 -0.03371699430433947 0
          -0.1972708866071165 -0.03506035829474864 0 -0.40458880489996973 -0.14844632203977182 0
          -0.3427269181954886 -0.2555954247699432 0 -0.28631805580989805 -0.3655393225255439 0
          -0.13540899990263544 -0.14220946102492 0 -0.15090905590726264 -0.2233298615006238 0
          3.903317064404628e-17 3.0577519347561124e-17 0 9.750007980340253e-17 7.940064104491797e-17 0
          0 0 0 -2.302794206623576e-17 -4.8256824687623135e-17 0
          -0.16882949372267506 -0.016858497152169735 0 -0.3520792835611157 -0.13430443449057158 0
          -0.1542215349627713 -0.052672110143662396 0 -0.3255849940605155 -0.18046982252863392 0
          -0.30262205228196976 -0.36327036503587506 0 -0.05558609165921302 -0.03514193099628809 0
          -0.12329059161053071 -0.10624666150874809 0 -0.14315902790494905 -0.1827696612627719 0
          -0.07545452795363133 -0.11166493075031195 0 7.333633531751037e-17 7.605510479143961e-17 0
          -0.027793045829606487 -0.01757096549814402 0 -0.08337913748881953 -0.05271289649443213 0
          -0.055586091659212966 -0.035141930996288054 0 -0.11723138746447838 -0.08826526175066213 0
          -6.32549186331976e-17 -4.7882980948888755e-17 0 -0.06164529580526536 -0.05312333075437405 0
          4.410288073783227e-17 5.164354394276117e-17 0 -0.25869959151316607 -0.24845612253366797 0
          -0.28608308864078846 -0.19648157277306508 0 -0.18493588741579609 -0.15936999226312215 0
          -0.36610038032979153 -0.05191885544691838 0 -0.3448691355032329 -0.08401071439745553 0
          -0.4096123207428381 -0.18760912476490907 0 -0.3783340442305427 -0.1413753782651717 0
          -0.39956528905710137 -0.10928351931463455 0 -0.36508689948024264 -0.16445807228420287 0
          -0.37868137739059743 -0.24118367612999475 0 -0.3341559561280021 -0.21803262364928858 0
          -0.3067724590003797 -0.2700071734098915 0 -0.32267448523872916 -0.30943289490290904 0
          -0.2944700540459339 -0.3644048437807095 0 -0.27856802780758444 -0.3249791222876919 0
          -0.21473854185742355 -0.27415449189415786 0 -0.2031134998539531 -0.2133141915373799 0
          -0.12934979575658306 -0.12422806126683404 0 -0.06770449995131778 -0.07110473051246005 0
          -0.13928401390379225 -0.16248956114384594 0 -0.3844508761809183 -0.18610363967429835 0
          -0.3722172122801672 -0.0966471168560451 0 -0.37188413843541995 -0.20282087420709882 0
          -0.296427773820584 -0.23324437309147827 0 -0.3006212565231568 -0.3172060085953005 0
          -0.34472771395430146 -0.3016597812105176 0 -0.04168956874440971 -0.026356448247216016 0
          -0.19402469363487465 -0.18634209190025103 0 -0.06467489787829157 -0.062114030633417035 0
          -0.05861569373223914 -0.044132630875331036 0 -0.20892602085568843 -0.2437343417157689 0
          0 0 0 -1.169338183187125e-16 -9.764624339471372e-17 0
          0 0 0 -0.30181811181452545 -0.4466597230012478 0
          -4.605588413247152e-17 -9.651364937524627e-17 0 0 0 0
          -0.15090905590726275 -0.22332986150062392 0 -0.4121240786642722 -0.20719052612747768 0
          -0.3970315984618782 -0.1868563822196037 0 -0.390748229589129 -0.19521499948600396 0
          -0.396658606988152 -0.23397780181002048 0 -0.3752827579130087 -0.2220022751685468 0
          -0.3617045456724495 -0.27142172867025616 0 -0.3875092921561061 -0.2084677703788617 0
          -0.35575432831208764 -0.29777322436432196 0 -0.40260177235850014 -0.2288019142867357 0
          -0.39070838962779003 -0.26032929750408623 0 -0.3998166854101891 -0.2078291482531697 0
          -0.3806919528520244 -0.25985112509940456 0 -0.3937034182886405 -0.21459640064801222 0
          -0.37620646765011967 -0.2658755130871713 0 0 0 0
          -0.36649957967688146 -0.23489187467680378 0 -0.3189260487540412 -0.3610014075462061 0
          -0.14038810083823353 0.0013433639904091993 0 -0.2995697622222618 -0.12016254694137139 0
          -0.2625171863684508 -0.470945305301807 0 9.57205195069713e-18 9.731761237376286e-17 0
          -0.13125859318422536 -0.23547265265090342 0 -0.35928943161899857 -0.18459815458368767 0
          -0.3905677081312939 -0.23083190108342502 0 -0.3667809426698738 -0.29388666751812625 0
          -0.31077405051800555 -0.36213588629104065 0 -0.32582452289168873 -0.12723349071597148 0
          -0.2825696193252103 -0.41710783516884103 0 -0.3341279870570789 -0.183092669493077 0
          -0.3507833240212233 -0.28791400430602054 0 -0.2768203870817094 -0.4226119913715635 0
          -0.28077620167646705 0.0026867279808183986 0 -0.3706755160762586 -0.25937295269472277 0
          -0.35878213334554854 -0.2909003359120734 0 -0.31836332276805646 -0.24301182186356116 0
          -0.3089665424951591 -0.18158718440246627 0 -0.2428667236454134 -0.4830880964520865 0
          <InformationKey name="L2_NORM_RANGE" location="vtkDataArray" length="2">
            <Value index="0">
              0
            </Value>
            <Value index="1">
              0.54070172405
            </Value>
          </InformationKey>
        </DataArray>
        <DataArray type="Float64" Name="Pressure" format="ascii" RangeMin="68.35648472588741" RangeMax="101.68771911871477">
          74.93176948473649 74.52702506769754 75.9401932178124 73.65641204776568 87.69193199367237 101.68771911871477
          86.10728778578573 76.72915801869533 74.72939727621701 73.49627115891587 75.23360914275497 77.4538007265952
          74.79830263278905 74.00048302545395 81.81606260574199 79.09406956600617 80.8879320758075 87.67206558324017
          94.68982555619345 82.34612381108116 84.03625418958256 81.55380170713795 83.24393208563947 81.41822290224036
          78.2379684148683 75.72015797824929 78.66601899043712 85.43858172335342 77.44420755063061 84.74406409449125
          86.55183515408282 74.36494015083531 79.63493166616877 82.79502794836014 78.63697984269368 74.62821117195722
          74.54716871352616 74.79927464679514 74.88031710522625 77.43427040446187 78.91718855604415 78.54436619638204
          75.99041289714637 84.7539972997073 83.28006335011662 80.72549713595538 76.37524080688593 82.2663256446798
          94.67989235097787 86.5553236532968 80.66423881550293 86.20806483886571 98.18877233745422 89.71694482534247
          91.19087877493291 90.62083035513842 84.44897948258199 85.0190279023767 82.57057587972065 85.86409309162741
          81.83559292787561 82.20841528753778 83.41564106897135 91.64536507650257 81.46528223009125 92.19841858816017
          87.23547106252488 87.81992912875762 93.42173158151877 74.71374290937604 83.29479511379157 80.37639074195988
          76.71234165080409 84.21733448567397 72.06077283309514 80.38057638549299 88.11945210384954 77.00031562849006
          74.7111579378037 80.09011246847228 75.85573678314677 98.18380573484626 93.16262871374022 93.43915546956902
          99.93824572808444 95.1935954628072 95.8052519594865 94.19038578810523 94.82218219470917 99.21156280921139
          98.95517596330706 96.18709576147558 96.73060230801946 96.6887005988267 97.38021396139675 68.35648472588741
          91.78309388070068 90.75754649708449 76.4441059050672 83.20509786346679 78.41384475197196 71.66131106629234
          75.03757790913198 88.61083780202705 96.73540649970789 96.22263280789957 88.65469082558354 84.3218397934101
          82.4828399530274 85.57631052755187 92.27665080575468 83.88765006964809 84.53172708424688 94.50602865273129
          94.24964180682713 81.87846864268636 82.54178325307657 79.12060931371275
        </DataArray>
        <DataArray type="Float64" Name="Temperature" format="ascii" RangeMin="243.63836529358107" RangeMax="957.4979038576816">
          953.8924404674026 789.686386526168 622.0042531631121 522.8164479500169 644.8718423292036 520.4672284195182
          705.6997518105388 245.63930257746972 871.7894134967853 949.5575151389835 705.84531984464 763.0818114488447
          572.4103505565645 783.6134214868383 633.4380477461578 477.4150852740806 740.1571759038493 521.6418381847675
          582.6695353743609 650.4285939094524 690.6745393503626 680.8425486501201 721.0884940910303 475.6695271940043
          949.5286732414056 244.6388339355254 713.4718792577431 465.16251348753013 761.8852986953437 577.5399429654627
          593.7163528454794 827.7014174918119 698.2599295975014 685.7585440002413 462.7406912928227 830.7379000114768
          849.7454154942986 766.7733686682259 747.765853185404 702.0526247210707 749.7795239101831 730.6708705231731
          776.3840989875064 639.1549450376806 605.4889953558103 665.8489886718296 500.1157666120488 471.28879938080536
          521.0545333021429 493.40217583614884 522.2291430673922 549.590890575115 551.5683818969395 580.1047391699118
          613.7706888517822 588.1929441099202 622.0724733774659 647.650218119328 668.0935689548469 667.773190839783
          694.467234473932 713.5758878609421 688.2165416753019 490.0453804481989 496.7589712240988 550.5796362360273
          609.6298421037961 617.9215811146241 558.4643071052162 798.7556343398513 666.8110897558063 722.1233791920577
          739.2183618542884 667.9333798973149 945.2225898105644 736.4772363715216 957.4979038576816 655.9853454897012
          243.63836529358107 951.360246834123 449.8118553916412 520.7608808608304 505.5499568751709 535.8170847690851
          536.0178051582288 551.0740090664834 555.0163445010778 488.36698275422395 543.5999886028642 503.5779067398836
          524.6014492600152 504.5639318075272 507.57902654108494 535.917444963657 539.8088968805464 941.5594426251298
          452.90994170097986 537.0041117815065 686.7865826116368 408.68318879029295 604.763170316598 244.5729276154879
          424.6680489660429 459.0362275942551 486.688585060249 528.7356701005123 565.3602323134929 436.92285113891154
          599.2397615810387 428.02707474031126 494.4246225840601 572.2561575217696 432.0137225981441 490.55660382215456
          511.5801463422862 385.3526549824418 397.0179218863674 579.1520827300463
        </DataArray>
        <DataArray type="Float64" Name="Density" format="ascii" RangeMin="0.3097239085981544" RangeMax="1.2172138525884053">
          0.31089458378769425 0.3755414786392723 0.47678129490148713 0.5672353928805491 0.45987430957785375 0.56979570867102
          0.42023536567284964 1.207298629110103 0.3401738867966129 0.3123138814966196 0.4201486996083155 0.38863459829329416
          0.5180898510465274 0.37845190641916804 0.46817521352330205 0.6211785140536312 0.40067164503970965 0.5685126681734803
          0.5089677342866458 0.4559455042940898 0.4293773352877328 0.4355779377263054 0.4112671269719404 0.6234580445099387
          0.31232336801897126 1.2122359663286306 0.4156575779354692 0.6375406114175 0.3892449345920861 0.5134882822729293
          0.4994977683131523 0.35829344615115966 0.42471289084035996 0.43245541138636795 0.6408772749783477 0.3569838251670521
          0.34899863870972636 0.3867635541025932 0.3965947254665703 0.42241846667144917 0.3955295974351872 0.4058735680060694
          0.3819758720510752 0.4639876379894983 0.48978593423167033 0.44538626370656487 0.5929826913203267 0.6292532172353157
          0.5691534653348373 0.6010512474023301 0.5678733123077944 0.5396013622915187 0.5376667753097444 0.5112180150117324
          0.483177184319658 0.5041882875798669 0.476729008192896 0.4579014797810206 0.44388990859659666 0.4441028740378017
          0.4270323760947327 0.41559699297901875 0.43091087659043364 0.6051684294750523 0.5969897081608142 0.5386323317090664
          0.486459114655428 0.47993143842362307 0.5310276583199225 0.37127749778245933 0.4447436430098135 0.4106777343078754
          0.4011805016767125 0.4439963657796723 0.3137461974081425 0.40267367219445066 0.3097239085981544 0.4520832596282396
          1.2172138525884053 0.31172207819720743 0.6592978590996292 0.5694744059252687 0.5866086807531207 0.5534724473840659
          0.5532651908266341 0.5381491204052831 0.5343265945148488 0.6072482451308304 0.545548196238094 0.5889058858384848
          0.5653053259301102 0.587755038682527 0.5842636865401226 0.5533687996990883 0.549379595206943 0.31496683037930373
          0.654787996358746 0.552249017746821 0.4318080765783384 0.725647644414154 0.4903737658199154 1.2125626337661788
          0.698333660795504 0.6460492123063373 0.6093424057205467 0.5608851644167778 0.5245505012685402 0.6787468141899845
          0.49489371745775834 0.6928533514784485 0.5998083018345655 0.5182294491013133 0.6864596602946311 0.604537765767914
          0.5796941014574083 0.7695807708158998 0.7469687812788992 0.5120589256269207
        </DataArray>
      </PointData>
      <CellData>
        <DataArray type="UInt8" Name="vtkGhostType" format="ascii" RangeMin="0" RangeMax="1">
          0 0 0 0 0 0
          0 0 0 0 0 0
          0 0 0 0 0 0
          0 0 0 0 0 0
          0 0 0 0 0 0
          0 0 0 0 0 0
          0 0 0 0 0 0
          0 0 0 0 0 0
          0 0 0 0 0 0
          0 0 0 0 0 0
          0 0 0 0 0 0
          0 0 0 0 0 0
          0 0 0 0 0 0
          0 0 0 0 0 0
          1 1
        </DataArray>
      </CellData>
      <Points>
        <DataArray type="Float32" Name="Points" NumberOfComponents="3" format="ascii" RangeMin="0.25" RangeMax="1.4142135623730951">
          0 1 0 0.25 1 0
          0.25 0.75 0 0.25 0.5 0
          0.5 0.75 0 0.5 0.5 0
          0.75 1 0 1 1 0
          0.125 1 0 0 0.875 0
          0.25 0.875 0 0.375 1 0
          0.25 0.625 0 0.125 0.75 0
          0.375 0.75 0 0.25 0.375 0
          0.125 0.5 0 0.375 0.5 0
          0.5 0.625 0 0.625 0.75 0
          0.5 0.875 0 0.75 0.875 0
          0.625 1 0 0.875 1 0
          0 0.375 0 1 0.875 0
          0.125 0.375 0 0.375 0.375 0
          0.125 0.625 0 0.375 0.625 0
          0.625 0.625 0 0.125 0.875 0
          0.375 0.875 0 0.625 0.875 0
          0.875 0.875 0 0.1875 1 0
          0.125 0.9375 0 0.1875 0.875 0
          0.25 0.9375 0 0.3125 0.875 0
          0.4375 1 0 0.375 0.9375 0
          0.3125 1 0 0.4375 0.75 0
          0.375 0.6875 0 0.375 0.8125 0
          0.25 0.4375 0 0.3125 0.375 0
          0.4375 0.5 0 0.375 0.4375 0
          0.3125 0.5 0 0.375 0.5625 0
          0.5 0.5625 0 0.4375 0.625 0
          0.5 0.6875 0 0.5625 0.625 0
          0.625 0.6875 0 0.5625 0.75 0
          0.625 0.8125 0 0.5 0.8125 0
          0.4375 0.875 0 0.5 0.9375 0
          0.5625 0.875 0 0.4375 0.4375 0
          0.3125 0.4375 0 0.4375 0.5625 0
          0.4375 0.6875 0 0.5625 0.6875 0
          0.5625 0.5625 0 0.1875 0.9375 0
          0.4375 0.8125 0 0.4375 0.9375 0
          0.3125 0.9375 0 0.5625 0.8125 0
          0 0.75 0 0.5 1 0
          0 0.5 0 0.75 0.75 0
          1 0.75 0 0 0.625 0
          0.875 0.75 0 0.46875 0.5 0
          0.4375 0.46875 0 0.4375 0.53125 0
          0.5 0.53125 0 0.46875 0.5625 0
          0.53125 0.5625 0 0.46875 0.4375 0
          0.5625 0.53125 0 0.5 0.46875 0
          0.53125 0.5 0 0.46875 0.46875 0
          0.53125 0.46875 0 0.46875 0.53125 0
          0.53125 0.53125 0 0 0.25 0
          0.5 0.375 0 0.625 0.5 0
          0.125 0.25 0 0.375 0.25 0
          0.75 0.625 0 1 0.625 0
          0.875 0.625 0 0.4375 0.375 0
          0.5 0.4375 0 0.5625 0.5 0
          0.625 0.5625 0 0.375 0.3125 0
          0.6875 0.625 0 0.4375 0.3125 0
          0.5625 0.4375 0 0.6875 0.5625 0
          0.25 0.25 0 0.53125 0.4375 0
          0.5625 0.46875 0 0.5 0.25 0
          0.4375 0.25 0 0.75 0.5625 0
          <InformationKey name="L2_NORM_RANGE" location="vtkDataArray" length="2">
            <Value index="0">
              0.25
            </Value>
            <Value index="1">
              1.4142135624
            </Value>
          </InformationKey>
        </DataArray>
      </Points>
      <Cells>
        <DataArray type="Int64" Name="connectivity" format="ascii" RangeMin="0" RangeMax="117">
          112 15 26 98 3 16
          26 15 76 24 26 16
          95 98 26 24 112 99
          27 15 3 12 28 16
          2 13 28 12 74 79
          28 13 76 16 28 79
          2 12 29 14 3 17
          29 12 77 19 30 100
          78 80 102 101 77 100
          102 80 2 10 31 13
          0 9 31 8 74 13
          31 9 2 14 32 10
          77 21 33 19 6 22
          33 21 75 20 33 22
          78 25 34 80 7 23
          34 25 6 21 34 23
          77 80 34 21 27 107
          109 103 17 49 63 48
          27 103 63 49 96 104
          63 103 3 46 64 50
          15 47 64 46 27 49
          64 47 17 50 64 49
          18 53 65 52 29 51
          65 53 17 48 65 51
          4 43 66 54 14 44
          66 43 29 53 66 44
          18 54 66 53 30 106
          111 108 4 54 67 57
          18 55 67 54 30 56
          67 55 19 57 67 56
          97 106 68 105 30 55
          68 106 18 52 68 55
          1 35 69 38 8 36
          69 35 31 37 69 36
          10 38 69 37 4 59
          70 43 20 60 70 59
          32 45 70 60 14 43
          70 45 75 40 71 61
          11 41 71 40 32 60
          71 41 20 61 71 60
          1 38 72 42 10 39
          72 38 32 41 72 39
          11 42 72 41 4 57
          73 59 19 58 73 57
          33 62 73 58 20 59
          73 62 5 81 91 89
          48 82 91 81 63 87
          91 82 104 89 91 87
          5 89 92 90 104 113
          92 89 110 114 92 113
          105 90 92 114 5 84
          93 81 52 85 93 84
          65 83 93 85 48 81
          93 83 5 90 94 84
          105 88 94 90 68 86
          94 88 52 84 94 86
          99 116 109 107 100 108
          111 117
        </DataArray>
        <DataArray type="Int64" Name="offsets" format="ascii" RangeMin="4" RangeMax="344">
          4 8 12 16 20 24
          28 32 36 40 44 48
          52 56 60 64 68 72
          76 80 84 88 92 96
          100 104 108 112 116 120
          124 128 132 136 140 144
          148 152 156 160 164 168
          172 176 180 184 188 192
          196 200 204 208 212 216
          220 224 228 232 236 240
          244 248 252 256 260 264
          268 272 276 280 284 288
          292 296 300 304 308 312
          316 320 324 328 332 336
          340 344
        </DataArray>
        <DataArray type="UInt8" Name="types" format="ascii" RangeMin="9" RangeMax="9">
          9 9 9 9 9 9
          9 9 9 9 9 9
          9 9 9 9 9 9
          9 9 9 9 9 9
          9 9 9 9 9 9
          9 9 9 9 9 9
          9 9 9 9 9 9
          9 9 9 9 9 9
          9 9 9 9 9 9
          9 9 9 9 9 9
          9 9 9 9 9 9
          9 9 9 9 9 9
          9 9 9 9 9 9
          9 9 9 9 9 9
          9 9
        </DataArray>
      </Cells>
    </Piece>
  </UnstructuredGrid>
</VTKFile>
