<?xml version="1.0"?>
<VTKFile type="UnstructuredGrid" version="0.1" byte_order="LittleEndian" header_type="UInt32" compressor="vtkZLibDataCompressor">
  <UnstructuredGrid>
    <Piece NumberOfPoints="44" NumberOfCells="66">
      <PointData>
        <DataArray type="Float64" Name="ale_BC" NumberOfComponents="3" format="ascii" RangeMin="0" RangeMax="0">
          0 0 0 0 0 0
          0 0 0 0 0 0
          0 0 0 0 0 0
          0 0 0 0 0 0
          0 0 0 0 0 0
          0 0 0 0 0 0
          0 0 0 0 0 0
          0 0 0 0 0 0
          0 0 0 0 0 0
          0 0 0 0 0 0
          0 0 0 0 0 0
          0 0 0 0 0 0
          0 0 0 0 0 0
          0 0 0 0 0 0
          0 0 0 0 0 0
          0 0 0 0 0 0
          0 0 0 0 0 0
          0 0 0 0 0 0
          0 0 0 0 0 0
          0 0 0 0 0 0
          0 0 0 0 0 0
          0 0 0 0 0 0
          <InformationKey name="L2_NORM_RANGE" location="vtkDataArray" length="2">
            <Value index="0">
              0
            </Value>
            <Value index="1">
              0
            </Value>
          </InformationKey>
        </DataArray>
        <DataArray type="Float64" Name="ale_FIXNO" NumberOfComponents="3" format="ascii" RangeMin="1" RangeMax="1.4142135623730951">
          1 1 0 0 1 0
          1 0 0 -1 -1 0
          -1 -1 0 0 1 0
          1 0 0 -1 -1 0
          -1 -1 0 -1 -1 0
          -1 -1 0 -1 -1 0
          0 1 0 1 0 0
          -1 -1 0 -1 -1 0
          -1 -1 0 -1 -1 0
          -1 -1 0 -1 -1 0
          0 1 0 1 0 0
          -1 -1 0 -1 -1 0
          -1 -1 0 -1 -1 0
          -1 -1 0 1 1 0
          1 1 0 -1 -1 0
          1 0 0 0 1 0
          -1 -1 0 1 0 0
          0 1 0 -1 -1 0
          -1 -1 0 -1 -1 0
          1 0 0 0 1 0
          -1 -1 0 1 0 0
          0 1 0 1 1 0
          <InformationKey name="L2_NORM_RANGE" location="vtkDataArray" length="2">
            <Value index="0">
              1
            </Value>
            <Value index="1">
              1.4142135624
            </Value>
          </InformationKey>
        </DataArray>
        <DataArray type="Float64" Name="nsi_BC" NumberOfComponents="3" format="ascii" RangeMin="0" RangeMax="0">
          0 0 0 0 0 0
          0 0 0 0 0 0
          0 0 0 0 0 0
          0 0 0 0 0 0
          0 0 0 0 0 0
          0 0 0 0 0 0
          0 0 0 0 0 0
          0 0 0 0 0 0
          0 0 0 0 0 0
          0 0 0 0 0 0
          0 0 0 0 0 0
          0 0 0 0 0 0
          0 0 0 0 0 0
          0 0 0 0 0 0
          0 0 0 0 0 0
          0 0 0 0 0 0
          0 0 0 0 0 0
          0 0 0 0 0 0
          0 0 0 0 0 0
          0 0 0 0 0 0
          0 0 0 0 0 0
          0 0 0 0 0 0
          <InformationKey name="L2_NORM_RANGE" location="vtkDataArray" length="2">
            <Value index="0">
              0
            </Value>
            <Value index="1">
              0
            </Value>
          </InformationKey>
        </DataArray>
        <DataArray type="Float64" Name="nsi_FIXNO" NumberOfComponents="3" format="ascii" RangeMin="1" RangeMax="1.4142135623730951">
          1 1 0 0 1 0
          1 0 0 -1 -1 0
          -1 -1 0 0 1 0
          1 0 0 -1 -1 0
          -1 -1 0 -1 -1 0
          -1 -1 0 -1 -1 0
          0 1 0 1 0 0
          -1 -1 0 -1 -1 0
          -1 -1 0 -1 -1 0
          -1 -1 0 -1 -1 0
          0 1 0 1 0 0
          -1 -1 0 -1 -1 0
          -1 -1 0 -1 -1 0
          -1 -1 0 1 1 0
          1 1 0 -1 -1 0
          1 0 0 0 1 0
          -1 -1 0 1 0 0
          0 1 0 -1 -1 0
          -1 -1 0 -1 -1 0
          1 0 0 0 1 0
          -1 -1 0 1 0 0
          0 1 0 1 1 0
          <InformationKey name="L2_NORM_RANGE" location="vtkDataArray" length="2">
            <Value index="0">
              1
            </Value>
            <Value index="1">
              1.4142135624
            </Value>
          </InformationKey>
        </DataArray>
        <DataArray type="Float64" Name="lev_BC" format="ascii" RangeMin="-0.5" RangeMax="0.5">
          -0.5 -0.3 -0.5 -0.32499 -0.35371 -0.25
          -0.5 -0.198092 -0.109713 -0.357575 -0.207421 -0.006945
          -0.25 -0.5 -0.059263 -0.216878 0.02803 -0.061131
          0.142998 -0.351371 -0.25 -0.5 0.030858 0.192875
          -0.104258 0.199684 0.083861 -0.5 -0.25 0.222426
          -0.048337 -0.280888 0.341722 0.153327 -0.061777 0.146545
          0.227286 0.363955 0.354826 0.155833 0.392298 0.5
          0.37 0.5
        </DataArray>
        <DataArray type="Float64" Name="lev_FIXNO" format="ascii" RangeMin="0" RangeMax="0">
          0 0 0 0 0 0
          0 0 0 0 0 0
          0 0 0 0 0 0
          0 0 0 0 0 0
          0 0 0 0 0 0
          0 0 0 0 0 0
          0 0 0 0 0 0
          0 0
        </DataArray>
        <DataArray type="Float64" Name="Velocity" NumberOfComponents="3" format="ascii" RangeMin="0" RangeMax="2.246092757982847">
          0 0 0 0.27684735361325774 0 0
          0 -0.3868051375009708 0 0.31587495899590345 -0.30173506518173765 0
          0.474346259368855 -0.5875643926261682 0 0.3823960840105043 0 0
          0 -0.5629062146416456 0 0.6707443120560986 -0.5556275535616666 0
          0.4135359026430675 -0.29019422819498303 0 0.45061271013684473 -0.7050846895388979 0
          1.864163243525237 -1.2529278027693613 0 0.3139895689565524 -0.3579265592127451 0
          0.3630150004997017 0 0 0 -0.5583590636786468 0
          0.32458305925401904 -0.8695904948637916 0 0.17522309307876374 -0.5955421527367032 0
          -0.12717668285116865 0.05339609260505516 0 -0.015630999436747343 -0.40807647896952526 0
          -0.06332346953381542 0.013463874190031653 0 -0.23586318332344275 -0.3419180204397801 0
          0.40750315311351454 0 0 0 -0.28825063830731995 0
          -0.0013326874978134798 -0.5390766732047985 0 0.05652032193999679 -0.00579014838236061 0
          -1.61911852720357 -0.20757798876188988 0 -0.0015304622899743538 0.05369222455466003 0
          -0.15180995080441023 -0.003915172478651287 0 0 0 0
          0 0 0 -0.0035404905972318984 -0.0018447804643549764 0
          0 -0.7160358978586642 0 -0.7540883847306714 0 0
          -0.004305530528791152 -0.01784809742671173 0 0 0.04660686898271522 0
          -1.7759723831015328 0 0 0.05483243060624506 0.04406804817784068 0
          0.03066698324565842 0.0018038980233154036 0 -0.00041333858991731245 0.0005996768765189166 0
          0 -0.004529652004346164 0 0.006588803846127222 0 0
          0.006814990972993736 -0.00185134525832393 0 0 -0.00038539712418953886 0
          -0.022273893986390896 0 0 0 0 0
          <InformationKey name="L2_NORM_RANGE" location="vtkDataArray" length="2">
            <Value index="0">
              0
            </Value>
            <Value index="1">
              2.246092758
            </Value>
          </InformationKey>
        </DataArray>
        <DataArray type="Float64" Name="Pressure" format="ascii" RangeMin="-4907.882015738697" RangeMax="4718.994689983455">
          -4907.882015738697 -4884.098450436629 -2767.4304496868967 -3260.569681777965 -1541.5772830740466 -4822.337920648089
          -1020.1396818575602 -1998.123422219381 -3446.1984602853527 106.28874189532375 -258.36789428843747 -1529.6156058504655
          -4779.843866113135 686.9431574152808 -2841.115602854224 928.9577701569885 -69.5490316312758 886.5334388173943
          -1050.2474125311219 2202.5150847744985 -4834.158415153361 2537.6058179122188 -2105.7045870305806 422.17440864232395
          2334.324755869902 -569.8214771093985 2167.833303917262 4429.437029045413 -4829.1447459512 1912.0635616146033
          -2837.7108116959316 4380.049374577974 961.7494292045133 -1014.9903171489607 4154.343500973434 3488.5083517194107
          3435.4824898508564 2263.0486374849015 877.972025135795 4554.068156330783 3590.136830019136 2797.5070620598412
          4712.345837729407 4718.994689983455
        </DataArray>
        <DataArray type="Float64" Name="Proj_residual_U" NumberOfComponents="3" format="ascii" RangeMin="0" RangeMax="7137.430163648179">
          0 0 0 -67.66364315308972 5.41180779912369 0
          146.2992592982273 -658.6405856574282 0 134.11670867909606 -637.5504609763616 0
          567.9304097115177 -1090.8709065919118 0 -9.08762324986937 0 0
          0 -355.1632806996452 0 2279.1207731894474 -1726.8585765778153 0
          63.54731510487958 -186.84451063622737 0 -2955.038531131547 923.1249410164157 0
          -1973.9509379261037 -254.12956611093793 0 222.7243467860088 -67.3705002301637 0
          -16.95250174910595 -121.98749494986416 0 -905.7607329617962 841.4624728213615 0
          39.1552210600877 416.03533428999765 0 -6804.581679921755 2154.1999680224903 0
          -4.402888407725186 -71.46835893722366 0 -2887.6018531346535 1296.0989660933537 0
          -13.679248558762238 180.7812689161157 0 -1381.6859920408056 747.5114445063648 0
          45.05088104594307 -0.5465524200766761 0 0 579.9044090258835 0
          -30.884033216252163 335.2773797487206 0 -62.97821874190717 4.007116201124602 0
          -1333.8492786246904 156.79070998231126 0 -6.186315778760539 -45.98125504149608 0
          -884.1900695702376 -74.09623252603664 0 0 0 0
          -0.2924395919627051 -1.6206757158369347 0 -124.7004329367159 4.956614541278915 0
          0.002063876037973899 2.3023373222510717 0 -1585.7285495538326 43.733191185680134 0
          10.975316831407586 -7.402732862446259 0 -0.30666660268249013 96.03712912542504 0
          -1314.1192229725327 6.7510664503475235 0 -1715.4583280193606 -211.48393113626722 0
          -64.17308058459449 53.532059079863394 0 6.1108389304983435 -0.6563073270643928 0
          0.3140421742617154 -2.9611587675757898 0 -2363.2590992007567 -184.00476389786763 0
          10.04278817422817 1.2960056147335033 0 0.24819748116209633 0.07657543157785737 0
          33.045157343488206 28.157934235880546 0 0 0 0
          <InformationKey name="L2_NORM_RANGE" location="vtkDataArray" length="2">
            <Value index="0">
              0
            </Value>
            <Value index="1">
              7137.4301636
            </Value>
          </InformationKey>
        </DataArray>
        <DataArray type="Float64" Name="Proj_residual_P" format="ascii" RangeMin="-5.895501484568712" RangeMax="5.698187397870138">
          3.3873034280792793 2.6814113219282802 3.795240034497869 3.0816154326698304 5.698187397870138 2.2840003515961786
          3.6037437298053914 2.3597962432934954 1.5852077165578298 2.888661057758656 1.7913111418775467 -1.3199362540854376
          3.7429638499226883 0.05663315626310504 0.5753029154266479 -3.8695052794972473 -0.4333460134383297 -1.816779764267235
          -2.831098517344642 -4.1245977450085425 1.2846711833817819 -3.0186188332697714 -1.642278482973256 0.65882923113035
          -1.975502775385066 -1.2472781174743603 2.0046561214321246 -4.251032790440595 0.0050130877777556935 0.32119042220768174
          -1.1517810970501856 -5.895501484568712 0.08101992289176276 -1.7210187466144775 -1.4977183999326362 3.6742670764645338
          0.0012594783817118642 -0.07041137462865305 0.08041302729260495 4.6391225581255995 -0.05000873430921886 -0.029101720364243123
          -0.05356415122540169 0.025998796576105203
        </DataArray>
        <DataArray type="Float64" Name="ALEdispl" NumberOfComponents="3" format="ascii" RangeMin="0" RangeMax="0">
          0 0 0 0 0 0
          0 0 0 0 0 0
          0 0 0 0 0 0
          0 0 0 0 0 0
          0 0 0 0 0 0
          0 0 0 0 0 0
          0 0 0 0 0 0
          0 0 0 0 0 0
          0 0 0 0 0 0
          0 0 0 0 0 0
          0 0 0 0 0 0
          0 0 0 0 0 0
          0 0 0 0 0 0
          0 0 0 0 0 0
          0 0 0 0 0 0
          0 0 0 0 0 0
          0 0 0 0 0 0
          0 0 0 0 0 0
          0 0 0 0 0 0
          0 0 0 0 0 0
          0 0 0 0 0 0
          0 0 0 0 0 0
          <InformationKey name="L2_NORM_RANGE" location="vtkDataArray" length="2">
            <Value index="0">
              0
            </Value>
            <Value index="1">
              0
            </Value>
          </InformationKey>
        </DataArray>
        <DataArray type="Float64" Name="ALEveloc" NumberOfComponents="3" format="ascii" RangeMin="0" RangeMax="2.703679525261469">
          0 0 0 0.3619624407948692 0 0
          0 0.1344701162255691 0 0.442308104730516 0.07296495832661215 0
          0.698124333097288 0.23937731645294408 0 0.42458186291123484 0 0
          0 0.24449984454352838 0 0.9910652975217585 0.12633529507387767 0
          0.5010062244338039 -0.15303367620085997 0 0.6473918453001827 0.3282711250895389 0
          2.627148099831564 0.6387298622027047 0 0.3962866599315364 -0.2368017006135409 0
          0.1663742462816219 0 0 0 0.2510914734595801 0
          0.2351795975357313 -1.216511951234224 0 -0.029584960693427035 0.23384320298568095 0
          0.14841482398765285 -0.004133672252059604 0 -1.4037433379892537 -0.0036302074395922635 0
          0.04148034229392801 0.1632681585649376 0 -0.37585455975270726 0.13140876685699246 0
          -0.35742751754369306 0 0 0 0.11679825268777345 0
          -0.00483192956110582 -0.22259365616692434 0 0.17478004937681624 0.033950230182914334 0
          -1.8058464778733858 -0.003933005279249413 0 0.06749803555200408 0.019646674468701303 0
          0.42629877314478093 0.011582467963583658 0 0 0 0
          0 0 0 0.3299022048496395 0.018725198697997266 0
          0 -1.0048150307171815 0 -1.101898431119397 0 0
          0.12781329501962616 0.028011932732780895 0 0 0.11179268316201156 0
          -2.1752789108713015 0 0 0.6861559227973435 0.002127518006278439 0
          0.5607560189171826 0.005544923079903634 0 0.18377736234571507 0.01901231683292769 0
          0 0.0440451871501237 0 0.9293265843439051 0 0
          0.21569310206422246 0.008366267575250387 0 0 0.016260466064797675 0
          0.31840304679058845 0 0 0 0 0
          <InformationKey name="L2_NORM_RANGE" location="vtkDataArray" length="2">
            <Value index="0">
              0
            </Value>
            <Value index="1">
              2.7036795253
            </Value>
          </InformationKey>
        </DataArray>
        <DataArray type="Float64" Name="LEVEL" format="ascii" RangeMin="-0.5420786407818531" RangeMax="0.5527586839333136">
          -0.5420786407818531 -0.44637133058395934 -0.41295324292899177 -0.3177475819100447 -0.3144182366063603 -0.34372367444077956
          -0.4964249075959223 -0.16160878337479054 -0.22316708024254023 -0.3740394489740552 -0.2617277952357045 -0.014629629088683831
          -0.23856723774385935 -0.5041123034025249 -0.07868265260935237 -0.2272708803028893 0.021285018855575617 -0.055335036793151174
          0.14364324431008496 -0.34813174533047064 -0.24852423137940116 -0.4977814656074814 0.022171401739514613 0.25613246761913083
          -0.07044991243645923 0.2858046095539181 0.08696965230597602 -0.5024470143572082 -0.24904137618880187 0.22329173482222053
          -0.06427587450227605 -0.25943955715552247 0.4133145034240087 0.15573084044551086 -0.02835534620600832 0.14457822923090752
          0.2265680750202381 0.3638347237822148 0.5527586839333136 0.15099229945229692 0.39222442978493666 0.500314132681671
          0.3716047313271067 0.49955552821293664
        </DataArray>
      </PointData>
      <CellData>
        <DataArray type="UInt8" Name="vtkGhostType" format="ascii" RangeMin="0" RangeMax="0">
          0 0 0 0 0 0
          0 0 0 0 0 0
          0 0 0 0 0 0
          0 0 0 0 0 0
          0 0 0 0 0 0
          0 0 0 0 0 0
          0 0 0 0 0 0
          0 0 0 0 0 0
          0 0 0 0 0 0
          0 0 0 0 0 0
          0 0 0 0 0 0
        </DataArray>
        <DataArray type="Float64" Name="Residual_U" NumberOfComponents="3" format="ascii" RangeMin="1.551762979267338" RangeMax="15778.545222700106">
          156.01961008513697 218.1463958590658 0 27.705424196514446 251.2412175099666 0
          1491.6044949704933 1305.6553301887443 0 -207.52733404139352 -698.3058930043823 0
          -507.6172494000228 -389.39245609826105 0 -207.52733404139343 87.44141456829905 0
          -2376.7809970978014 1232.1061926160246 0 -3640.7755288844355 677.8785735129508 0
          -14704.93089177733 5720.795120684286 0 -74.0521215674512 777.0794099085174 0
          -74.05212156745117 431.5592373967427 0 -2327.6628674644517 1224.0018291508393 0
          -4555.220369691237 1096.652640233678 0 -5688.836052000906 1470.170848763209 0
          -12448.031751406166 5095.114761841639 0 -749.83866109972 235.9689268646656 0
          -68.25366286138342 119.47128061417027 0 -1437.1959463022895 73.17127462762808 0
          -507.6120940865612 -129.89309515269028 0 -1367.84828527469 390.41158017836125 0
          90.80853879520686 5.3380760560974325 0 -581.7697238588565 -65.93273210855546 0
          -32.134241643179024 0.05478563443136583 0 4.405674293074504 -1.0336048666066595 0
          42.97788021049161 8.351758662029892 0 3.466235236576537 -0.2663832137336772 0
          -0.18653962156678938 1.5405100822163948 0 47.4190227793473 6.343307469581188 0
          14.03577343217308 -3.7580478261454284 0 -2.649503594772301 7.604394088896551 0
          -2.1004696290407683 -5.001113067928087 0 43.75266118747221 20.49074532055069 0
          -530.4487499505831 -9.183184285116232 0 -340.2822672532453 -6.162002662787572 0
          -1.1979822738278842 -16.599708226975753 0 49.47353347903494 -17.69433644421332 0
          -0.6909890677766839 -1.816100044968601 0 20.11007724529093 -46.11574413007042 0
          -28.24030198045386 577.9497751866215 0 -132.8750351614686 55.00606114962637 0
          -0.320942725199466 387.3187881621889 0 184.81894664401398 -613.3313767197017 0
          -81.13861234873949 59.82923010663952 0 -401.54030550589994 98.94630859835499 0
          -108.18285661488774 155.41251572936503 0 203.66194936131467 -569.771829333109 0
          19.453857013062787 46.21499101832262 0 1438.7923321229919 -863.0702630985418 0
          -13.308422044663565 197.28161866525022 0 446.0049147238933 -492.6013986525559 0
          -782.7743037833691 2624.396660489002 0 -4589.417056607115 2490.783630405018 0
          722.5495591156575 -702.0846347128331 0 6733.560668641758 -3915.1739295497828 0
          437.3726210906981 -894.5141365411736 0 5783.384769533754 -3743.6486497489177 0
          331.7033892479808 -928.274934919097 0 5.096563912481713 -294.7933021180263 0
          -42.72531535392086 -224.951916768469 0 -76.06629629646443 -523.3740250763121 0
          -344.2678402778422 -363.8887250721731 0 8.043727021346744 -94.5759146507516 0
          -27.953025077578594 -94.57591465075151 0 104.52151436343256 527.2174091795364 0
          0.005044906240496075 -453.617581159922 0 0.011751029970970571 -141.2058893888045 0
          <InformationKey name="L2_NORM_RANGE" location="vtkDataArray" length="2">
            <Value index="0">
              1.5517629793
            </Value>
            <Value index="1">
              15778.545223
            </Value>
          </InformationKey>
        </DataArray>
        <DataArray type="Float64" Name="Residual_P" format="ascii" RangeMin="-9.643192956429274" RangeMax="10.136399040858056">
          -0.7955061774776419 -0.602841186068501 4.018182056684781 4.066944314686603 3.926933213007275 3.1405431449241763
          0.12099620554386004 10.136399040858056 0.9989770702531686 -2.9721003385620977 -3.0651373279774456 -1.5566665679398637
          -6.606653299710432 -3.812294901526081 -7.211433042053036 -4.9371705593017925 7.113616727187209 -5.741684420441078
          7.450045736931163 -6.905542196090563 0.2470644241573577 7.331407004029073 0.15525200002095807 -0.0652344260788068
          -0.13461682458342175 -0.0018750887199933774 -0.0178543778318766 -0.13752551422788814 -0.05404441251756241 -0.1235020486404953
          -0.0929401732270734 -0.328659545862926 1.0864078099450698 0.9281781665064639 0.28098239860473456 0.013955638088414376
          0.4058311399970721 0.35445947251061294 -3.0928328323777454 0.9901483256411738 -3.4790161575292187 -5.449233240758355
          -3.482356027333661 1.4092780357308896 0.686486138921885 -5.9052488439322985 -1.317243908686939 -9.643192956429274
          3.9874695480140563 -1.0055522339514826 0.05905003775387495 -8.21065323526081 2.5258578585766545 0.5656285811658615
          3.7185728385659136 7.420006427134618 3.295018267945301 2.293031058411544 3.1852928341606344 3.563102830510781
          -0.1181248658010765 1.971675816826056 2.5963248863663013 4.781548303104776 -3.775360029839786 3.557046006453562
        </DataArray>
      </CellData>
      <Points>
        <DataArray type="Float32" Name="Points" NumberOfComponents="3" format="ascii" RangeMin="0" RangeMax="1.4142135623730951">
          0 1 0 0.20000000298023224 1 0
          0 0.7799999713897705 0 0.17500990629196167 0.8324676752090454 0
          0.14628949761390686 0.6488438844680786 0 0.4000000059604645 1 0
          0 0.5849999785423279 0 0.30190789699554443 0.7062488794326782 0
          0.4018622040748596 0.8597133755683899 0 0.14242489635944366 0.45817598700523376 0
          0.29257911443710327 0.5176876783370972 0 0.49305540323257446 0.6697210073471069 0
          0.6000000238418579 1 0 0 0.38999998569488525 0
          0.6244276165962219 0.8092629909515381 0 0.2831222116947174 0.36456531286239624 0
          0.5280297994613647 0.49493080377578735 0 0.43886861205101013 0.3865315914154053 0
          0.659912109375 0.6070019006729126 0 0.14862869679927826 0.22861619293689728 0
          0.800000011920929 1 0 0 0.19499999284744263 0
          0.791735827922821 0.7191417813301086 0 0.6928746104240417 0.44221389293670654 0
          0.39574238657951355 0.1925719976425171 0 0.7972490191459656 0.5503162145614624 0
          0.5838605761528015 0.2565388083457947 0 0 0 0
          1 1 0 0.7224256992340088 0.28607040643692017 0
          1 0.7983365058898926 0 0.2191116064786911 0 0
          0.841722309589386 0.3865504860877991 0 1 0.5966730117797852 0
          0.4382232129573822 0 0 0.6465445160865784 0.11541219800710678 0
          0.7272865176200867 0.12795010209083557 0 0.8639553785324097 0.2512752115726471 0
          1 0.3951736092567444 0 0.6558331847190857 0 0
          0.8922978043556213 0.11509300023317337 0 1 0.19681400060653687 0
          0.8700000047683716 0 0 1 0 0
          <InformationKey name="L2_NORM_RANGE" location="vtkDataArray" length="2">
            <Value index="0">
              0
            </Value>
            <Value index="1">
              1.4142135624
            </Value>
          </InformationKey>
        </DataArray>
      </Points>
      <Cells>
        <DataArray type="Int64" Name="connectivity" format="ascii" RangeMin="0" RangeMax="43">
          42 36 35 35 36 26
          26 17 24 2 6 9
          4 2 9 9 6 13
          9 13 19 4 9 10
          10 9 15 19 13 21
          19 21 27 9 19 15
          15 19 24 15 24 17
          15 17 10 19 27 31
          39 24 34 34 24 31
          24 39 35 24 19 31
          42 35 39 35 26 24
          42 43 40 40 43 41
          42 40 36 40 41 37
          37 41 38 40 37 36
          36 37 29 29 37 32
          32 37 38 29 32 23
          36 29 26 26 29 23
          32 38 33 23 32 25
          25 32 33 23 25 18
          18 25 22 23 18 16
          22 25 33 18 22 14
          16 18 11 23 16 26
          14 22 20 18 14 11
          11 14 8 16 11 10
          8 14 12 11 8 7
          17 26 16 17 16 10
          7 8 3 11 7 10
          2 4 3 4 10 7
          4 7 3 3 8 1
          3 1 0 2 3 0
          28 20 22 12 5 8
          8 5 1 20 12 14
          33 30 22 22 30 28
        </DataArray>
        <DataArray type="Int64" Name="offsets" format="ascii" RangeMin="3" RangeMax="198">
          3 6 9 12 15 18
          21 24 27 30 33 36
          39 42 45 48 51 54
          57 60 63 66 69 72
          75 78 81 84 87 90
          93 96 99 102 105 108
          111 114 117 120 123 126
          129 132 135 138 141 144
          147 150 153 156 159 162
          165 168 171 174 177 180
          183 186 189 192 195 198
        </DataArray>
        <DataArray type="UInt8" Name="types" format="ascii" RangeMin="5" RangeMax="5">
          5 5 5 5 5 5
          5 5 5 5 5 5
          5 5 5 5 5 5
          5 5 5 5 5 5
          5 5 5 5 5 5
          5 5 5 5 5 5
          5 5 5 5 5 5
          5 5 5 5 5 5
          5 5 5 5 5 5
          5 5 5 5 5 5
          5 5 5 5 5 5
        </DataArray>
      </Cells>
    </Piece>
  </UnstructuredGrid>
</VTKFile>
