<?xml version="1.0"?>
<VTKFile type="UnstructuredGrid" version="0.1" byte_order="LittleEndian" header_type="UInt32" compressor="vtkZLibDataCompressor">
  <UnstructuredGrid>
    <Piece NumberOfPoints="57" NumberOfCells="73">
      <PointData>
        <DataArray type="Float64" Name="nsi_SBC" NumberOfComponents="3" format="ascii" RangeMin="0" RangeMax="1.107">
          0 0 0 0 0 0
          0 0 0 0 0 0
          0 0 0 0 0 0
          0 0 0 0 0 0
          0 0 0 0 0 0
          0 0 0 0 0 0
          0 0 0 0 0 0
          0 0 0 0 0 0
          0 0 0 0 0 0
          0 0 0 0 0 0
          0 0 0 0 0 0
          0 0 0 0 0 0
          0 0 0 0 0 0
          0 0 0 0 0 0
          0 0 0 0 0 0
          0 0 0 0 0 0
          0 0 0 0 0 0
          0 0 0 0 0 0
          0 0 0 0 0 0
          0 0 0 0 0 0
          0 0 0 0 0 0
          0 0 0 0 0 0
          0 0 0 0 0 0
          0 0 0 0 0 0
          0 0 0 0 0 0
          0 0 0 1.107 0 0
          0.27675 0 0 0 0 0
          0 0 0 0 0 0
          0 0 0
          <InformationKey name="L2_NORM_RANGE" location="vtkDataArray" length="2">
            <Value index="0">
              0
            </Value>
            <Value index="1">
              1.107
            </Value>
          </InformationKey>
        </DataArray>
        <DataArray type="Float64" Name="nsi_SFIXNO" NumberOfComponents="3" format="ascii" RangeMin="0" RangeMax="1.7320508075688772">
          0 0 0 -1 -1 -1
          0 0 0 -1 -1 -1
          0 0 0 0 0 0
          -1 -1 -1 -1 -1 -1
          0 0 0 0 0 0
          -1 -1 -1 0 0 0
          0 0 0 0 0 0
          -1 -1 -1 0 0 0
          0 0 0 -1 -1 -1
          0 0 0 0 0 0
          0 0 0 -1 -1 -1
          0 0 0 0 0 0
          -1 -1 -1 -1 -1 -1
          0 0 0 0 0 0
          -1 -1 -1 0 0 0
          0 0 0 -1 -1 -1
          0 0 0 0 0 0
          -1 -1 -1 0 0 0
          -1 -1 -1 0 0 0
          0 0 0 -1 -1 -1
          0 0 0 0 0 0
          -1 -1 -1 0 0 0
          0 0 0 -1 -1 -1
          0 0 0 0 0 0
          -1 -1 -1 0 0 0
          0 0 0 1 1 1
          1 1 1 1 1 1
          0 0 0 -1 -1 -1
          0 0 0
          <InformationKey name="L2_NORM_RANGE" location="vtkDataArray" length="2">
            <Value index="0">
              0
            </Value>
            <Value index="1">
              1.7320508076
            </Value>
          </InformationKey>
        </DataArray>
        <DataArray type="Float64" Name="nsi_UBC" NumberOfComponents="3" format="ascii" RangeMin="0" RangeMax="1.5">
          0 0 0 0 0 0
          0 0 0 0 0 0
          0 0 0 0 0 0
          0 0 0 0 0 0
          0 0 0 0 0 0
          0 0 0 0 0 0
          0 0 0 0 0 0
          0 0 0 0 0 0
          0 0 0 0 0 0
          0 0 0 0 0 0
          0 0 0 0 0 0
          0 0 0 0 0 0
          0 0 0 0 0 0
          0 0 0 0 0 0
          0 0 0 0 0 0
          0 0 0 0 0 0
          0 0 0 0 0 0
          0 0 0 0 0 0
          0 0 0 0 0 0
          0 0 0 0 0 0
          0 0 0 0 0 0
          0 0 0 0 0 0
          0 0 0 0 0 0
          0 0 0 0 0 0
          0 0 0 0 0 0
          0 0 0 0 0 0
          1.125 0 0 1.5 0 0
          0 0 0 0 0 0
          0 0 0
          <InformationKey name="L2_NORM_RANGE" location="vtkDataArray" length="2">
            <Value index="0">
              0
            </Value>
            <Value index="1">
              1.5
            </Value>
          </InformationKey>
        </DataArray>
        <DataArray type="Float64" Name="nsi_UFIXNO" NumberOfComponents="3" format="ascii" RangeMin="1" RangeMax="1.4142135623730951">
          1 1 0 -1 -1 0
          0 1 0 -1 -1 0
          1 1 0 0 1 0
          -1 -1 0 -1 -1 0
          0 1 0 1 1 0
          -1 -1 0 1 1 0
          1 1 0 1 1 0
          -1 -1 0 1 1 0
          1 1 0 -1 -1 0
          1 1 0 1 1 0
          1 1 0 -1 -1 0
          1 1 0 1 1 0
          -1 -1 0 -1 -1 0
          0 1 0 0 1 0
          -1 -1 0 1 1 0
          0 1 0 -1 -1 0
          0 1 0 1 1 0
          -1 -1 0 0 1 0
          -1 -1 0 1 1 0
          0 1 0 -1 -1 0
          1 1 0 0 1 0
          -1 -1 0 1 1 0
          0 1 0 -1 -1 0
          1 1 0 0 1 0
          -1 -1 0 1 1 0
          0 1 0 1 1 0
          1 1 0 1 1 0
          0 1 0 -1 -1 0
          1 1 0
          <InformationKey name="L2_NORM_RANGE" location="vtkDataArray" length="2">
            <Value index="0">
              1
            </Value>
            <Value index="1">
              1.4142135624
            </Value>
          </InformationKey>
        </DataArray>
        <DataArray type="Float64" Name="Velocity" NumberOfComponents="3" format="ascii" RangeMin="0" RangeMax="2.648140207272297">
          0 0 0 1.4308102718587992 -0.06497716007851445 0
          1.4223532270919539 0 0 1.3050169934129114 -0.2294236072503175 0
          0 0 0 1.263845779142373 0 0
          1.2662370906999243 -0.36221663770711654 0 1.16819894886707 -0.6824801947967064 0
          0.595873461333811 0 0 0 0 0
          1.8467838856857048 -0.9535877660263248 0 0 0 0
          0 0 0 0 0 0
          2.442954978932177 -0.4365756055698844 0 0 0 0
          0 0 0 2.6326555826212457 0.2859565363221348 0
          0 0 0 0 0 0
          0 0 0 2.147710594723042 0.7805566726944643 0
          0 0 0 0 0 0
          1.6142452656587518 0.4368601035107224 0 0.9994655594056939 0.582198901290897 0
          0.7143336637637924 0 0 1.2022180873952018 0 0
          1.3989422605505741 0.36213695307243526 0 0 0 0
          1.4906979467596033 0 0 1.2192527750871225 0.018238368477493827 0
          1.5015903406642315 0 0 0 0 0
          1.3135512209080482 0.003929213945965301 0 1.4956472974556996 0 0
          1.2393783875025142 -0.007766441518278889 0 0 0 0
          1.4819169507474026 0 0 1.2323722424167831 -0.0024779308565815697 0
          0 0 0 1.4752070011755054 0 0
          1.2290898029211483 0.0003010374692123583 0 0 0 0
          1.4723844379144295 0 0 1.2165881187700243 0.004806992805650624 0
          0 0 0 1.463820597646256 0 0
          1.1821541874237091 -0.0216438592184782 0 0 0 0
          1.4589911719802344 0 0 0 0 0
          1.1250000000262674 0 0 1.5000000000350246 0 0
          1.512483960082603 0 0 1.2220335175196746 0.009287655768596128 0
          0 0 0
          <InformationKey name="L2_NORM_RANGE" location="vtkDataArray" length="2">
            <Value index="0">
              0
            </Value>
            <Value index="1">
              2.6481402073
            </Value>
          </InformationKey>
        </DataArray>
        <DataArray type="Float64" Name="Pressure" format="ascii" RangeMin="11.741227613768958" RangeMax="62.86170670058822">
          12.493271818891245 12.510646496930471 12.454636349835505 13.2568484837456 13.916338565527056 12.673723029449516
          15.045856524624723 14.276643687398971 12.301159876956834 19.001110141908853 18.227609917173474 12.757874230686296
          15.88978206268345 23.4680635622362 27.739498888247343 31.97398095817666 36.29416032074171 41.637327917141164
          48.89460689412615 47.8392174797075 55.86391480268783 53.24192185122555 58.579232935951815 55.76493794089201
          56.104244495944656 57.44111651277849 58.314652174315945 57.80151728524316 57.33052338397433 57.70299444543211
          57.75880089847018 58.06218243782852 58.3276018562298 58.55859831626533 58.6053631541485 58.87209015723717
          59.22080530655229 59.30059493985078 59.52175717988133 59.88089557148133 60.04930073742386 60.22954148657725
          60.594441696373906 60.81589383455074 60.97581998756914 61.3500717803894 61.579329993164684 61.773747439128684
          62.08007550718048 62.2285697719969 62.43130130269654 62.64430181170347 62.80314230367576 62.86170670058822
          12.272329986261466 12.037289989192196 11.741227613768958
        </DataArray>
        <DataArray type="Float64" Name="Sigma" NumberOfComponents="6" format="ascii" RangeMin="0" RangeMax="3.796128965925876">
          0.12726865246293073 0.10456935801927969 0 -0.579487445764415 0 0
          -0.06664605848993865 -0.09479998512773591 0 -0.11816530919550594 0 0
          0.32128672246156675 -0.20858665296841217 0 0.047636288698166274 0 0
          -0.06297108484609737 0.14267730868744444 0 -0.09569108509255297 0 0
          0.036242467310376725 0.2024315941082655 0 -0.772350112136333 0 0
          0.5563173963345491 -0.6861486088034496 0 0.34768598304901754 0 0
          -0.107563026524371 0.6438261954839763 0 -0.36397798830678507 0 0
          0.6167645199339766 -0.3513055581239044 0 0.49241454231468973 0 0
          1.7062844558499712 -0.27577612366525006 0 -0.13647695930830983 0 0
          0.16544315855604452 0.9897844389590293 0 -1.67858897276979 0 0
          0.41357722595503077 -0.01074005771295461 0 0.1881271656091199 0 0
          0.7557511210487533 -0.5806429232027011 0 0.42251673883370033 0 0
          2.8433493285549005 -0.8780410302077213 0 -0.11954018947889916 0 0
          3.4693720970904174 -1.044276394874144 0 1.1329338855293192 0 0
          0.7335307308335981 0.3975369764495085 0 -0.43002581531798034 0 0
          1.4999592530944295 0.3113512629770998 0 -2.4653061230419104 0 0
          1.772838557339007 -0.18292726182678187 0 2.46548239091543 0 0
          0.8230896570691204 -0.18337741703333688 0 -0.1394607561921446 0 0
          -0.5107087660212173 0.6746559804606811 0 1.8657815717829096 0 0
          1.458130069506236 -0.6402725108221041 0 -1.746258140024104 0 0
          -1.1328540563327882 0.856667190471283 0 0.740635775387688 0 0
          0.4396269866264735 -0.22893969221171595 0 0.22088696202327007 0 0
          -0.9948006440269053 0.8726553417142124 0 0.019692536674347297 0 0
          0.600119429877255 -0.5409032578435058 0 -0.9276824069986978 0 0
          0.5108006982141866 -0.24290325159326276 0 -0.029831043657911616 0 0
          -0.37383307474336824 0.421297880022653 0 0.444727732777761 0 0
          -0.7625213289849109 0.9818293865810901 0 0.22238237525235016 0 0
          -0.4191364438175249 0.7450551254029047 0 0.12074821212400277 0 0
          0.11019245235033281 0.08235203858020235 0 0.04325129724863652 0 0
          0.2985396993200329 -0.2580120572708289 0 -0.6361498708492563 0 0
          -0.07946412969583871 0.2117062193598418 0 0.02574838918537048 0 0
          0.05988866143891158 -0.051076557338491924 0 -0.23673654666467314 0 0
          -0.03592119733419885 0.0026372941195340616 0 -0.06413144343420107 0 0
          0.13615256926735597 0.028695101146336555 0 -0.5503586461274579 0 0
          0.05768664003724666 0.02407004054894024 0 -0.251555878610199 0 0
          0.01461117612500118 -0.005689733288183341 0 -0.03464910151496081 0 0
          0.046226654929260036 -0.012706944500284756 0 -0.2915845662061489 0 0
          0.12345820129233687 0.0048616511278964936 0 -0.5207030741435359 0 0
          -0.0011026396944391337 -0.0045323980133460395 0 -0.046439126139885545 0 0
          0.05212348744532136 0.003434302513261045 0 -0.2923218303592101 0 0
          0.11795516703561049 -0.0005686545750949179 0 -0.5225216003074129 0 0
          -0.009310724572886286 0.0008743018757861876 0 -0.04473267677085335 0 0
          0.059046037063748 -0.0023704268308222254 0 -0.29290902085093995 0 0
          0.11868730584230214 0.010618952646535007 0 -0.5101669154555233 0 0
          -0.01357750923158818 -0.005859303361055446 0 -0.04947890512818631 0 0
          0.07738377777521954 0.0027270446436578055 0 -0.27865255456971383 0 0
          0.06870286792293179 -0.06795850022978112 0 -0.5464838781338299 0 0
          -0.02041389394169535 0.06074839252745434 0 -0.07814262577948705 0 0
          0.06056717360491959 0.015800596328663374 0 -0.3516804176449395 0 0
          0.03022000263053215 0.03616247968674102 0 -0.5968833113375038 0 0
          -0.19182372341597365 -0.06979754434355279 0 -0.16057086076209925 0 0
          1.1070000000272806 0 0 0.600000000017753 0 0
          0.2767499999931644 -9.103828801926284e-12 0 0.3000000000031866 0 0
          0 0 0 0 0 0
          0.004404902750998474 -0.09057717646854258 0 0.027666471132836712 0 0
          0.012801687832686426 0.02159545405433505 0 -0.29325518669448547 0 0
          0.13223263194661605 -0.02420559944116274 0 -0.5313444570333448 0 0
          <InformationKey name="L2_NORM_RANGE" location="vtkDataArray" length="2">
            <Value index="0">
              0
            </Value>
            <Value index="1">
              3.7961289659
            </Value>
          </InformationKey>
        </DataArray>
      </PointData>
      <CellData>
        <DataArray type="UInt8" Name="vtkGhostType" format="ascii" RangeMin="0" RangeMax="1">
          1 1 1 1 0 0
          0 0 0 0 0 0
          0 0 0 0 0 0
          0 0 0 0 0 0
          0 0 0 0 0 0
          0 0 0 0 0 0
          0 0 0 0 0 0
          0 0 0 0 0 0
          0 0 0 0 0 0
          0 0 0 0 0 0
          0 0 0 0 0 0
          0 0 0 0 0 0
          0
        </DataArray>
      </CellData>
      <Points>
        <DataArray type="Float32" Name="Points" NumberOfComponents="3" format="ascii" RangeMin="0.999999978553326" RangeMax="10.198039027185569">
          3 2 0 3.0495529174804688 0.6333962678909302 0
          2.730867624282837 0 0 2.3038833141326904 0.9335545897483826 0
          2.0799999237060547 2 0 2.12471079826355 0 0
          1.6252013444900513 1.313368320465088 0 1.5168508291244507 0.5881174206733704 0
          1.5482395887374878 0 0 1.159999966621399 2 0
          1.0467556715011597 1.0467555522918701 0 1 0 0
          0.866025447845459 0.4999999701976776 0 0.5000000596046448 0.8660253882408142 0
          0.42726948857307434 1.3904459476470947 0 0.23999999463558197 2 0
          9.934765898833575e-8 1 0 -0.2575780153274536 1.4120553731918335 0
          -0.49999988079071045 0.866025447845459 0 -0.6800000071525574 2 0
          -0.8660253286361694 0.5000001192092896 0 -1.0327377319335938 1.2158606052398682 0
          -1 0 0 -1.600000023841858 2 0
          -1.600000023841858 1.153458595275879 0 -1.600000023841858 0.5616453886032104 0
          -1.600000023841858 0 0 -2.147733688354492 0 0
          -2.310720443725586 0.7330610156059265 0 -2.6500000953674316 2 0
          -2.761406898498535 0 0 -3.117532968521118 0.9164289832115173 0
          -3.4489564895629883 0 0 -3.700000047683716 2 0
          -3.8273112773895264 0.7548180818557739 0 -4.219272613525391 0 0
          -4.650794506072998 0.8576615452766418 0 -4.75 2 0
          -5.0823163986206055 0 0 -5.565780162811279 0.8660253882408142 0
          -5.800000190734863 2 0 -6.049243927001953 0 0
          -6.543088436126709 0.8660253882408142 0 -6.849999904632568 2 0
          -7.036932945251465 0 0 -7.530777454376221 0.8660253882408142 0
          -7.900000095367432 2 0 -8.024621963500977 0 0
          -8.518465995788574 0.8660253882408142 0 -8.949999809265137 2 0
          -9.012310981750488 0 0 -10 2 0
          -10 1 0 -10 0 0
          3.3682384490966797 0 0 3.641167402267456 0.8889509439468384 0
          4 2 0
          <InformationKey name="L2_NORM_RANGE" location="vtkDataArray" length="2">
            <Value index="0">
              0.99999997855
            </Value>
            <Value index="1">
              10.198039027
            </Value>
          </InformationKey>
        </DataArray>
      </Points>
      <Cells>
        <DataArray type="Int64" Name="connectivity" format="ascii" RangeMin="0" RangeMax="56">
          2 54 1 1 54 55
          1 55 0 56 0 55
          27 26 25 32 30 31
          30 27 28 25 24 28
          28 27 25 30 28 31
          31 28 29 35 32 34
          32 31 34 34 31 33
          38 35 36 24 23 29
          35 34 36 36 34 33
          41 38 39 38 36 39
          39 36 37 53 50 52
          50 47 48 47 44 45
          44 41 42 41 39 42
          42 39 40 48 47 45
          48 45 46 45 44 42
          45 42 43 50 48 52
          51 52 49 28 24 29
          33 37 36 40 43 42
          46 49 48 29 33 31
          37 40 39 43 46 45
          48 49 52 22 20 25
          18 16 17 13 12 10
          20 18 21 16 13 14
          12 11 8 25 26 22
          17 16 14 10 12 7
          21 18 17 14 13 10
          20 21 25 8 5 7
          24 25 21 24 21 23
          5 2 3 8 7 12
          10 7 6 3 2 1
          3 1 0 5 3 7
          6 7 3 10 6 9
          17 14 15 15 14 9
          21 17 19 19 17 15
          14 10 9 9 6 4
          4 6 3 0 4 3
          19 23 21
        </DataArray>
        <DataArray type="Int64" Name="offsets" format="ascii" RangeMin="3" RangeMax="219">
          3 6 9 12 15 18
          21 24 27 30 33 36
          39 42 45 48 51 54
          57 60 63 66 69 72
          75 78 81 84 87 90
          93 96 99 102 105 108
          111 114 117 120 123 126
          129 132 135 138 141 144
          147 150 153 156 159 162
          165 168 171 174 177 180
          183 186 189 192 195 198
          201 204 207 210 213 216
          219
        </DataArray>
        <DataArray type="UInt8" Name="types" format="ascii" RangeMin="5" RangeMax="5">
          5 5 5 5 5 5
          5 5 5 5 5 5
          5 5 5 5 5 5
          5 5 5 5 5 5
          5 5 5 5 5 5
          5 5 5 5 5 5
          5 5 5 5 5 5
          5 5 5 5 5 5
          5 5 5 5 5 5
          5 5 5 5 5 5
          5 5 5 5 5 5
          5 5 5 5 5 5
          5
        </DataArray>
      </Cells>
    </Piece>
  </UnstructuredGrid>
</VTKFile>
