<?xml version="1.0"?>
<VTKFile type="UnstructuredGrid" version="0.1" byte_order="LittleEndian" header_type="UInt32" compressor="vtkZLibDataCompressor">
  <UnstructuredGrid>
    <Piece NumberOfPoints="57" NumberOfCells="73">
      <PointData>
        <DataArray type="Float64" Name="nsi_SBC" NumberOfComponents="3" format="ascii" RangeMin="0" RangeMax="1.107">
          0 0 0 0 0 0
          0 0 0 0 0 0
          0 0 0 0 0 0
          0 0 0 0 0 0
          0 0 0 0 0 0
          0 0 0 0 0 0
          0 0 0 0 0 0
          0 0 0 0 0 0
          0 0 0 0 0 0
          0 0 0 0 0 0
          0 0 0 0 0 0
          0 0 0 0 0 0
          0 0 0 0 0 0
          0 0 0 0 0 0
          0 0 0 0 0 0
          0 0 0 0 0 0
          0 0 0 0 0 0
          0 0 0 0 0 0
          0 0 0 0 0 0
          0 0 0 0 0 0
          0 0 0 0 0 0
          0 0 0 0 0 0
          0 0 0 0 0 0
          0 0 0 0 0 0
          0 0 0 0 0 0
          0 0 0 1.107 0 0
          0.27675 0 0 0 0 0
          0 0 0 0 0 0
          0 0 0
          <InformationKey name="L2_NORM_RANGE" location="vtkDataArray" length="2">
            <Value index="0">
              0
            </Value>
            <Value index="1">
              1.107
            </Value>
          </InformationKey>
        </DataArray>
        <DataArray type="Float64" Name="nsi_SFIXNO" NumberOfComponents="3" format="ascii" RangeMin="0" RangeMax="1.7320508075688772">
          0 0 0 -1 -1 -1
          0 0 0 -1 -1 -1
          0 0 0 0 0 0
          -1 -1 -1 -1 -1 -1
          0 0 0 0 0 0
          -1 -1 -1 0 0 0
          0 0 0 0 0 0
          -1 -1 -1 0 0 0
          0 0 0 -1 -1 -1
          0 0 0 0 0 0
          0 0 0 -1 -1 -1
          0 0 0 0 0 0
          -1 -1 -1 -1 -1 -1
          0 0 0 0 0 0
          -1 -1 -1 0 0 0
          0 0 0 -1 -1 -1
          0 0 0 0 0 0
          -1 -1 -1 0 0 0
          -1 -1 -1 0 0 0
          0 0 0 -1 -1 -1
          0 0 0 0 0 0
          -1 -1 -1 0 0 0
          0 0 0 -1 -1 -1
          0 0 0 0 0 0
          -1 -1 -1 0 0 0
          0 0 0 1 1 1
          1 1 1 1 1 1
          0 0 0 -1 -1 -1
          0 0 0
          <InformationKey name="L2_NORM_RANGE" location="vtkDataArray" length="2">
            <Value index="0">
              0
            </Value>
            <Value index="1">
              1.7320508076
            </Value>
          </InformationKey>
        </DataArray>
        <DataArray type="Float64" Name="nsi_UBC" NumberOfComponents="3" format="ascii" RangeMin="0" RangeMax="1.5">
          0 0 0 0 0 0
          0 0 0 0 0 0
          0 0 0 0 0 0
          0 0 0 0 0 0
          0 0 0 0 0 0
          0 0 0 0 0 0
          0 0 0 0 0 0
          0 0 0 0 0 0
          0 0 0 0 0 0
          0 0 0 0 0 0
          0 0 0 0 0 0
          0 0 0 0 0 0
          0 0 0 0 0 0
          0 0 0 0 0 0
          0 0 0 0 0 0
          0 0 0 0 0 0
          0 0 0 0 0 0
          0 0 0 0 0 0
          0 0 0 0 0 0
          0 0 0 0 0 0
          0 0 0 0 0 0
          0 0 0 0 0 0
          0 0 0 0 0 0
          0 0 0 0 0 0
          0 0 0 0 0 0
          0 0 0 0 0 0
          1.125 0 0 1.5 0 0
          0 0 0 0 0 0
          0 0 0
          <InformationKey name="L2_NORM_RANGE" location="vtkDataArray" length="2">
            <Value index="0">
              0
            </Value>
            <Value index="1">
              1.5
            </Value>
          </InformationKey>
        </DataArray>
        <DataArray type="Float64" Name="nsi_UFIXNO" NumberOfComponents="3" format="ascii" RangeMin="1" RangeMax="1.4142135623730951">
          1 1 0 -1 -1 0
          0 1 0 -1 -1 0
          1 1 0 0 1 0
          -1 -1 0 -1 -1 0
          0 1 0 1 1 0
          -1 -1 0 1 1 0
          1 1 0 1 1 0
          -1 -1 0 1 1 0
          1 1 0 -1 -1 0
          1 1 0 1 1 0
          1 1 0 -1 -1 0
          1 1 0 1 1 0
          -1 -1 0 -1 -1 0
          0 1 0 0 1 0
          -1 -1 0 1 1 0
          0 1 0 -1 -1 0
          0 1 0 1 1 0
          -1 -1 0 0 1 0
          -1 -1 0 1 1 0
          0 1 0 -1 -1 0
          1 1 0 0 1 0
          -1 -1 0 1 1 0
          0 1 0 -1 -1 0
          1 1 0 0 1 0
          -1 -1 0 1 1 0
          0 1 0 1 1 0
          1 1 0 1 1 0
          0 1 0 -1 -1 0
          1 1 0
          <InformationKey name="L2_NORM_RANGE" location="vtkDataArray" length="2">
            <Value index="0">
              1
            </Value>
            <Value index="1">
              1.4142135624
            </Value>
          </InformationKey>
        </DataArray>
      </PointData>
      <CellData>
        <DataArray type="UInt8" Name="vtkGhostType" format="ascii" RangeMin="0" RangeMax="1">
          1 1 1 1 0 0
          0 0 0 0 0 0
          0 0 0 0 0 0
          0 0 0 0 0 0
          0 0 0 0 0 0
          0 0 0 0 0 0
          0 0 0 0 0 0
          0 0 0 0 0 0
          0 0 0 0 0 0
          0 0 0 0 0 0
          0 0 0 0 0 0
          0 0 0 0 0 0
          0
        </DataArray>
      </CellData>
      <Points>
        <DataArray type="Float32" Name="Points" NumberOfComponents="3" format="ascii" RangeMin="0.999999978553326" RangeMax="10.198039027185569">
          3 2 0 3.0495529174804688 0.6333962678909302 0
          2.730867624282837 0 0 2.3038833141326904 0.9335545897483826 0
          2.0799999237060547 2 0 2.12471079826355 0 0
          1.6252013444900513 1.313368320465088 0 1.5168508291244507 0.5881174206733704 0
          1.5482395887374878 0 0 1.159999966621399 2 0
          1.0467556715011597 1.0467555522918701 0 1 0 0
          0.866025447845459 0.4999999701976776 0 0.5000000596046448 0.8660253882408142 0
          0.42726948857307434 1.3904459476470947 0 0.23999999463558197 2 0
          9.934765898833575e-8 1 0 -0.2575780153274536 1.4120553731918335 0
          -0.49999988079071045 0.866025447845459 0 -0.6800000071525574 2 0
          -0.8660253286361694 0.5000001192092896 0 -1.0327377319335938 1.2158606052398682 0
          -1 0 0 -1.600000023841858 2 0
          -1.600000023841858 1.153458595275879 0 -1.600000023841858 0.5616453886032104 0
          -1.600000023841858 0 0 -2.147733688354492 0 0
          -2.310720443725586 0.7330610156059265 0 -2.6500000953674316 2 0
          -2.761406898498535 0 0 -3.117532968521118 0.9164289832115173 0
          -3.4489564895629883 0 0 -3.700000047683716 2 0
          -3.8273112773895264 0.7548180818557739 0 -4.219272613525391 0 0
          -4.650794506072998 0.8576615452766418 0 -4.75 2 0
          -5.0823163986206055 0 0 -5.565780162811279 0.8660253882408142 0
          -5.800000190734863 2 0 -6.049243927001953 0 0
          -6.543088436126709 0.8660253882408142 0 -6.849999904632568 2 0
          -7.036932945251465 0 0 -7.530777454376221 0.8660253882408142 0
          -7.900000095367432 2 0 -8.024621963500977 0 0
          -8.518465995788574 0.8660253882408142 0 -8.949999809265137 2 0
          -9.012310981750488 0 0 -10 2 0
          -10 1 0 -10 0 0
          3.3682384490966797 0 0 3.641167402267456 0.8889509439468384 0
          4 2 0
          <InformationKey name="L2_NORM_RANGE" location="vtkDataArray" length="2">
            <Value index="0">
              0.99999997855
            </Value>
            <Value index="1">
              10.198039027
            </Value>
          </InformationKey>
        </DataArray>
      </Points>
      <Cells>
        <DataArray type="Int64" Name="connectivity" format="ascii" RangeMin="0" RangeMax="56">
          2 54 1 1 54 55
          1 55 0 56 0 55
          27 26 25 32 30 31
          30 27 28 25 24 28
          28 27 25 30 28 31
          31 28 29 35 32 34
          32 31 34 34 31 33
          38 35 36 24 23 29
          35 34 36 36 34 33
          41 38 39 38 36 39
          39 36 37 53 50 52
          50 47 48 47 44 45
          44 41 42 41 39 42
          42 39 40 48 47 45
          48 45 46 45 44 42
          45 42 43 50 48 52
          51 52 49 28 24 29
          33 37 36 40 43 42
          46 49 48 29 33 31
          37 40 39 43 46 45
          48 49 52 22 20 25
          18 16 17 13 12 10
          20 18 21 16 13 14
          12 11 8 25 26 22
          17 16 14 10 12 7
          21 18 17 14 13 10
          20 21 25 8 5 7
          24 25 21 24 21 23
          5 2 3 8 7 12
          10 7 6 3 2 1
          3 1 0 5 3 7
          6 7 3 10 6 9
          17 14 15 15 14 9
          21 17 19 19 17 15
          14 10 9 9 6 4
          4 6 3 0 4 3
          19 23 21
        </DataArray>
        <DataArray type="Int64" Name="offsets" format="ascii" RangeMin="3" RangeMax="219">
          3 6 9 12 15 18
          21 24 27 30 33 36
          39 42 45 48 51 54
          57 60 63 66 69 72
          75 78 81 84 87 90
          93 96 99 102 105 108
          111 114 117 120 123 126
          129 132 135 138 141 144
          147 150 153 156 159 162
          165 168 171 174 177 180
          183 186 189 192 195 198
          201 204 207 210 213 216
          219
        </DataArray>
        <DataArray type="UInt8" Name="types" format="ascii" RangeMin="5" RangeMax="5">
          5 5 5 5 5 5
          5 5 5 5 5 5
          5 5 5 5 5 5
          5 5 5 5 5 5
          5 5 5 5 5 5
          5 5 5 5 5 5
          5 5 5 5 5 5
          5 5 5 5 5 5
          5 5 5 5 5 5
          5 5 5 5 5 5
          5 5 5 5 5 5
          5 5 5 5 5 5
          5
        </DataArray>
      </Cells>
    </Piece>
  </UnstructuredGrid>
</VTKFile>
