<?xml version="1.0"?>
<VTKFile type="UnstructuredGrid" version="0.1" byte_order="LittleEndian" header_type="UInt32" compressor="vtkZLibDataCompressor">
  <UnstructuredGrid>
    <Piece NumberOfPoints="44" NumberOfCells="60">
      <PointData>
      </PointData>
      <CellData>
        <DataArray type="UInt8" Name="vtkGhostType" format="ascii" RangeMin="0" RangeMax="0">
          0 0 0 0 0 0
          0 0 0 0 0 0
          0 0 0 0 0 0
          0 0 0 0 0 0
          0 0 0 0 0 0
          0 0 0 0 0 0
          0 0 0 0 0 0
          0 0 0 0 0 0
          0 0 0 0 0 0
          0 0 0 0 0 0
        </DataArray>
        <DataArray type="Float64" Name="MOSGS" NumberOfComponents="3" format="ascii" RangeMin="0" RangeMax="0.5720769148478021">
          6.9382358078971e-310 6.9382358078971e-310 4.6467904162849e-310 0.025313719653417402 -0.0031313741511888593 0
          -0.036662717415844995 0.0066479711949852084 0 0.006510151046041777 -0.004917475301523687 0
          -0.0708142261368945 0.023668986282740924 0 -0.006845460537180506 -0.003778609802891405 0
          -0.06555406877980113 0.02403138522602882 0 -0.012823815771692025 -0.0020350733651548266 0
          -0.05598018764719426 0.018344958697301135 0 -0.008888142615466468 -0.0011134066592573266 0
          -0.044463950506301836 0.01344622168102445 0 -0.009185178587134937 -0.0010984393527635992 0
          -0.03319193986920542 0.011078472428278781 0 -0.009938186997001986 -0.001024951518543947 0
          -0.03249512628699332 0.011000676158529156 0 -0.009609078208998457 -0.0008169221568993454 0
          -0.030728778581694007 0.010502864043175726 0 0.009194686936919362 -0.0017083860814335362 0
          -0.03271769955302555 0.008567576774874994 0 -0.0334988048762774 0.01345842551732526 0
          -0.08574760284464182 0.026094791155030366 0 0.05712782938701102 -0.020457655799206498 0
          -0.2522746573721521 0.08741889478996615 0 0.051153156256840915 -0.014458978557460292 0
          -0.09957325200078633 0.03931578722670797 0 0.04269258970984606 -0.012714903005864562 0
          -0.017817589863890322 0.00820467034764752 0 0.03626619590268427 -0.01359608626612551 0
          0.013242196698560018 -0.006193711197511106 0 0.03957854179351095 -0.015114428053251888 0
          0.020644563537741238 -0.010963184244139395 0 0.04469993400592281 -0.016246841431603296 0
          0.02637205564835915 -0.012991549076007336 0 0.045619699446772834 -0.01640798251117742 0
          0.03131357785843605 -0.014251011147348724 0 0.04865526994580446 -0.017331339296200683 0
          0.029846305150256863 -0.014046037312902316 0 0.053799090328732736 -0.02109831656468333 0
          0.023784776163566324 -0.0123442063781398 0 0.009611881728249635 -0.0062106577375449735 0
          -0.016095002483141278 0.00364647576905182 0 0.04173449619422356 0.0027692435407596153 0
          -0.47727517041052847 0.3154051493101855 0 0.010347577142544105 0.006123070853693204 0
          0.24096288561665813 -0.09085270785387314 0 -0.0005654625790385941 0.006717551653438004 0
          0.15892571234484962 -0.061250851919575876 0 -0.004607439105151885 0.0044503701214481835 0
          0.1047489959003285 -0.03961273510701835 0 -0.0010996125702333603 0.0023724407450009984 0
          0.07331966967695759 -0.02698203502653936 0 0.006830137972019437 0.0007663816110756519 0
          0.05611435012832261 -0.021176812140492607 0 0.010218946190832232 0.0000860526824984359 0
          0.05056538017213257 -0.019566674153685716 0 0.007893160477025797 0.0005722367106999748 0
          0.050475454937895514 -0.01954163282671588 0 -0.003320747266632479 0.004068635227155691 0
          0.050015997489514435 -0.019372671500608615 0 -0.08154484033282089 0.03493330471025384 0
          0.0474168509328434 -0.018292882285946412 0
          <InformationKey name="L2_NORM_RANGE" location="vtkDataArray" length="2">
            <Value index="0">
              0
            </Value>
            <Value index="1">
              0.57207691485
            </Value>
          </InformationKey>
        </DataArray>
      </CellData>
      <Points>
        <DataArray type="Float32" Name="Points" NumberOfComponents="3" format="ascii" RangeMin="0" RangeMax="4.2201894765504395">
          4.099999904632568 1 0 4.099999904632568 0.6666666865348816 0
          3.690000057220459 1 0 3.690000057220459 0.6666666865348816 0
          4.099999904632568 0.3333333134651184 0 3.690000057220459 0.3333333134651184 0
          3.2799999713897705 1 0 3.2799999713897705 0.6666666865348816 0
          4.099999904632568 0 0 3.2799999713897705 0.3333333134651184 0
          3.690000057220459 0 0 2.869999885559082 1 0
          2.869999885559082 0.6666666865348816 0 3.2799999713897705 0 0
          2.869999885559082 0.3333333134651184 0 2.869999885559082 0 0
          2.4600000381469727 1 0 2.4600000381469727 0.6666666865348816 0
          2.4600000381469727 0.3333333134651184 0 2.4600000381469727 0 0
          2.049999952316284 1 0 2.049999952316284 0.6666666865348816 0
          2.049999952316284 0.3333333134651184 0 2.049999952316284 0 0
          1.6399999856948853 1 0 1.6399999856948853 0.6666666865348816 0
          1.6399999856948853 0.3333333134651184 0 1.6399999856948853 0 0
          1.2300000190734863 1 0 1.2300000190734863 0.6666666865348816 0
          1.2300000190734863 0.3333333134651184 0 1.2300000190734863 0 0
          0.8199999928474426 1 0 0.8199999928474426 0.6666666865348816 0
          0.8199999928474426 0.3333333134651184 0 0.8199999928474426 0 0
          0.4099999964237213 1 0 0.4099999964237213 0.6666666865348816 0
          0.4099999964237213 0.3333333134651184 0 0.4099999964237213 0 0
          0 1 0 0 0.6666666865348816 0
          0 0.3333333134651184 0 0 0 0
          <InformationKey name="L2_NORM_RANGE" location="vtkDataArray" length="2">
            <Value index="0">
              0
            </Value>
            <Value index="1">
              4.2201894766
            </Value>
          </InformationKey>
        </DataArray>
      </Points>
      <Cells>
        <DataArray type="Int64" Name="connectivity" format="ascii" RangeMin="0" RangeMax="43">
          39 38 43 38 42 43
          35 34 39 34 38 39
          31 30 35 30 34 35
          27 26 31 26 30 31
          23 22 27 22 26 27
          19 18 23 18 22 23
          15 14 19 14 18 19
          13 9 15 9 14 15
          10 5 13 5 9 13
          8 4 10 4 5 10
          38 37 42 37 41 42
          34 33 38 33 37 38
          30 29 34 29 33 34
          26 25 30 25 29 30
          22 21 26 21 25 26
          18 17 22 17 21 22
          14 12 18 12 17 18
          9 7 14 7 12 14
          5 3 9 3 7 9
          4 1 5 1 3 5
          37 36 41 36 40 41
          33 32 37 32 36 37
          29 28 33 28 32 33
          25 24 29 24 28 29
          21 20 25 20 24 25
          17 16 21 16 20 21
          12 11 17 11 16 17
          7 6 12 6 11 12
          3 2 7 2 6 7
          1 0 3 0 2 3
        </DataArray>
        <DataArray type="Int64" Name="offsets" format="ascii" RangeMin="3" RangeMax="180">
          3 6 9 12 15 18
          21 24 27 30 33 36
          39 42 45 48 51 54
          57 60 63 66 69 72
          75 78 81 84 87 90
          93 96 99 102 105 108
          111 114 117 120 123 126
          129 132 135 138 141 144
          147 150 153 156 159 162
          165 168 171 174 177 180
        </DataArray>
        <DataArray type="UInt8" Name="types" format="ascii" RangeMin="5" RangeMax="5">
          5 5 5 5 5 5
          5 5 5 5 5 5
          5 5 5 5 5 5
          5 5 5 5 5 5
          5 5 5 5 5 5
          5 5 5 5 5 5
          5 5 5 5 5 5
          5 5 5 5 5 5
          5 5 5 5 5 5
          5 5 5 5 5 5
        </DataArray>
      </Cells>
    </Piece>
  </UnstructuredGrid>
</VTKFile>
