<?xml version="1.0"?>
<VTKFile type="UnstructuredGrid" version="0.1" byte_order="LittleEndian" header_type="UInt32" compressor="vtkZLibDataCompressor">
  <UnstructuredGrid>
    <Piece NumberOfPoints="44" NumberOfCells="60">
      <PointData>
      </PointData>
      <CellData>
        <DataArray type="UInt8" Name="vtkGhostType" format="ascii" RangeMin="0" RangeMax="0">
          0 0 0 0 0 0
          0 0 0 0 0 0
          0 0 0 0 0 0
          0 0 0 0 0 0
          0 0 0 0 0 0
          0 0 0 0 0 0
          0 0 0 0 0 0
          0 0 0 0 0 0
          0 0 0 0 0 0
          0 0 0 0 0 0
        </DataArray>
        <DataArray type="Float64" Name="MOSGS" NumberOfComponents="3" format="ascii" RangeMin="0" RangeMax="0.5720769148478021">
          6.93823580790974e-310 6.93823580790974e-310 4.6467904159015e-310 -0.0023595314321927245 -0.00022822435401327482 0
          -0.02780934394736425 0.007188093158203456 0 -0.00977842502827098 0.002341314406181365 0
          -0.050196385636517925 0.01244347818502665 0 -0.009778425028271146 0.002341314406181445 0
          -0.029124822812017656 0.007886010389163468 0 -0.009778425028271049 0.002341314406181424 0
          -0.029124822812017424 0.00788601038916365 0 -0.009778425028271049 0.002341314406181431 0
          -0.029124822812017333 0.007886010389163605 0 -0.00977842502827115 0.0023413144061814268 0
          -0.029124822812017448 0.007886010389163593 0 -0.009778425028271462 0.0023413144061813487 0
          -0.029124822812017417 0.007886010389163617 0 -0.012366637201307502 0.0023779339927866468 0
          -0.026286698271854696 0.0074741542923231945 0 0.00035087074165541035 0.0021057544852791767 0
          -0.024396951477341854 0.005820995944303273 0 -0.027351095746569406 0.006962401602808783 0
          -0.050904994164429 0.014937022734974707 0 0.034723181107696476 -0.008223488706437309 0
          -0.2337205547389276 0.08114720569966183 0 0.017249504735872834 -0.0008257922291032664 0
          -0.10698996792965615 0.039506806917598204 0 0.018684763941165125 -0.0006314717184966907 0
          -0.06427394230382147 0.02224547997424651 0 0.018684763941165264 -0.0006314717184967185 0
          -0.0346307207413539 0.014599060302177738 0 0.018684763941165236 -0.0006314717184966664 0
          -0.03463072074135439 0.014599060302177778 0 0.018684763941165458 -0.0006314717184967081 0
          -0.034630720741354 0.014599060302177844 0 0.018684763941165264 -0.0006314717184966734 0
          -0.034630720741354426 0.014599060302177783 0 0.021571515295494323 -0.001125448763463932 0
          -0.03576164655050589 0.014756662903669811 0 0.028013253829142493 -0.0036464471293104622 0
          -0.04287232766903736 0.015981504227516635 0 0.0067856373097520545 0.0033606241971018205 0
          -0.09437713242755762 0.03244021373205478 0 0.07787907064842524 -0.00871157691448705 0
          -0.47727517041052847 0.3154051493101855 0 0.0707036885684531 -0.018588692771984664 0
          0.2398793253220402 -0.09150433618576254 0 0.07830153033790338 -0.026565071274385215 0
          0.17142065538664747 -0.06725127313793414 0 0.09651837059078759 -0.03130731788192258 0
          0.13913339840086875 -0.0573416729620818 0 0.09651837059078708 -0.03130731788192266 0
          0.13913339840086897 -0.05734167296208178 0 0.09651837059078736 -0.031307317881922495 0
          0.13913339840086894 -0.05734167296208186 0 0.09651837059078683 -0.03130731788192263 0
          0.139133398400869 -0.05734167296208176 0 0.09516520304655607 -0.031078348829979348 0
          0.13913339840086872 -0.0573416729620818 0 0.0842023039136716 -0.028773869654550848 0
          0.1386528237102509 -0.05723978468705907 0 0.0028560697803246132 -0.0025029631636016986 0
          0.1362397185590491 -0.0564482421840233 0
          <InformationKey name="L2_NORM_RANGE" location="vtkDataArray" length="2">
            <Value index="0">
              0
            </Value>
            <Value index="1">
              0.57207691485
            </Value>
          </InformationKey>
        </DataArray>
      </CellData>
      <Points>
        <DataArray type="Float32" Name="Points" NumberOfComponents="3" format="ascii" RangeMin="0" RangeMax="4.2201894765504395">
          4.099999904632568 1 0 4.099999904632568 0.6666666865348816 0
          3.690000057220459 1 0 3.690000057220459 0.6666666865348816 0
          4.099999904632568 0.3333333134651184 0 3.690000057220459 0.3333333134651184 0
          3.2799999713897705 1 0 3.2799999713897705 0.6666666865348816 0
          4.099999904632568 0 0 3.2799999713897705 0.3333333134651184 0
          3.690000057220459 0 0 2.869999885559082 1 0
          2.869999885559082 0.6666666865348816 0 3.2799999713897705 0 0
          2.869999885559082 0.3333333134651184 0 2.869999885559082 0 0
          2.4600000381469727 1 0 2.4600000381469727 0.6666666865348816 0
          2.4600000381469727 0.3333333134651184 0 2.4600000381469727 0 0
          2.049999952316284 1 0 2.049999952316284 0.6666666865348816 0
          2.049999952316284 0.3333333134651184 0 2.049999952316284 0 0
          1.6399999856948853 1 0 1.6399999856948853 0.6666666865348816 0
          1.6399999856948853 0.3333333134651184 0 1.6399999856948853 0 0
          1.2300000190734863 1 0 1.2300000190734863 0.6666666865348816 0
          1.2300000190734863 0.3333333134651184 0 1.2300000190734863 0 0
          0.8199999928474426 1 0 0.8199999928474426 0.6666666865348816 0
          0.8199999928474426 0.3333333134651184 0 0.8199999928474426 0 0
          0.4099999964237213 1 0 0.4099999964237213 0.6666666865348816 0
          0.4099999964237213 0.3333333134651184 0 0.4099999964237213 0 0
          0 1 0 0 0.6666666865348816 0
          0 0.3333333134651184 0 0 0 0
          <InformationKey name="L2_NORM_RANGE" location="vtkDataArray" length="2">
            <Value index="0">
              0
            </Value>
            <Value index="1">
              4.2201894766
            </Value>
          </InformationKey>
        </DataArray>
      </Points>
      <Cells>
        <DataArray type="Int64" Name="connectivity" format="ascii" RangeMin="0" RangeMax="43">
          39 38 43 38 42 43
          35 34 39 34 38 39
          31 30 35 30 34 35
          27 26 31 26 30 31
          23 22 27 22 26 27
          19 18 23 18 22 23
          15 14 19 14 18 19
          13 9 15 9 14 15
          10 5 13 5 9 13
          8 4 10 4 5 10
          38 37 42 37 41 42
          34 33 38 33 37 38
          30 29 34 29 33 34
          26 25 30 25 29 30
          22 21 26 21 25 26
          18 17 22 17 21 22
          14 12 18 12 17 18
          9 7 14 7 12 14
          5 3 9 3 7 9
          4 1 5 1 3 5
          37 36 41 36 40 41
          33 32 37 32 36 37
          29 28 33 28 32 33
          25 24 29 24 28 29
          21 20 25 20 24 25
          17 16 21 16 20 21
          12 11 17 11 16 17
          7 6 12 6 11 12
          3 2 7 2 6 7
          1 0 3 0 2 3
        </DataArray>
        <DataArray type="Int64" Name="offsets" format="ascii" RangeMin="3" RangeMax="180">
          3 6 9 12 15 18
          21 24 27 30 33 36
          39 42 45 48 51 54
          57 60 63 66 69 72
          75 78 81 84 87 90
          93 96 99 102 105 108
          111 114 117 120 123 126
          129 132 135 138 141 144
          147 150 153 156 159 162
          165 168 171 174 177 180
        </DataArray>
        <DataArray type="UInt8" Name="types" format="ascii" RangeMin="5" RangeMax="5">
          5 5 5 5 5 5
          5 5 5 5 5 5
          5 5 5 5 5 5
          5 5 5 5 5 5
          5 5 5 5 5 5
          5 5 5 5 5 5
          5 5 5 5 5 5
          5 5 5 5 5 5
          5 5 5 5 5 5
          5 5 5 5 5 5
        </DataArray>
      </Cells>
    </Piece>
  </UnstructuredGrid>
</VTKFile>
