<?xml version="1.0"?>
<VTKFile type="UnstructuredGrid" version="0.1" byte_order="LittleEndian" header_type="UInt32" compressor="vtkZLibDataCompressor">
  <UnstructuredGrid>
    <Piece NumberOfPoints="44" NumberOfCells="60">
      <PointData>
      </PointData>
      <CellData>
        <DataArray type="UInt8" Name="vtkGhostType" format="ascii" RangeMin="0" RangeMax="0">
          0 0 0 0 0 0
          0 0 0 0 0 0
          0 0 0 0 0 0
          0 0 0 0 0 0
          0 0 0 0 0 0
          0 0 0 0 0 0
          0 0 0 0 0 0
          0 0 0 0 0 0
          0 0 0 0 0 0
          0 0 0 0 0 0
        </DataArray>
        <DataArray type="Float64" Name="MOSGS" NumberOfComponents="3" format="ascii" RangeMin="0" RangeMax="0.5720769148478021">
          6.9382358078963e-310 6.9382358078963e-310 4.6467903775612e-310 0.04936167217754053 -0.005062086009139851 0
          -0.042954243592673386 0.0063024049698362054 0 0.02771529739557316 -0.01216152867871887 0
          -0.08652715218786769 0.028898870065548025 0 0.003520214526433762 -0.01652856011877289 0
          -0.07310226273336673 0.03431369972061704 0 -0.005180921496986403 -0.017560121276816665 0
          -0.04274532160694855 0.02705965025762936 0 -0.0038597842620761787 -0.016776211430601796 0
          -0.01719221335065973 0.015463598483945133 0 -0.0005581089077439068 -0.015831118373319384 0
          -0.001222504273232056 0.00564874586591832 0 0.004346110196894282 -0.015244774575536742 0
          0.007234483859829766 -0.0005058671106987834 0 0.012745354936281714 -0.014762412155170952 0
          0.012294775800037822 -0.0042718306064697155 0 0.04010536533664856 -0.016671376318203132 0
          0.009908502375526464 -0.006788547962671731 0 -0.08514479964958976 0.023985526342001576 0
          -0.058509573968832725 0.010447889790558967 0 0.06006005594552993 -0.024353985542749895 0
          -0.2558430598508813 0.0890646430129789 0 0.05178850916166089 -0.017335276554443786 0
          -0.10160059387263809 0.03882099890257287 0 0.03096214757062852 -0.011743215168614122 0
          -0.004778768179858528 0.00207729663219984 0 0.00889361306712595 -0.00930912057784673 0
          0.04144937951083234 -0.01777578771247806 0 -0.005977737773906136 -0.009134175227991816 0
          0.05313242904215556 -0.024753380676274025 0 -0.012496899739359107 -0.010013620455483308 0
          0.04827030371481552 -0.025164389083459207 0 -0.012262378455318357 -0.011128763149254576 0
          0.038786680578038926 -0.023503752894880967 0 -0.007232712745238373 -0.012821170136054032 0
          0.030118168714922813 -0.021705063090835596 0 -0.004743587494930805 -0.016100557471390727 0
          0.025555426581106343 -0.019733082202530595 0 -0.07703081870938108 0.005046475603006081 0
          0.009758003154351678 -0.010489028076010746 0 0.03392267499887301 0.006080005520013115 0
          -0.47727517041052847 0.3154051493101855 0 -0.010876538091942094 0.014781469658877654 0
          0.24232102860551996 -0.0901870297415033 0 -0.026176574228778494 0.022387604270473902 0
          0.1594587437043403 -0.0586299343565726 0 -0.030846857856861698 0.024754767202539867 0
          0.09628998248462003 -0.0335983791221031 0 -0.03420633653369865 0.023644253997081966 0
          0.05363425507995753 -0.015950258177744762 0 -0.036669862916759284 0.02183623543603171 0
          0.028404292790425986 -0.004713174953610424 0 -0.03690401980985538 0.020854396471822332 0
          0.014001287355546599 0.0017298027800269665 0 -0.03577600298123851 0.020961927897857224 0
          0.004600530309953983 0.005187645955745937 0 -0.037813323904491866 0.023451720926522562 0
          -0.0019038073207325364 0.007161451176199675 0 -0.07979356684299255 0.04472539090930694 0
          -0.006441444090155967 0.008692916133975026 0
          <InformationKey name="L2_NORM_RANGE" location="vtkDataArray" length="2">
            <Value index="0">
              0
            </Value>
            <Value index="1">
              0.57207691485
            </Value>
          </InformationKey>
        </DataArray>
      </CellData>
      <Points>
        <DataArray type="Float32" Name="Points" NumberOfComponents="3" format="ascii" RangeMin="0" RangeMax="4.2201894765504395">
          4.099999904632568 1 0 4.099999904632568 0.6666666865348816 0
          3.690000057220459 1 0 3.690000057220459 0.6666666865348816 0
          4.099999904632568 0.3333333134651184 0 3.690000057220459 0.3333333134651184 0
          3.2799999713897705 1 0 3.2799999713897705 0.6666666865348816 0
          4.099999904632568 0 0 3.2799999713897705 0.3333333134651184 0
          3.690000057220459 0 0 2.869999885559082 1 0
          2.869999885559082 0.6666666865348816 0 3.2799999713897705 0 0
          2.869999885559082 0.3333333134651184 0 2.869999885559082 0 0
          2.4600000381469727 1 0 2.4600000381469727 0.6666666865348816 0
          2.4600000381469727 0.3333333134651184 0 2.4600000381469727 0 0
          2.049999952316284 1 0 2.049999952316284 0.6666666865348816 0
          2.049999952316284 0.3333333134651184 0 2.049999952316284 0 0
          1.6399999856948853 1 0 1.6399999856948853 0.6666666865348816 0
          1.6399999856948853 0.3333333134651184 0 1.6399999856948853 0 0
          1.2300000190734863 1 0 1.2300000190734863 0.6666666865348816 0
          1.2300000190734863 0.3333333134651184 0 1.2300000190734863 0 0
          0.8199999928474426 1 0 0.8199999928474426 0.6666666865348816 0
          0.8199999928474426 0.3333333134651184 0 0.8199999928474426 0 0
          0.4099999964237213 1 0 0.4099999964237213 0.6666666865348816 0
          0.4099999964237213 0.3333333134651184 0 0.4099999964237213 0 0
          0 1 0 0 0.6666666865348816 0
          0 0.3333333134651184 0 0 0 0
          <InformationKey name="L2_NORM_RANGE" location="vtkDataArray" length="2">
            <Value index="0">
              0
            </Value>
            <Value index="1">
              4.2201894766
            </Value>
          </InformationKey>
        </DataArray>
      </Points>
      <Cells>
        <DataArray type="Int64" Name="connectivity" format="ascii" RangeMin="0" RangeMax="43">
          39 38 43 38 42 43
          35 34 39 34 38 39
          31 30 35 30 34 35
          27 26 31 26 30 31
          23 22 27 22 26 27
          19 18 23 18 22 23
          15 14 19 14 18 19
          13 9 15 9 14 15
          10 5 13 5 9 13
          8 4 10 4 5 10
          38 37 42 37 41 42
          34 33 38 33 37 38
          30 29 34 29 33 34
          26 25 30 25 29 30
          22 21 26 21 25 26
          18 17 22 17 21 22
          14 12 18 12 17 18
          9 7 14 7 12 14
          5 3 9 3 7 9
          4 1 5 1 3 5
          37 36 41 36 40 41
          33 32 37 32 36 37
          29 28 33 28 32 33
          25 24 29 24 28 29
          21 20 25 20 24 25
          17 16 21 16 20 21
          12 11 17 11 16 17
          7 6 12 6 11 12
          3 2 7 2 6 7
          1 0 3 0 2 3
        </DataArray>
        <DataArray type="Int64" Name="offsets" format="ascii" RangeMin="3" RangeMax="180">
          3 6 9 12 15 18
          21 24 27 30 33 36
          39 42 45 48 51 54
          57 60 63 66 69 72
          75 78 81 84 87 90
          93 96 99 102 105 108
          111 114 117 120 123 126
          129 132 135 138 141 144
          147 150 153 156 159 162
          165 168 171 174 177 180
        </DataArray>
        <DataArray type="UInt8" Name="types" format="ascii" RangeMin="5" RangeMax="5">
          5 5 5 5 5 5
          5 5 5 5 5 5
          5 5 5 5 5 5
          5 5 5 5 5 5
          5 5 5 5 5 5
          5 5 5 5 5 5
          5 5 5 5 5 5
          5 5 5 5 5 5
          5 5 5 5 5 5
          5 5 5 5 5 5
        </DataArray>
      </Cells>
    </Piece>
  </UnstructuredGrid>
</VTKFile>
