<?xml version="1.0"?>
<VTKFile type="UnstructuredGrid" version="0.1" byte_order="LittleEndian" header_type="UInt32" compressor="vtkZLibDataCompressor">
  <UnstructuredGrid>
    <Piece NumberOfPoints="44" NumberOfCells="60">
      <PointData>
      </PointData>
      <CellData>
        <DataArray type="UInt8" Name="vtkGhostType" format="ascii" RangeMin="0" RangeMax="0">
          0 0 0 0 0 0
          0 0 0 0 0 0
          0 0 0 0 0 0
          0 0 0 0 0 0
          0 0 0 0 0 0
          0 0 0 0 0 0
          0 0 0 0 0 0
          0 0 0 0 0 0
          0 0 0 0 0 0
          0 0 0 0 0 0
        </DataArray>
        <DataArray type="Float64" Name="MOSGS" NumberOfComponents="3" format="ascii" RangeMin="0" RangeMax="0.5720769148478021">
          6.93823580791843e-310 6.93823580791843e-310 4.6467903769154e-310 0.009577154154420967 -0.0014499948727489517 0
          -0.031148921933739762 0.007221937722561262 0 -0.00985696896059016 0.00007211911624890703 0
          -0.056253099596813544 0.017093277726309287 0 -0.011538328198530165 0.002188461648245068 0
          -0.05560593644413865 0.014621719953841374 0 -0.011538328198530578 0.0021884616482451026 0
          -0.03601435103854769 0.01047909549915874 0 -0.011538328198530443 0.0021884616482450315 0
          -0.036014351038548706 0.010479095499158864 0 -0.011538328198530498 0.002188461648245127 0
          -0.03601435103854829 0.010479095499158785 0 -0.012451048734148082 0.002211121486906732 0
          -0.035516289492650614 0.010415936731611918 0 -0.012585101121540678 0.0023433317614566726 0
          -0.03342869539567138 0.010048771205848416 0 -0.002078859543346988 0.0018005471036544405 0
          -0.030014877365986344 0.007770613631108456 0 -0.01476643226975019 0.007236995002440603 0
          -0.07580753298199364 0.021450986301320377 0 0.04669606227305557 -0.014042654736973574 0
          -0.24316738275475208 0.08430081334874384 0 0.03729774027968673 -0.007672621546220662 0
          -0.10119405440297413 0.039156456767899646 0 0.029230729074969083 -0.005939000204280955 0
          -0.04231235806532583 0.01571300644027347 0 0.034489547594068366 -0.007155862100960694 0
          -0.02133945737906386 0.0071824137302245565 0 0.034489547594067735 -0.007155862100960562 0
          -0.0048919636273950864 0.0030608031532437883 0 0.034489547594067534 -0.0071558621009605965 0
          -0.0048919636273958775 0.003060803153243756 0 0.03501373768582421 -0.007236100244323199 0
          -0.005017030684118254 0.0030792903599010987 0 0.03792889863075459 -0.007829930168642056 0
          -0.0062994549785639585 0.003239375354529097 0 0.04600354862827363 -0.011274584436415998 0
          -0.013878016048996251 0.004816736819067552 0 0.011337813521155024 -0.0007139681838112134 0
          -0.06177500920598855 0.02131298262699718 0 0.05935181916152228 -0.003047637692017463 0
          -0.47727517041052847 0.3154051493101855 0 0.043690136387865425 -0.007513613454098948 0
          0.23998998505842004 -0.09140804207972765 0 0.04069412871007118 -0.013068957598380372 0
          0.16541256787683273 -0.06446409455496276 0 0.051024601564767694 -0.01761091817722081 0
          0.12263258095011402 -0.04879683161438843 0 0.06198438109160649 -0.02009022174339324 0
          0.105037018007237 -0.043524964322432275 0 0.06198438109160584 -0.020090221743393453 0
          0.1050370180072373 -0.04352496432243219 0 0.06183145362805206 -0.02006280473761575 0
          0.10503701800723697 -0.043524964322432344 0 0.05994464696917366 -0.01973301107588434 0
          0.10498277961577479 -0.04351280636113808 0 0.048226252592239505 -0.0168298706862793 0
          0.10451111049771836 -0.04339017138596763 0 -0.035359487972736484 0.012026447356606441 0
          0.10187312568853316 -0.04240654829645603 0
          <InformationKey name="L2_NORM_RANGE" location="vtkDataArray" length="2">
            <Value index="0">
              0
            </Value>
            <Value index="1">
              0.57207691485
            </Value>
          </InformationKey>
        </DataArray>
      </CellData>
      <Points>
        <DataArray type="Float32" Name="Points" NumberOfComponents="3" format="ascii" RangeMin="0" RangeMax="4.2201894765504395">
          4.099999904632568 1 0 4.099999904632568 0.6666666865348816 0
          3.690000057220459 1 0 3.690000057220459 0.6666666865348816 0
          4.099999904632568 0.3333333134651184 0 3.690000057220459 0.3333333134651184 0
          3.2799999713897705 1 0 3.2799999713897705 0.6666666865348816 0
          4.099999904632568 0 0 3.2799999713897705 0.3333333134651184 0
          3.690000057220459 0 0 2.869999885559082 1 0
          2.869999885559082 0.6666666865348816 0 3.2799999713897705 0 0
          2.869999885559082 0.3333333134651184 0 2.869999885559082 0 0
          2.4600000381469727 1 0 2.4600000381469727 0.6666666865348816 0
          2.4600000381469727 0.3333333134651184 0 2.4600000381469727 0 0
          2.049999952316284 1 0 2.049999952316284 0.6666666865348816 0
          2.049999952316284 0.3333333134651184 0 2.049999952316284 0 0
          1.6399999856948853 1 0 1.6399999856948853 0.6666666865348816 0
          1.6399999856948853 0.3333333134651184 0 1.6399999856948853 0 0
          1.2300000190734863 1 0 1.2300000190734863 0.6666666865348816 0
          1.2300000190734863 0.3333333134651184 0 1.2300000190734863 0 0
          0.8199999928474426 1 0 0.8199999928474426 0.6666666865348816 0
          0.8199999928474426 0.3333333134651184 0 0.8199999928474426 0 0
          0.4099999964237213 1 0 0.4099999964237213 0.6666666865348816 0
          0.4099999964237213 0.3333333134651184 0 0.4099999964237213 0 0
          0 1 0 0 0.6666666865348816 0
          0 0.3333333134651184 0 0 0 0
          <InformationKey name="L2_NORM_RANGE" location="vtkDataArray" length="2">
            <Value index="0">
              0
            </Value>
            <Value index="1">
              4.2201894766
            </Value>
          </InformationKey>
        </DataArray>
      </Points>
      <Cells>
        <DataArray type="Int64" Name="connectivity" format="ascii" RangeMin="0" RangeMax="43">
          39 38 43 38 42 43
          35 34 39 34 38 39
          31 30 35 30 34 35
          27 26 31 26 30 31
          23 22 27 22 26 27
          19 18 23 18 22 23
          15 14 19 14 18 19
          13 9 15 9 14 15
          10 5 13 5 9 13
          8 4 10 4 5 10
          38 37 42 37 41 42
          34 33 38 33 37 38
          30 29 34 29 33 34
          26 25 30 25 29 30
          22 21 26 21 25 26
          18 17 22 17 21 22
          14 12 18 12 17 18
          9 7 14 7 12 14
          5 3 9 3 7 9
          4 1 5 1 3 5
          37 36 41 36 40 41
          33 32 37 32 36 37
          29 28 33 28 32 33
          25 24 29 24 28 29
          21 20 25 20 24 25
          17 16 21 16 20 21
          12 11 17 11 16 17
          7 6 12 6 11 12
          3 2 7 2 6 7
          1 0 3 0 2 3
        </DataArray>
        <DataArray type="Int64" Name="offsets" format="ascii" RangeMin="3" RangeMax="180">
          3 6 9 12 15 18
          21 24 27 30 33 36
          39 42 45 48 51 54
          57 60 63 66 69 72
          75 78 81 84 87 90
          93 96 99 102 105 108
          111 114 117 120 123 126
          129 132 135 138 141 144
          147 150 153 156 159 162
          165 168 171 174 177 180
        </DataArray>
        <DataArray type="UInt8" Name="types" format="ascii" RangeMin="5" RangeMax="5">
          5 5 5 5 5 5
          5 5 5 5 5 5
          5 5 5 5 5 5
          5 5 5 5 5 5
          5 5 5 5 5 5
          5 5 5 5 5 5
          5 5 5 5 5 5
          5 5 5 5 5 5
          5 5 5 5 5 5
          5 5 5 5 5 5
        </DataArray>
      </Cells>
    </Piece>
  </UnstructuredGrid>
</VTKFile>
