<?xml version="1.0"?>
<VTKFile type="UnstructuredGrid" version="0.1" byte_order="LittleEndian" header_type="UInt32" compressor="vtkZLibDataCompressor">
  <UnstructuredGrid>
    <Piece NumberOfPoints="44" NumberOfCells="60">
      <PointData>
      </PointData>
      <CellData>
        <DataArray type="UInt8" Name="vtkGhostType" format="ascii" RangeMin="0" RangeMax="0">
          0 0 0 0 0 0
          0 0 0 0 0 0
          0 0 0 0 0 0
          0 0 0 0 0 0
          0 0 0 0 0 0
          0 0 0 0 0 0
          0 0 0 0 0 0
          0 0 0 0 0 0
          0 0 0 0 0 0
          0 0 0 0 0 0
        </DataArray>
        <DataArray type="Float64" Name="MOSGS" NumberOfComponents="3" format="ascii" RangeMin="0" RangeMax="0.5720769148478021">
          6.93823580789867e-310 6.93823580789867e-310 4.64679041539005e-310 0.032825170770405074 -0.003731337659179236 0
          -0.03864958307336546 0.0064417939899077455 0 0.01214345493592615 -0.0071381654664395095 0
          -0.07625598019465889 0.025614388740636623 0 -0.0018009386188171037 -0.007336261421519747 0
          -0.06907989769078623 0.02773192801163898 0 -0.008941048890125664 -0.005924692361571046 0
          -0.0536834682515476 0.021156473668229824 0 -0.009391718430394835 -0.004666549436061963 0
          -0.04320228659095562 0.014625398864280829 0 -0.005324434210606504 -0.004080480702702619 0
          -0.03213794004794708 0.010434268931453293 0 -0.005925984909838571 -0.003994163351854162 0
          -0.023711462112841784 0.008698662407303147 0 -0.004876824477931967 -0.0037641273221690613 0
          -0.02261018300258225 0.008218448279121519 0 0.017509719785972128 -0.004958439719387656 0
          -0.02567327338792349 0.00643391318670764 0 -0.08046113029639496 0.0213339601988194 0
          -0.09170477557522558 0.02593959455428957 0 0.05916544157896401 -0.022135760950742107 0
          -0.25424196649348274 0.0881647233427107 0 0.052691194415924354 -0.01600385701399731 0
          -0.09988086694160964 0.0392913770564568 0 0.04154981092551693 -0.01348670733408264 0
          -0.011800436163876903 0.006020731575180752 0 0.033024209328498116 -0.014259877113107524 0
          0.02438641038664953 -0.010477173135660996 0 0.030368648290170636 -0.015778054938062204 0
          0.03299331510595353 -0.01631092808422674 0 0.03602283759614003 -0.01730777347773065 0
          0.033037708193281196 -0.017738803438514937 0 0.0408540486928424 -0.018321974968700472 0
          0.03588350535066157 -0.018687399140360564 0 0.04337792704484533 -0.019293965494360216 0
          0.037428451344191385 -0.019215695774753645 0 0.04779851309600434 -0.023126183829280222 0
          0.032477470647686385 -0.017555795497797323 0 -0.013573877712949838 -0.0049430210740054464 0
          -0.003048700132766344 -0.002715671170945066 0 0.037833798780435024 0.004217712142094862 0
          -0.47727517041052847 0.3154051493101855 0 0.0013680115231624382 0.009815699278227596 0
          0.24140377748754638 -0.09060814037633422 0 -0.01184296870827859 0.013056267684857936 0
          0.15823310930999535 -0.06029363818053514 0 -0.017958814973406362 0.012200156899661047 0
          0.0999193803092509 -0.03718423277393511 0 -0.019220853627654036 0.01043008853067123 0
          0.06489741273132066 -0.02235760066581363 0 -0.014606087427137829 0.00920421499066848 0
          0.044415261902154196 -0.014432156257832972 0 -0.009136271695726221 0.008286403566941387 0
          0.03338696633515745 -0.010918452437851812 0 -0.009272858402520373 0.008390179014429771 0
          0.030145705355922835 -0.009977425004554466 0 -0.019338906642473605 0.011904933151451549 0
          0.02970741114410188 -0.009799492104235261 0 -0.09319784299592626 0.04205848150798691 0
          0.027282899511876013 -0.008752793110976393 0
          <InformationKey name="L2_NORM_RANGE" location="vtkDataArray" length="2">
            <Value index="0">
              0
            </Value>
            <Value index="1">
              0.57207691485
            </Value>
          </InformationKey>
        </DataArray>
      </CellData>
      <Points>
        <DataArray type="Float32" Name="Points" NumberOfComponents="3" format="ascii" RangeMin="0" RangeMax="4.2201894765504395">
          4.099999904632568 1 0 4.099999904632568 0.6666666865348816 0
          3.690000057220459 1 0 3.690000057220459 0.6666666865348816 0
          4.099999904632568 0.3333333134651184 0 3.690000057220459 0.3333333134651184 0
          3.2799999713897705 1 0 3.2799999713897705 0.6666666865348816 0
          4.099999904632568 0 0 3.2799999713897705 0.3333333134651184 0
          3.690000057220459 0 0 2.869999885559082 1 0
          2.869999885559082 0.6666666865348816 0 3.2799999713897705 0 0
          2.869999885559082 0.3333333134651184 0 2.869999885559082 0 0
          2.4600000381469727 1 0 2.4600000381469727 0.6666666865348816 0
          2.4600000381469727 0.3333333134651184 0 2.4600000381469727 0 0
          2.049999952316284 1 0 2.049999952316284 0.6666666865348816 0
          2.049999952316284 0.3333333134651184 0 2.049999952316284 0 0
          1.6399999856948853 1 0 1.6399999856948853 0.6666666865348816 0
          1.6399999856948853 0.3333333134651184 0 1.6399999856948853 0 0
          1.2300000190734863 1 0 1.2300000190734863 0.6666666865348816 0
          1.2300000190734863 0.3333333134651184 0 1.2300000190734863 0 0
          0.8199999928474426 1 0 0.8199999928474426 0.6666666865348816 0
          0.8199999928474426 0.3333333134651184 0 0.8199999928474426 0 0
          0.4099999964237213 1 0 0.4099999964237213 0.6666666865348816 0
          0.4099999964237213 0.3333333134651184 0 0.4099999964237213 0 0
          0 1 0 0 0.6666666865348816 0
          0 0.3333333134651184 0 0 0 0
          <InformationKey name="L2_NORM_RANGE" location="vtkDataArray" length="2">
            <Value index="0">
              0
            </Value>
            <Value index="1">
              4.2201894766
            </Value>
          </InformationKey>
        </DataArray>
      </Points>
      <Cells>
        <DataArray type="Int64" Name="connectivity" format="ascii" RangeMin="0" RangeMax="43">
          39 38 43 38 42 43
          35 34 39 34 38 39
          31 30 35 30 34 35
          27 26 31 26 30 31
          23 22 27 22 26 27
          19 18 23 18 22 23
          15 14 19 14 18 19
          13 9 15 9 14 15
          10 5 13 5 9 13
          8 4 10 4 5 10
          38 37 42 37 41 42
          34 33 38 33 37 38
          30 29 34 29 33 34
          26 25 30 25 29 30
          22 21 26 21 25 26
          18 17 22 17 21 22
          14 12 18 12 17 18
          9 7 14 7 12 14
          5 3 9 3 7 9
          4 1 5 1 3 5
          37 36 41 36 40 41
          33 32 37 32 36 37
          29 28 33 28 32 33
          25 24 29 24 28 29
          21 20 25 20 24 25
          17 16 21 16 20 21
          12 11 17 11 16 17
          7 6 12 6 11 12
          3 2 7 2 6 7
          1 0 3 0 2 3
        </DataArray>
        <DataArray type="Int64" Name="offsets" format="ascii" RangeMin="3" RangeMax="180">
          3 6 9 12 15 18
          21 24 27 30 33 36
          39 42 45 48 51 54
          57 60 63 66 69 72
          75 78 81 84 87 90
          93 96 99 102 105 108
          111 114 117 120 123 126
          129 132 135 138 141 144
          147 150 153 156 159 162
          165 168 171 174 177 180
        </DataArray>
        <DataArray type="UInt8" Name="types" format="ascii" RangeMin="5" RangeMax="5">
          5 5 5 5 5 5
          5 5 5 5 5 5
          5 5 5 5 5 5
          5 5 5 5 5 5
          5 5 5 5 5 5
          5 5 5 5 5 5
          5 5 5 5 5 5
          5 5 5 5 5 5
          5 5 5 5 5 5
          5 5 5 5 5 5
        </DataArray>
      </Cells>
    </Piece>
  </UnstructuredGrid>
</VTKFile>
