<?xml version="1.0"?>
<VTKFile type="UnstructuredGrid" version="0.1" byte_order="LittleEndian" header_type="UInt32" compressor="vtkZLibDataCompressor">
  <UnstructuredGrid>
    <Piece NumberOfPoints="36" NumberOfCells="50">
      <PointData>
        <DataArray type="Float64" Name="Velocity" NumberOfComponents="3" format="ascii" RangeMin="0" RangeMax="0.404478640570604">
          0 0 0 0 0 0
          0 0 0 0.16556546071856487 0.0505883469495718 0
          0 0 0 0 0 0
          0.05627806675732559 -0.0053316803580049366 0 0.2843940656990275 -0.08093285314073329 0
          0.10250349842039377 -0.06347070582345002 0 0 0 0
          0 0 0 0.32141021107195844 0.08147550758061471 0
          -0.004774169709599166 -0.0690836369537593 0 0.10855826433582091 0.1527220847137285 0
          -0.07061518414350762 0.025627198118740896 0 0 0 0
          0 0 0 -0.22699196867204607 -0.1160549729802178 0
          0.30990625947523 0.25992514502432285 0 -0.03895800105529898 0.2236832195723768 0
          -0.30414761601045043 0.05255404536973379 0 0.11466405937007601 0.20881684347134677 0
          0 0 0 0 0 0
          -0.2582128527458565 0.23782260873615696 0 0.009491982978000607 0.19818377670985066 0
          0 0 0 0 0 0
          0 0 0 0 0 0
          -0.11951405657943709 0.0404386888639644 0 0 0 0
          0 0 0 0 0 0
          0 0 0 0 0 0
          <InformationKey name="L2_NORM_RANGE" location="vtkDataArray" length="2">
            <Value index="0">
              0
            </Value>
            <Value index="1">
              0.40447864057
            </Value>
          </InformationKey>
        </DataArray>
        <DataArray type="Float64" Name="Pressure" format="ascii" RangeMin="-0.9434879321157447" RangeMax="0.9358857481794101">
          -0.548785501929726 -0.5839186605764897 -0.3345685678123563 -0.3401148303928183 -0.6513206466116475 -0.09230873463779861
          -0.09783365490415756 -0.3867066433481939 -0.11095994122023055 -0.7513901058610886 0.1360600084296766 -0.45308788335740924
          0.13999680715709442 -0.1348613094302112 0.1645397365459532 -0.8480901846763521 0.3630512356651292 0.38588498493421414
          -0.5403808265633709 0.16040227944133595 0.42842698774743193 -0.21123651040456268 0.5693248773665964 -0.9434879321157447
          0.478792796462163 0.12895591830655972 0.6242595191504603 -0.5970912244032804 0.7084254086575947 -0.24096860215816052
          0.5297043440745077 0.8135002621366797 0.1161381379152162 0.8975397998609037 0.5140589269271788 0.9358857481794101
        </DataArray>
        <DataArray type="Float64" Name="Temperature" format="ascii" RangeMin="239.99999999999994" RangeMax="960">
          960 625.3758737817595 959.9999999999999 664.560352105603 569.4087079472778 960
          636.8362023043968 593.5277660686224 593.8915713882864 605.7910765223585 960 599.1012723031084
          616.3818382911418 601.8758011667162 599.5014761394814 598.0226804740767 960 589.6683029241668
          621.3621113884749 602.8788703507179 598.0319535590135 598.9079787370354 960 240
          603.0157147889769 584.2610221185964 611.6856962428019 239.99999999999997 597.8917153724783 239.99999999999997
          552.7574272316077 626.0761218064451 239.99999999999994 577.9337847170619 240.00000000000003 240.00000000000003
        </DataArray>
        <DataArray type="Float64" Name="Density" format="ascii" RangeMin="0.368023733641042" RangeMax="1.4720949345641683">
          0.368023733641042 0.5649446982323052 0.3680237336410421 0.5316338586495425 0.6204730966778841 0.368023733641042
          0.5547781093740768 0.5952590670451502 0.5948944240267908 0.5832089609566256 0.368023733641042 0.5897213052764989
          0.5731881803573214 0.5870028062443027 0.5893276303012807 0.5907849247712863 0.368023733641042 0.5991551225381639
          0.5685940256413797 0.5860261516378414 0.5907757640587956 0.5899116339048244 0.368023733641042 1.472094934564168
          0.5858931626998102 0.6047002468422153 0.5775887624404424 1.4720949345641683 0.5909143331669976 1.4720949345641683
          0.6391642461773109 0.5643128239358501 1.4720949345641683 0.6113205243198685 1.4720949345641678 1.4720949345641678
        </DataArray>
        <DataArray type="Float64" Name="stream" format="ascii" RangeMin="-0.0898529613416278" RangeMax="0.06008256178257504">
          0 0.005020720071538867 -0.0009581426147416087 0.009356066806747752 0.03763757239740557 -0.009287930528555281
          -0.006893412206916398 0.027121869392576704 -0.007257061519597718 0.06008256178257504 -0.013764713478057257 0.023429315103034754
          -0.016589570416005322 -0.0321165447133571 -0.02782314844549676 0.02186579864787434 -0.0121999710090539 -0.014095160887914336
          -0.029387910999633716 -0.05412002973088096 -0.007598016111619532 -0.07910952395635219 -0.0031841790360181334 -0.0428155198114074
          -0.01598566480173698 -0.06871028738890676 0.011862818042692097 -0.08394475518313682 0.015965245278957516 -0.0898529613416278
          -0.029389466287707864 -0.0027628689947844496 -0.0519167930093615 -0.015544907852627127 -0.020315155138354375 -0.015544907852627127
        </DataArray>
      </PointData>
      <CellData>
        <DataArray type="UInt8" Name="vtkGhostType" format="ascii" RangeMin="0" RangeMax="0">
          0 0 0 0 0 0
          0 0 0 0 0 0
          0 0 0 0 0 0
          0 0 0 0 0 0
          0 0 0 0 0 0
          0 0 0 0 0 0
          0 0 0 0 0 0
          0 0 0 0 0 0
          0 0
        </DataArray>
      </CellData>
      <Points>
        <DataArray type="Float32" Name="Points" NumberOfComponents="3" format="ascii" RangeMin="0" RangeMax="1.4142135623730951">
          0 1 0 0.20000000298023224 1 0
          0 0.800000011920929 0 0.20000000298023224 0.800000011920929 0
          0.4000000059604645 1 0 0 0.6000000238418579 0
          0.20000000298023224 0.6000000238418579 0 0.4000000059604645 0.800000011920929 0
          0.4000000059604645 0.6000000238418579 0 0.6000000238418579 1 0
          0 0.4000000059604645 0 0.6000000238418579 0.800000011920929 0
          0.20000000298023224 0.4000000059604645 0 0.6000000238418579 0.6000000238418579 0
          0.4000000059604645 0.4000000059604645 0 0.800000011920929 1 0
          0 0.20000000298023224 0 0.20000000298023224 0.20000000298023224 0
          0.800000011920929 0.800000011920929 0 0.6000000238418579 0.4000000059604645 0
          0.4000000059604645 0.20000000298023224 0 0.800000011920929 0.6000000238418579 0
          0 0 0 1 1 0
          0.6000000238418579 0.20000000298023224 0 0.800000011920929 0.4000000059604645 0
          0.20000000298023224 0 0 1 0.800000011920929 0
          0.4000000059604645 0 0 1 0.6000000238418579 0
          0.800000011920929 0.20000000298023224 0 0.6000000238418579 0 0
          1 0.4000000059604645 0 0.800000011920929 0 0
          1 0.20000000298023224 0 1 0 0
          <InformationKey name="L2_NORM_RANGE" location="vtkDataArray" length="2">
            <Value index="0">
              0
            </Value>
            <Value index="1">
              1.4142135624
            </Value>
          </InformationKey>
        </DataArray>
      </Points>
      <Cells>
        <DataArray type="Int64" Name="connectivity" format="ascii" RangeMin="0" RangeMax="35">
          26 17 22 17 16 22
          28 20 26 20 17 26
          31 24 28 24 20 28
          33 30 31 30 24 31
          35 34 33 34 30 33
          17 12 16 12 10 16
          20 14 17 14 12 17
          24 19 20 19 14 20
          30 25 24 25 19 24
          34 32 30 32 25 30
          12 6 10 6 5 10
          14 8 12 8 6 12
          19 13 14 13 8 14
          25 21 19 21 13 19
          32 29 25 29 21 25
          6 3 5 3 2 5
          8 7 6 7 3 6
          13 11 8 11 7 8
          21 18 13 18 11 13
          29 27 21 27 18 21
          3 1 2 1 0 2
          7 4 3 4 1 3
          11 9 7 9 4 7
          18 15 11 15 9 11
          27 23 18 23 15 18
        </DataArray>
        <DataArray type="Int64" Name="offsets" format="ascii" RangeMin="3" RangeMax="150">
          3 6 9 12 15 18
          21 24 27 30 33 36
          39 42 45 48 51 54
          57 60 63 66 69 72
          75 78 81 84 87 90
          93 96 99 102 105 108
          111 114 117 120 123 126
          129 132 135 138 141 144
          147 150
        </DataArray>
        <DataArray type="UInt8" Name="types" format="ascii" RangeMin="5" RangeMax="5">
          5 5 5 5 5 5
          5 5 5 5 5 5
          5 5 5 5 5 5
          5 5 5 5 5 5
          5 5 5 5 5 5
          5 5 5 5 5 5
          5 5 5 5 5 5
          5 5 5 5 5 5
          5 5
        </DataArray>
      </Cells>
    </Piece>
  </UnstructuredGrid>
</VTKFile>
