<?xml version="1.0"?>
<VTKFile type="UnstructuredGrid" version="0.1" byte_order="LittleEndian" header_type="UInt32" compressor="vtkZLibDataCompressor">
  <UnstructuredGrid>
    <Piece NumberOfPoints="33" NumberOfCells="46">
      <PointData>
        <DataArray type="Float64" Name="proc" format="ascii" RangeMin="0" RangeMax="1">
          1 1 1 1 1 1
          1 1 1 1 1 1
          1 1 1 1 1 1
          1 1 1 1 1 1
          1 1 1 1 0 0
          0 0 0
        </DataArray>
        <DataArray type="Float64" Name="Displacement" NumberOfComponents="3" format="ascii" RangeMin="0" RangeMax="1.6994403216667338e-8">
          7.192911767193625e-9 -9.084712397751274e-9 0 3.272992214398726e-9 -9.079690398905453e-9 0
          5.13214898803588e-9 -1.0005543612168635e-8 0 7.172282115513722e-9 -1.1226613742716955e-8 0
          2.1885287462673567e-9 -9.97591148816459e-9 0 3.294763345357994e-9 -1.0798236983822069e-8 0
          4.778695709258447e-9 -1.1652737230215236e-8 0 6.027061260940359e-9 -1.2755113818869886e-8 0
          1.0100374696059957e-9 -1.0793654480958835e-8 0 2.5282970693554365e-9 -1.1780497054552144e-8 0
          3.315405318181324e-9 -1.2496978091932918e-8 0 7.151219828906794e-9 -1.3346222343725603e-8 0
          4.713963950781498e-9 -1.3441222599708036e-8 0 5.9928233381595715e-9 -1.4071355204636784e-8 0
          1.5861826670362372e-9 -1.2712867383945453e-8 0 3.0139315074460956e-9 -1.3887056173315288e-8 0
          3.2965733764389797e-9 -1.4300796379734487e-8 0 7.133328631957519e-9 -1.542482944214192e-8 0
          4.8455886705366145e-9 -1.5459065935094953e-8 0 2.806484956041864e-9 -1.4044796767757366e-8 0
          3.0873168497634357e-9 -1.4216386279476397e-8 0 3.5414326979727283e-9 -1.434763888441307e-8 0
          2.8411115168583164e-9 -1.4332470494345618e-8 0 0 0 0
          5.372216470076454e-9 -8.86105768825619e-9 0 4.236929811337967e-9 -1.2392456042255824e-8 0
          3.1624198600185563e-9 -1.4489893699688502e-8 0 2.869791415976355e-9 -1.4518573598806543e-8 0
          1.9726748345210584e-9 -8.226973461456884e-9 0 6.623185640683501e-10 -9.047191515630739e-9 0
          3.254491731737956e-9 -7.34093273490749e-9 0 5.136397890076319e-9 -8.155353491110402e-9 0
          7.214120630839957e-9 -6.908341779506064e-9 0
          <InformationKey name="L2_NORM_RANGE" location="vtkDataArray" length="2">
            <Value index="0">
              0
            </Value>
            <Value index="1">
              1.6994403217e-08
            </Value>
          </InformationKey>
        </DataArray>
        <DataArray type="Float64" Name="TopologicalDerivative1" format="ascii" RangeMin="-0.00105188237896107" RangeMax="0.8709326118359614">
          -0.0005536630616057942 -0.0005118947192129474 -0.0007686083626720966 -0.0006199265188273164 0.00004445658898992932 0.00019382190061030449
          -0.0008461385168992382 -0.0007193202286748272 0.0007671448291796212 0.002946201574601686 0.002964959155268151 -0.00025232437047559547
          -0.0006919299950821756 -0.0006506098290526908 0.0055335009285918425 0.006281319222998504 0.005479859956118943 0.2727963956725093
          0.0696247786870329 0.0038064649151023015 0.0018719829253022418 0.024207266043836075 -0.0004746036222631531 0.8709326118359614
          0.38146664445209866 0.10898319969628502 0.012060700573393725 -0.00105188237896107 -0.0007142573469606961 -0.00047922827554052274
          -0.0007720643589342662 -0.0007986876300964038 -0.0005618495080440364
        </DataArray>
      </PointData>
      <CellData>
        <DataArray type="UInt8" Name="vtkGhostType" format="ascii" RangeMin="0" RangeMax="1">
          1 1 1 0 0 1
          1 1 1 0 0 0
          1 0 0 0 0 0
          0 0 0 0 0 0
          0 0 0 0 0 0
          0 0 0 0 0 0
          0 0 0 0 0 0
          0 0 0 0
        </DataArray>
        <DataArray type="Float64" Name="Stress" NumberOfComponents="6" format="ascii" RangeMin="0.00003319770262272481" RangeMax="107.41272184168058">
          -0.01551168421061679 -0.00016629074593746407 0 0.0030648528762029356 0 0
          -0.00032007471079124335 -0.0003268963962066814 0 0.0011444388282745401 0 0
          -0.016724619229488726 -0.006728605677265212 0 0.009749976866825518 0 0
          -0.1519300211090212 -0.21620324288722595 0 0.6979474363187517 0 0
          -0.014719458687737413 -0.00007546509810496711 0 -0.0002553518993275899 0 0
          -0.0002167385177831058 0.00001755758048711032 0 0.000014888775177397143 0 0
          -0.0000468401979382637 0.000005540410169924268 0 -7.774755650295152e-7 0 0
          -0.00004246399396450482 0.000020143550132908764 0 -0.000001146965190270578 0 0
          0.00021156217417621538 0.000026523610571409292 0 0.000014701546895134089 0 0
          0.00020247240583696195 0.000014759165699654985 0 -0.000026366061246710843 0 0
          -15.117844977058137 -46.91213374111305 0 -25.071770072196266 0 0
          0.5879056223050882 -0.9692070093679908 0 -32.29372426166501 0 0
          -2.809167609556723 -0.3441417117460027 0 0.5534236685093307 0 0
          -4.094234064803496 -0.05671395915513398 0 1.142841803722139 0 0
          -7.473103226212933 -1.864536190166786 0 2.3017629811336415 0 0
          -4.845755657676474 -2.5617859353983894 0 3.33868252411588 0 0
          -0.8792472750787141 -2.1051453373291884 0 3.700543565787595 0 0
          -7.942481780186329 -7.049561743661398 0 6.821842959335507 0 0
          -5.851651678163178 -0.0801280702508953 0 3.4076212594679847 0 0
          -2.401519818094397 -8.447238480278193 0 6.106898792962234 0 0
          -0.0015060960252140294 0.00015415668822992554 0 -0.0008579836394203828 0 0
          -13.770307220638461 2.911067491430215 0 1.7900717792101504 0 0
          0.08095174009270134 3.205252826335946 0 0.2080141739726979 0 0
          -0.20387622464507285 -0.002910716863294721 0 -0.010737547934084128 0 0
          -0.9360875536530588 -0.18487815281658876 0 0.21887268380272468 0 0
          -0.04770401982765437 -0.009998298642762788 0 -0.010492579207796466 0 0
          -0.32245038339698684 0.279203079386376 0 -0.07495048206100788 0 0
          -0.15099496372223986 0.05890848971644301 0 -0.04570540108407055 0 0
          -0.0000570502350764211 0.00004981017735256452 0 -0.000026999816810183683 0 0
          -0.41448535243933926 -0.4501379232427145 0 -0.5178234188147602 0 0
          -0.057717089240957684 0.02237875548801658 0 -0.06315685902224046 0 0
          0.000010392807806216395 0.000007032662914932552 0 -0.000056756753172317886 0 0
          -0.03981519279011452 0.06040985061165373 0 -0.09619845829365348 0 0
          0.00003076471951809252 0.00006627972778543974 0 -0.00001692354969011689 0 0
          0.16480190990275917 -0.021290499938728495 0 -0.05583872352507267 0 0
          0.00020808843677159544 0.000019634951150278305 0 0.000017804235256281294 0 0
          0.12550985811132634 0.0012045886227238234 0 -0.04593449607498659 0 0
          0.00007591626432116441 0.000007580975700514725 0 -0.00004094010676385184 0 0
          -1.6335631630379754 2.6796979928574625 0 -17.15203578957462 0 0
          -0.15540849975940674 13.765428229252246 0 -5.867622423978278 0 0
          -12.62824629624973 -28.95772577806705 0 -11.076526015677691 0 0
          0.14967184454578542 0.3367088795622728 0 -1.9652759571404812 0 0
          -3.0064635482460464 0.6315652220413814 0 -1.5015090627405177 0 0
          -0.435150237103885 -0.4351502371039018 0 -0.4351502371038358 0 0
          40.19796394403285 -94.27330307586442 0 -32.15837115524807 0 0
          -0.00003222237499776606 -0.000005324039364543482 0 -0.000005954881508057207 0 0
          <InformationKey name="L2_NORM_RANGE" location="vtkDataArray" length="2">
            <Value index="0">
              3.3197702623e-05
            </Value>
            <Value index="1">
              107.41272184
            </Value>
          </InformationKey>
        </DataArray>
        <DataArray type="Float64" Name="Strain" NumberOfComponents="6" format="ascii" RangeMin="1.4412530592810603e-13" RangeMax="6.317286813864075e-10">
          -1.0792695587314915e-11 3.132180584240417e-12 0 5.562281199682868e-12 0 0
          -9.250241330384951e-13 -9.619749290387847e-13 0 1.2398087306307515e-11 0 0
          -1.0792695587314902e-11 -1.255856686172209e-12 0 1.8604208204199478e-11 0 0
          -1.0885565479634054e-12 -2.1331820398981375e-12 0 2.2687323393404198e-11 0 0
          -1.0885565479634054e-12 3.2148050972981883e-13 0 -4.917451494367778e-14 0 0
          -9.250241330384951e-13 3.440797325918419e-13 0 1.612950644218024e-13 0 0
          -2.0209300412183742e-13 8.163528979751409e-14 0 -8.422651954486417e-15 0 0
          -2.0211274585157266e-13 1.3701145134275089e-13 0 -1.2425456227931261e-14 0 0
          8.483545458533023e-13 -1.5393767367273046e-13 0 1.592667580306193e-13 0 0
          8.251860671961061e-13 -1.9159398354764e-13 0 -2.8563233017270085e-13 0 0
          -4.350853561350934e-12 -1.7656991769998165e-10 0 -2.716108424487929e-10 0 0
          3.661115521314523e-12 -4.773244566914655e-12 0 -3.49848679501371e-10 0 0
          -1.7385945276882285e-11 3.2036294518290505e-12 0 9.245142608465523e-12 0 0
          -1.698841615440399e-11 4.8814844178579805e-12 0 1.2380786206989838e-11 0 0
          -2.8807259871512074e-11 1.5724782404045579e-12 0 2.4935765628947785e-11 0 0
          -1.698841615440399e-11 -4.616913492064363e-12 0 3.616906067792204e-11 0 0
          -1.0320986411664898e-12 -7.672379811689892e-12 0 4.0089221962698953e-11 0 0
          -2.4281721904532957e-11 -1.944507170668958e-11 0 7.390329872613466e-11 0 0
          -2.4281721904532957e-11 6.9806976383252425e-12 0 3.691589697756984e-11 0 0
          5.527155249544182e-13 -3.219492722854114e-11 0 6.615807025709087e-11 0 0
          -1.6801988776640775e-13 6.558963638404946e-14 0 -2.4144896510134707e-13 0 0
          -6.101511445028136e-11 2.934233190675731e-11 0 1.939244427477663e-11 0 0
          -3.66926711586701e-12 1.325403043461723e-11 0 2.253486884704227e-12 0 0
          -1.0320986411664898e-12 2.961629264997583e-13 0 -1.4193751364841172e-13 0 0
          -3.66926711586701e-12 3.9978380533053707e-13 0 2.371120741196184e-12 0 0
          -2.95128126066972e-13 2.8472735185819793e-14 0 -1.8010039652903326e-13 0 0
          -1.7313280408225985e-12 1.602299901635387e-12 0 -8.305678825262167e-13 0 0
          -7.179969069772576e-13 4.435963286881606e-13 0 -5.058619461746038e-13 0 0
          -2.999720345091269e-13 2.788551994812119e-13 0 -2.924980154436566e-13 0 0
          -1.173325729989134e-12 -1.3679325457998104e-12 0 -5.652998615078778e-12 0 0
          -2.6875751325907143e-13 1.6557365444343993e-13 0 -6.849541925769731e-13 0 0
          3.4512537215569294e-14 1.6311752387781802e-14 0 -6.148648260334439e-13 0 0
          -2.4608156874677604e-13 3.073119690485778e-13 0 -1.0623214190525252e-12 0 0
          4.533667159358581e-14 2.377096330417165e-13 0 -1.8333845497626625e-13 0 0
          7.156478779710008e-13 -2.956879503195134e-13 0 -6.069210641639459e-13 0 0
          8.424914642771331e-13 -1.7829824950500138e-13 0 1.9287921527638061e-13 0 0
          5.214634813919357e-13 -1.5187154537987026e-13 0 -4.976346581548e-13 0 0
          3.0684154837920827e-13 -6.330793164931082e-14 0 -4.435178232750615e-13 0 0
          -1.0156135670396727e-11 1.3207362257370227e-11 0 -1.8581372105372504e-10 0 0
          -1.785432070222951e-11 5.755021157991695e-11 0 -6.356590959309802e-11 0 0
          -1.642053567845673e-11 -1.0487188287163385e-10 0 -1.1999569850317499e-10 0 0
          2.0274658615459817e-13 1.2158638591605715e-12 0 -2.1290489535688552e-11 0 0
          -1.3316387978576918e-11 6.389601193813315e-12 0 -1.6266348179688946e-11 0 0
          -1.4339949559019426e-12 -1.4339949559020458e-12 0 -5.326266979063845e-12 0 0
          2.8533314527830077e-10 -4.4305288441280957e-10 0 -3.483823541818541e-10 0 0
          -1.2760484661834586e-13 1.809447139494306e-14 0 -6.451121633728641e-14 0 0
          <InformationKey name="L2_NORM_RANGE" location="vtkDataArray" length="2">
            <Value index="0">
              1.4412530593e-13
            </Value>
            <Value index="1">
              6.3172868139e-10
            </Value>
          </InformationKey>
        </DataArray>
      </CellData>
      <Points>
        <DataArray type="Float32" Name="Points" NumberOfComponents="3" format="ascii" RangeMin="0" RangeMax="128.28654354956544">
          100 0 0 100 45.35898208618164 0
          89.30555725097656 23.870376586914062 0 75 0 0
          90 62.67949295043945 0 80 45.35898208618164 0
          70 28.038475036621094 0 57 13.358983993530273 0
          80 80 0 70 62.67949295043945 0
          60 45.35898208618164 0 50 0 0
          48.827545166015625 28.876956939697266 0 41.327545166015625 13.757295608520508 0
          60 80 0 50 62.67949295043945 0
          38.48822784423828 45.76527404785156 0 25 0 0
          24.63772964477539 27.38901710510254 0 40 80 0
          30 62.67949295043945 0 17.464101791381836 47.607696533203125 0
          20 80 0 0 0 0
          0 20 0 0 40 0
          0 60 0 0 80 0
          110 62.67949295043945 0 100 80 0
          120 45.35898208618164 0 110.71759033203125 23.771137237548828 0
          125 0 0
          <InformationKey name="L2_NORM_RANGE" location="vtkDataArray" length="2">
            <Value index="0">
              0
            </Value>
            <Value index="1">
              128.28654355
            </Value>
          </InformationKey>
        </DataArray>
      </Points>
      <Cells>
        <DataArray type="Int64" Name="connectivity" format="ascii" RangeMin="0" RangeMax="32">
          28 29 4 30 28 1
          1 28 4 4 5 1
          1 5 2 31 30 1
          31 1 2 31 2 0
          0 32 31 3 0 2
          25 24 18 18 24 17
          4 29 8 4 8 9
          9 8 14 4 9 5
          5 9 10 10 9 15
          15 9 14 10 15 16
          2 5 6 15 14 19
          16 15 20 6 5 10
          15 19 20 6 10 12
          20 19 22 12 10 16
          6 12 7 20 22 26
          12 16 18 7 12 13
          13 12 18 7 13 11
          11 13 17 7 11 3
          17 13 18 7 3 6
          25 18 21 21 18 16
          25 21 26 26 21 20
          20 21 16 27 26 22
          24 23 17 2 6 3
        </DataArray>
        <DataArray type="Int64" Name="offsets" format="ascii" RangeMin="3" RangeMax="138">
          3 6 9 12 15 18
          21 24 27 30 33 36
          39 42 45 48 51 54
          57 60 63 66 69 72
          75 78 81 84 87 90
          93 96 99 102 105 108
          111 114 117 120 123 126
          129 132 135 138
        </DataArray>
        <DataArray type="UInt8" Name="types" format="ascii" RangeMin="5" RangeMax="5">
          5 5 5 5 5 5
          5 5 5 5 5 5
          5 5 5 5 5 5
          5 5 5 5 5 5
          5 5 5 5 5 5
          5 5 5 5 5 5
          5 5 5 5 5 5
          5 5 5 5
        </DataArray>
      </Cells>
    </Piece>
  </UnstructuredGrid>
</VTKFile>
