<?xml version="1.0"?>
<VTKFile type="UnstructuredGrid" version="0.1" byte_order="LittleEndian" header_type="UInt32" compressor="vtkZLibDataCompressor">
  <UnstructuredGrid>
    <Piece NumberOfPoints="44" NumberOfCells="60">
      <PointData>
        <DataArray type="Float64" Name="Density" format="ascii" RangeMin="0.9939155737264146" RangeMax="1.7">
          1.7 1.0912823589225502 1.7 1.1042408948873572 0.9939155737264146 0.9986550394099315
          1.7 1.1074055620247722 0.997720096194698 0.999513301481239 0.9992046826979536 1.7
          1.1073150332330262 0.9993436736768294 0.9993013206015186 0.9991989760933234 1.7 1.1072719196883456
          0.9992564750028847 0.9991853282382132 1.7 1.107221386879179 0.9992720875082183 0.9991887380463726
          1.7 1.1074139538465384 0.9991301357103259 0.9992260098360134 1.7 1.1077322644107954
          0.9994747282645846 0.9989357848081087 1.7 1.113076708772844 1.0000217111161076 0.9993793617032283
          1.7 1.1213681532871578 1.0055852504963878 0.9995715559408354 1 1
          1 1
        </DataArray>
        <DataArray type="Float64" Name="Momentum" NumberOfComponents="3" format="ascii" RangeMin="2.88284555631553" RangeMax="4.535233026008696">
          4.4528099999999995 -0.86071 0 3.1518952626697327 -0.07092348877544341 0
          4.4528099999999995 -0.86071 0 3.180665521333947 -0.08464095788966208 0
          2.8828406179675174 0.0053360064525260174 0 2.8959958554551686 0.0008628421103579435 0
          4.4528099999999995 -0.86071 0 3.189303499454161 -0.08819274546145559 0
          2.893257631731087 0.0015673346314470631 0 2.89848690385156 -0.00011127289850086436 0
          2.8977216584150867 0 0 4.4528099999999995 -0.86071 0
          3.1891331276200616 -0.0880371385971095 0 2.8981185643275307 0 0
          2.8979268012628983 0.0002065854109807643 0 2.8976877502942484 0 0
          4.4528099999999995 -0.86071 0 3.189003466266629 -0.08799127511988726 0
          2.897781318804631 0.0002599684200425591 0 2.897634844579853 0 0
          4.4528099999999995 -0.86071 0 3.1888358881555465 -0.08795441751320127 0
          2.8978314311661664 0.0002461768347500684 0 2.8976462177406996 0 0
          4.4528099999999995 -0.86071 0 3.1894851406679128 -0.08805358673871885 0
          2.8973678757298957 0.0003448862979293873 0 2.8977678622368397 0 0
          4.4528099999999995 -0.86071 0 3.190436852919046 -0.08854383121815156 0
          2.8985271366120244 0.00013569146589829744 0 2.8968267640403655 0 0
          4.4528099999999995 -0.86071 0 3.205016955010906 -0.09602530693727777 0
          2.900151176630363 -0.00023589227099705772 0 2.8983242904562703 0 0
          4.4528099999999995 -0.86071 0 3.2159731085240173 -0.11664301188056259 0
          2.916200307092613 -0.005067470778562828 0 2.898786996461061 0 0
          2.9 0 0 2.9 0 0
          2.9 0 0 2.9 0 0
          <InformationKey name="L2_NORM_RANGE" location="vtkDataArray" length="2">
            <Value index="0">
              2.8828455563
            </Value>
            <Value index="1">
              4.535233026
            </Value>
          </InformationKey>
        </DataArray>
        <DataArray type="Float64" Name="Energy" format="ascii" RangeMin="4.88998279019816" RangeMax="7.585636452999999">
          7.585636452999999 5.396434951991338 7.585636452999999 5.4475456423819075 4.88998279019816 4.915226535267625
          7.585636452999999 5.463682758228578 4.9106115064418105 4.9200563488739775 4.919076126953187 7.585636452999999
          5.463325869205143 4.91978748952951 4.918883820718064 4.918861701672484 7.585636452999999 5.463082405111366
          4.918591735322448 4.9187411217874475 7.585636452999999 5.462738346553663 4.918693731437576 4.918769073973932
          7.585636452999999 5.464031354935702 4.917775314827128 4.919006968133161 7.585636452999999 5.466048461927943
          4.920060434989247 4.917176165969395 7.585636452999999 5.495586978832087 4.923167453876774 4.920114617681823
          7.585636452999999 5.514892988593226 4.953849733496434 4.92087729623926 4.923 4.923
          4.923 4.923
        </DataArray>
        <DataArray type="Float64" Name="DERPR" format="ascii" RangeMin="-3.787341463414633" RangeMax="2.38386924617852">
          2.38386924617852 1.0090259334557683 2.3316783176639757 1.3319325910677609 0.09664790205134746 0.14740346613708674
          2.317569088564479 1.2994115942626165 -0.0004181466328647687 0.1357474669711071 0.00915293616006562 2.317959263757863
          1.2909977012448728 0.0013573786433886507 0.1312834744532968 -0.0011505339994544819 2.318057021699617 1.2911853445056287
          0.13186442080331343 -0.0008785670487714605 2.3186956576226883 1.2917178792242094 0.13155278473890478 -0.0006034359708545543
          2.3182529768500024 1.2935452159951484 0.13253300939908633 -0.001979046383231943 2.3208710030662423 1.308356210980289
          0.13611947893059081 0.000778599896906998 2.2823440434691196 1.3296301187242356 0.1633821913104073 0.003250135743066327
          -0.03120173553634477 0.983418057941171 0.169361615561125 0.024781273894458004 -3.787341463414633 -1.032157478030437
          -0.17165516329662653 -0.0106759925277351
        </DataArray>
        <DataArray type="Float64" Name="MORPR" NumberOfComponents="3" format="ascii" RangeMin="0.001702920566926528" RangeMax="10.952858930067485">
          5.788138105095852 -2.629882426084405 0 2.83306329555909 -0.7096578906448767 0
          5.66832606565915 -2.565018187341431 0 3.744853012757254 -0.9051060618262291 0
          0.28419996872469894 -0.07337035195646345 0 0.42384431111765286 -0.11301660205230565 0
          5.6291426506486015 -2.5493841453058885 0 3.667768072924635 -0.8630188578554107 0
          0.0016558841706521927 -0.003329826897645091 0 0.39638062306751026 -0.09316467312119592 0
          0.028470967962950504 -0.010707500888143323 0 5.629939906421852 -2.5501630378480793 0
          3.6430599308573863 -0.85415370831099 0 0.004258737520645942 -0.001757494451628074 0
          0.38292823629850936 -0.08702484284758812 0 -0.0035130891046440942 0.0009777399863412648 0
          5.630199020790079 -2.5503358279440906 0 3.6433684195962206 -0.8546888696853776 0
          0.384579750150579 -0.08801673874946246 0 -0.0026361493989228266 0.0004435857235252332 0
          5.632196513002995 -2.550554148102114 0 3.6451282182810387 -0.8548285981323724 0
          0.38355106765091745 -0.0878599182615444 0 -0.0016782616307394152 0.0002887496425092952 0
          5.631312523718461 -2.5503540306820396 0 3.6511502630049977 -0.8571200433515258 0
          0.3868521138462504 -0.08856102321962384 0 -0.006212436851948819 0.0007200638081900109 0
          5.640983438418558 -2.554007919351102 0 3.694282284403993 -0.8766693761914833 0
          0.398308674277791 -0.09086367537731554 0 0.0030664893049659977 -0.00047978505183023584 0
          5.506805436386291 -2.565650252268739 0 3.7252624773233336 -0.9473631678748053 0
          0.4793502387442388 -0.11462782319058075 0 0.010248691821183518 -0.0013338464056326838 0
          -0.043222519802417585 0.3099515807472229 0 2.6882760712628797 -0.6808131918938839 0
          0.48145980564994584 -0.12980824904463803 0 0.07408129892081436 -0.017797383409683114 0
          -8.750752371893636 6.5870670003998715 0 -2.226261326723145 2.3400044880216395 0
          -0.4810810359483942 0.2289775358185187 0 -0.03453322429119617 0.01320672646501185 0
          <InformationKey name="L2_NORM_RANGE" location="vtkDataArray" length="2">
            <Value index="0">
              0.0017029205669
            </Value>
            <Value index="1">
              10.95285893
            </Value>
          </InformationKey>
        </DataArray>
        <DataArray type="Float64" Name="ENRPR" format="ascii" RangeMin="-16.59554166851231" RangeMax="10.700153669332442">
          10.700153669332442 5.210068550323015 10.476952208993497 6.885717188226151 0.5210507773148093 0.7677402592394339
          10.40200893355695 6.737639375351218 0.008088712320928074 0.7078790790107833 0.05924225765590409 10.403778323777628
          6.69039036288278 0.008522345953904427 0.6808761377673735 -0.007390956885133154 10.40426416109324 6.69117781037428
          0.6846167967760871 -0.004875065992690018 10.408021509485277 6.694423296209878 0.6825946855986036 -0.0028938617999759997
          10.406870776501586 6.707438419250075 0.6889305364602587 -0.011808692892859162 10.427171503091436 6.795940121975352
          0.7117511030232639 0.006427456000621146 10.172153444138118 6.871490223412728 0.8679217383716459 0.01979090923483072
          0.1272991204779818 4.895779145261427 0.8664640600643594 0.14009469345400224 -16.59554166851231 -4.518571533583044
          -1.0078544937457758 -0.07221482611416885
        </DataArray>
      </PointData>
      <CellData>
        <DataArray type="UInt8" Name="vtkGhostType" format="ascii" RangeMin="0" RangeMax="0">
          0 0 0 0 0 0
          0 0 0 0 0 0
          0 0 0 0 0 0
          0 0 0 0 0 0
          0 0 0 0 0 0
          0 0 0 0 0 0
          0 0 0 0 0 0
          0 0 0 0 0 0
          0 0 0 0 0 0
          0 0 0 0 0 0
        </DataArray>
        <DataArray type="Float64" Name="sgvis" format="ascii" RangeMin="0.3794998340111445" RangeMax="0.487537533510659">
          0.4869279827375791 0.486397266117672 0.4870811215741958 0.4865354379287369 0.4869242917259793 0.48713359310802873
          0.486970506041547 0.4870343411777477 0.48696696607689016 0.4870660625333325 0.4869672958382345 0.48705878107558975
          0.4869654274900648 0.48705442551942235 0.4869550806369439 0.48702895833468984 0.48701707963534524 0.487114885888987
          0.4870982616055797 0.487537533510659 0.484721170271044 0.4778577880152779 0.4862366973846921 0.4700439484625486
          0.48648921803939527 0.4739227238771502 0.4863161893993443 0.47471172744964085 0.48634456122732006 0.47467243269754933
          0.48634324564688625 0.4746768928475755 0.48634022364817 0.4746722753911672 0.4863389646774898 0.474663113531015
          0.486554868429401 0.47493033613158087 0.4865810651302125 0.4755937073773595 0.45827314797666596 0.4576730790824284
          0.45993229604297203 0.3794998340111445 0.4611491455002916 0.38184681087693556 0.4614958835404326 0.3821610424373318
          0.4614020271439998 0.38217039358870225 0.4614171343528962 0.38218474873383707 0.4614153439455254 0.3821823744859894
          0.4614149818449892 0.38217966129639 0.4615130682042887 0.3821655623215766 0.46130470262877854 0.38233857038353936
        </DataArray>
        <DataArray type="Float64" Name="sgtco" format="ascii" RangeMin="0.3794998340111445" RangeMax="0.487537533510659">
          0.4869279827375791 0.486397266117672 0.4870811215741958 0.4865354379287369 0.4869242917259793 0.48713359310802873
          0.486970506041547 0.4870343411777477 0.48696696607689016 0.4870660625333325 0.4869672958382345 0.48705878107558975
          0.4869654274900648 0.48705442551942235 0.4869550806369439 0.48702895833468984 0.48701707963534524 0.487114885888987
          0.4870982616055797 0.487537533510659 0.484721170271044 0.4778577880152779 0.4862366973846921 0.4700439484625486
          0.48648921803939527 0.4739227238771502 0.4863161893993443 0.47471172744964085 0.48634456122732006 0.47467243269754933
          0.48634324564688625 0.4746768928475755 0.48634022364817 0.4746722753911672 0.4863389646774898 0.474663113531015
          0.486554868429401 0.47493033613158087 0.4865810651302125 0.4755937073773595 0.45827314797666596 0.4576730790824284
          0.45993229604297203 0.3794998340111445 0.4611491455002916 0.38184681087693556 0.4614958835404326 0.3821610424373318
          0.4614020271439998 0.38217039358870225 0.4614171343528962 0.38218474873383707 0.4614153439455254 0.3821823744859894
          0.4614149818449892 0.38217966129639 0.4615130682042887 0.3821655623215766 0.46130470262877854 0.38233857038353936
        </DataArray>
        <DataArray type="Float64" Name="MOSGS" NumberOfComponents="3" format="ascii" RangeMin="0" RangeMax="0.32660279084195165">
          6.91300441271373e-310 6.91300441271373e-310 4.68364766048817e-310 -0.006991836069755456 0.0020460599597491315 0
          -0.006382064634639858 -0.00009614362680380757 0 -0.010593101551737746 0.002548672128472031 0
          -0.010442678840486178 0.0025371383516120394 0 -0.007288425290553046 0.0017736113786964505 0
          -0.016294137775838796 0.003806797313677057 0 -0.008024037403025482 0.0017379640988620295 0
          -0.014724639860314163 0.003372087690168413 0 -0.007316839496418721 0.0016946899188361865 0
          -0.015147345460778193 0.003465481005791337 0 -0.007464628170037781 0.001703959231964838 0
          -0.014896423675864984 0.003402286917665874 0 -0.007404720440093776 0.0016691117329318689 0
          -0.014965849923886606 0.003411564081250938 0 -0.007806144765616996 0.001819339599389091 0
          -0.01531205336589345 0.003606447416727849 0 -0.009079518672042725 0.0025031502995436455 0
          -0.014769079732479495 0.0036214048065941326 0 -0.00597260660464307 0.00149510780815229 0
          -0.00910897761947372 0.00205437260880606 0 -0.002946159707592419 -0.0002843250687975356 0
          -0.1235656797591167 0.010972621560171494 0 -0.03511215566429143 0.009079417980871923 0
          -0.07457264328098928 0.011175542265596422 0 -0.04270540539590344 0.009458707402614275 0
          -0.09563427760075967 0.0216002435731959 0 -0.04042277909819114 0.008714192725633632 0
          -0.10181949511753252 0.02294435179333528 0 -0.040895322734513025 0.008749780939755206 0
          -0.10097763937953723 0.02270057693010072 0 -0.0405484757768961 0.008684619905532844 0
          -0.10124798864047738 0.02271683977128919 0 -0.04062740264691718 0.0086856552389543 0
          -0.10117985725432496 0.022703916695658227 0 -0.04157566167213837 0.009083799949204927 0
          -0.10159626053874993 0.02288777629793375 0 -0.04380938152516957 0.010149172351008706 0
          -0.10034828303613735 0.02252115349005989 0 -0.0242422993624668 0.005645453200827211 0
          -0.08086529746206897 0.0161647495923155 0 0.2136652885649193 -0.10151004912001298 0
          -0.279808551627011 0.16845342805103708 0 0.1248810866767931 -0.03578077612363846 0
          0.14935043535859202 -0.06162569101634144 0 0.11386540543202384 -0.025879412292251762 0
          0.04459187700987742 -0.0074712770820263875 0 0.11029158232898234 -0.02469620379581719 0
          0.04618868201321155 -0.009868836694703547 0 0.11116167426904762 -0.024844294534866147 0
          0.047242593044490334 -0.010362525458673085 0 0.11093407211171927 -0.02485081455770835 0
          0.047417474715030605 -0.010420132569940116 0 0.11097796014020048 -0.024859671781685168 0
          0.04746712072363477 -0.010423081819388322 0 0.11046928758560214 -0.024632168450018352 0
          0.047468727475635755 -0.010444979080862993 0 0.11317443607517008 -0.02520195055783417 0
          0.04634329891465791 -0.009986597854440157 0 0.1389493348296486 -0.03350268820754888 0
          0.043922072664539624 -0.008205310232761985 0
          <InformationKey name="L2_NORM_RANGE" location="vtkDataArray" length="2">
            <Value index="0">
              0
            </Value>
            <Value index="1">
              0.32660279084
            </Value>
          </InformationKey>
        </DataArray>
        <DataArray type="Float64" Name="CORES" format="ascii" RangeMin="-3.7873414634146334" RangeMax="2.439531133205291">
          0.018160959072853977 -0.03951294412832418 0.0018362281149562065 0.054346634495563824 0.003245429015024115 0.0046687500992186595
          -0.0033300204520685384 0.0024203911277654168 -0.0004418366850789113 -0.00216528201254838 -0.0007521659214191345 -0.000616305306065617
          -0.0007487946227104912 -0.0011347406021847552 -0.0007169472059507243 -0.0019858601697022304 -0.0016204633888436957 0.006409546524960368
          -0.00041814663286476866 0.029497418501905334 0.29521361223236386 -0.7706661183512613 0.32651240716483887 0.3614488820024233
          0.26999958805990687 0.3229294111394969 0.26802283163703944 0.2683597642374544 0.26347110710821287 0.2667789087839595
          0.26487590294109153 0.26419300302330734 0.2643762838139807 0.2644374304655592 0.2628782609652074 0.2643155780192684
          0.26258707649386714 0.2853126041575859 0.26086438502005205 0.32668271129343485 1.4615350692271685 -3.7873414634146334
          2.320776634235332 2.2322011875784304 2.3520599626097107 2.2940543085935974 2.320290720973799 2.3164987379954183
          2.3198505220001815 2.3179694715807897 2.3177476793557785 2.3182669792870936 2.317702568807058 2.3181564064559783
          2.3171364543120525 2.318018816010553 2.3492755984693448 2.317551995370832 2.439531133205291 2.328207359151749
        </DataArray>
        <DataArray type="Float64" Name="MORES" NumberOfComponents="3" format="ascii" RangeMin="0.0011868106015680872" RangeMax="10.690216756503759">
          0.05286098119174416 -0.009447734266980479 0 -0.12189357674430093 0.03584476679884654 0
          0.0048831533041024345 -0.0005545610719293623 0 0.16448542079261164 -0.04356051783423377 0
          0.01136122488737232 -0.00026812140981319284 0 0.014500331718346988 -0.0031821275108068403 0
          -0.010679212616794848 0.0005757436468995598 0 0.008518738887925833 -0.0017484474737983458 0
          -0.0011435871308702688 0.00031737655569104577 0 -0.006814965344893802 0.0012705837962758554 0
          -0.0021611894363895885 0.00033306989725429817 0 -0.0017302060597516235 0.0002174958868687657 0
          -0.002289778902213143 0.0002917995048486778 0 -0.003457662088671303 0.0007080707157054034 0
          -0.002440165865685512 0.0001059776692984743 0 -0.005809116134739089 0.0025385959536706765 0
          -0.004598320842647837 0.0013984384220523437 0 0.019812929990710586 -0.006783329586625648 0
          0.0016536263282479818 -0.003321524934603174 0 0.08836321966124433 -0.030257408077198615 0
          0.8441181229830055 -0.19850771018359897 0 -2.1657306505341727 0.821428208985725 0
          0.9525752399526144 -0.2397191373122768 0 0.9693421598786396 -0.38666015683977806 0
          0.7832095378253607 -0.19664139338142483 0 0.9369082203032255 -0.26312211263786306 0
          0.7778266316864055 -0.194393006066516 0 0.7770338797434352 -0.20165458833191652 0
          0.7626185333923637 -0.19198847125896187 0 0.7724290287519029 -0.19808336607207916 0
          0.7672835127876747 -0.1928896893028 0 0.7638566466645047 -0.19673004279940026 0
          0.7656072129495837 -0.19241470646372133 0 0.7647030073369261 -0.19678325388132317 0
          0.7613872311207253 -0.19020274348580313 0 0.7648510357488635 -0.1959602739876313 0
          0.7621213901556163 -0.19447205131360976 0 0.8259387886233582 -0.22160290461099072 0
          0.7589463532077378 -0.20053334706535458 0 0.9044900711581665 -0.2901127443431354 0
          3.7815836323500274 -1.0664182318873077 0 -8.749929492991942 6.141617715936373 0
          6.140077993617143 -2.017740011235092 0 5.659313179482484 -2.1847728216218334 0
          6.328279913929123 -1.9079150260448305 0 5.859167263123185 -2.1745431490353555 0
          6.239969608951162 -1.856786262522805 0 5.9214067484537285 -2.192899817022607 0
          6.238551681669023 -1.8520806178701579 0 5.925091780916182 -2.1950588453116406 0
          6.231471123212212 -1.8513348885239767 0 5.9261606641460105 -2.1954289321863283 0
          6.231457737992589 -1.8512074553322602 0 5.925810126080354 -2.1953128322771596 0
          6.230494988127139 -1.8497839617504683 0 5.925389633940279 -2.195249673714777 0
          6.323720239592824 -1.8815708619125353 0 5.924347005561172 -2.1941679792563926 0
          6.531341133046188 -1.9953751492687735 0 5.955232706052962 -2.1998976131177246 0
          <InformationKey name="L2_NORM_RANGE" location="vtkDataArray" length="2">
            <Value index="0">
              0.0011868106016
            </Value>
            <Value index="1">
              10.690216757
            </Value>
          </InformationKey>
        </DataArray>
        <DataArray type="Float64" Name="ENRES" format="ascii" RangeMin="-16.200370634359214" RangeMax="12.041488581654942">
          0.09506085019321468 -0.23937052725199404 0.008541030491082017 0.3168321614513683 0.022670585132728238 0.028158640051376575
          -0.02052937302608196 0.017145704885913438 -0.0018711301304759598 -0.01303071676728769 -0.003818814848847698 -0.0029946471663908174
          -0.004320475066056326 -0.006489163768691689 -0.005765865700051025 -0.012089905979490521 -0.008110577123983338 0.03944278691042541
          0.008081033875237162 0.17785937102400967 1.5153928007618955 -4.263030837594307 1.7404436414593356 1.7890477288700564
          1.4165484091382026 1.7310155271502745 1.4053409845437845 1.4115837644377223 1.3757532843157776 1.4007753761863813
          1.3850231746849415 1.3839889452704517 1.3816351039075874 1.385768268527096 1.372561818165327 1.3855004074435964
          1.3783147827908206 1.5046429104771384 1.3878345834796102 1.657331781728089 6.708395742245135 -16.200370634359214
          11.341977051554633 10.43979848537959 11.68186903385964 10.791903622530562 11.494828190532404 10.907854224188998
          11.48777762140436 10.915255475614282 11.474028868439639 10.917532464304813 11.474236265406098 10.916825232625113
          11.471810947988772 10.9160632725555 11.649010201726034 10.913697962258642 12.041488581654942 10.96916159425476
        </DataArray>
      </CellData>
      <Points>
        <DataArray type="Float32" Name="Points" NumberOfComponents="3" format="ascii" RangeMin="0" RangeMax="4.2201894765504395">
          4.099999904632568 1 0 4.099999904632568 0.6666666865348816 0
          3.690000057220459 1 0 3.690000057220459 0.6666666865348816 0
          4.099999904632568 0.3333333134651184 0 3.690000057220459 0.3333333134651184 0
          3.2799999713897705 1 0 3.2799999713897705 0.6666666865348816 0
          4.099999904632568 0 0 3.2799999713897705 0.3333333134651184 0
          3.690000057220459 0 0 2.869999885559082 1 0
          2.869999885559082 0.6666666865348816 0 3.2799999713897705 0 0
          2.869999885559082 0.3333333134651184 0 2.869999885559082 0 0
          2.4600000381469727 1 0 2.4600000381469727 0.6666666865348816 0
          2.4600000381469727 0.3333333134651184 0 2.4600000381469727 0 0
          2.049999952316284 1 0 2.049999952316284 0.6666666865348816 0
          2.049999952316284 0.3333333134651184 0 2.049999952316284 0 0
          1.6399999856948853 1 0 1.6399999856948853 0.6666666865348816 0
          1.6399999856948853 0.3333333134651184 0 1.6399999856948853 0 0
          1.2300000190734863 1 0 1.2300000190734863 0.6666666865348816 0
          1.2300000190734863 0.3333333134651184 0 1.2300000190734863 0 0
          0.8199999928474426 1 0 0.8199999928474426 0.6666666865348816 0
          0.8199999928474426 0.3333333134651184 0 0.8199999928474426 0 0
          0.4099999964237213 1 0 0.4099999964237213 0.6666666865348816 0
          0.4099999964237213 0.3333333134651184 0 0.4099999964237213 0 0
          0 1 0 0 0.6666666865348816 0
          0 0.3333333134651184 0 0 0 0
          <InformationKey name="L2_NORM_RANGE" location="vtkDataArray" length="2">
            <Value index="0">
              0
            </Value>
            <Value index="1">
              4.2201894766
            </Value>
          </InformationKey>
        </DataArray>
      </Points>
      <Cells>
        <DataArray type="Int64" Name="connectivity" format="ascii" RangeMin="0" RangeMax="43">
          39 38 43 38 42 43
          35 34 39 34 38 39
          31 30 35 30 34 35
          27 26 31 26 30 31
          23 22 27 22 26 27
          19 18 23 18 22 23
          15 14 19 14 18 19
          13 9 15 9 14 15
          10 5 13 5 9 13
          8 4 10 4 5 10
          38 37 42 37 41 42
          34 33 38 33 37 38
          30 29 34 29 33 34
          26 25 30 25 29 30
          22 21 26 21 25 26
          18 17 22 17 21 22
          14 12 18 12 17 18
          9 7 14 7 12 14
          5 3 9 3 7 9
          4 1 5 1 3 5
          37 36 41 36 40 41
          33 32 37 32 36 37
          29 28 33 28 32 33
          25 24 29 24 28 29
          21 20 25 20 24 25
          17 16 21 16 20 21
          12 11 17 11 16 17
          7 6 12 6 11 12
          3 2 7 2 6 7
          1 0 3 0 2 3
        </DataArray>
        <DataArray type="Int64" Name="offsets" format="ascii" RangeMin="3" RangeMax="180">
          3 6 9 12 15 18
          21 24 27 30 33 36
          39 42 45 48 51 54
          57 60 63 66 69 72
          75 78 81 84 87 90
          93 96 99 102 105 108
          111 114 117 120 123 126
          129 132 135 138 141 144
          147 150 153 156 159 162
          165 168 171 174 177 180
        </DataArray>
        <DataArray type="UInt8" Name="types" format="ascii" RangeMin="5" RangeMax="5">
          5 5 5 5 5 5
          5 5 5 5 5 5
          5 5 5 5 5 5
          5 5 5 5 5 5
          5 5 5 5 5 5
          5 5 5 5 5 5
          5 5 5 5 5 5
          5 5 5 5 5 5
          5 5 5 5 5 5
          5 5 5 5 5 5
        </DataArray>
      </Cells>
    </Piece>
  </UnstructuredGrid>
</VTKFile>
