<?xml version="1.0"?>
<VTKFile type="UnstructuredGrid" version="0.1" byte_order="LittleEndian" header_type="UInt32" compressor="vtkZLibDataCompressor">
  <UnstructuredGrid>
    <Piece NumberOfPoints="44" NumberOfCells="60">
      <PointData>
        <DataArray type="Float64" Name="Density" format="ascii" RangeMin="0.9917556730167388" RangeMax="1.7">
          1.7 1.2883095561812807 1.7 1.3064832042212104 1.0212810278343585 1.034123804118977
          1.7 1.3099007865483443 0.9917556730167388 1.0355045394932103 1.0008053182391827 1.7
          1.3095181935642624 1.0001120026336805 1.0345608606894543 0.9986875996860466 1.7 1.3094624400508788
          1.0343635013241992 0.9986002082035144 1.7 1.3098873703935492 1.0345021495359732 0.9985341140353003
          1.7 1.3112669924932339 1.0356633249137448 0.9985684088090071 1.7 1.3129994459214707
          1.039760528749082 0.9998344767831279 1.7 1.3070832209875138 1.0462012240061793 1.0042584213090566
          1.7 1.2563109533855288 1.0417047956061578 1.0087555158172548 1 1
          1 1
        </DataArray>
        <DataArray type="Float64" Name="Momentum" NumberOfComponents="3" format="ascii" RangeMin="2.876220996489574" RangeMax="4.535233026008696">
          4.4528099999999995 -0.86071 0 3.6844647690309253 -0.24216128713393112 0
          4.4528099999999995 -0.86071 0 3.72021341879317 -0.2588145911443522 0
          2.9645245609075124 -0.013997054471625556 0 2.9968232141089994 -0.026371015942605144 0
          4.4528099999999995 -0.86071 0 3.7288771748788245 -0.26358411129691545 0
          2.8762130034953914 0.006780794311683255 0 3.0017687027941924 -0.027793955677749616 0
          2.9020168359027174 0 0 4.4528099999999995 -0.86071 0
          3.7282290077897535 -0.2630776526120793 0 2.9004300311753615 0 0
          2.9995316978082562 -0.026276435543335648 0 2.896309978781022 0 0
          4.4528099999999995 -0.86071 0 3.728099484503919 -0.26294275463383476 0
          2.998860497810362 -0.02601679074453103 0 2.8958955889853164 0 0
          4.4528099999999995 -0.86071 0 3.72951407856893 -0.26334316359278626 0
          2.999326516043509 -0.02613136775036575 0 2.8956700903803254 0 0
          4.4528099999999995 -0.86071 0 3.733620189952815 -0.2655320136456421 0
          3.0031697481252393 -0.02685382608264985 0 2.8958694254065507 0 0
          4.4528099999999995 -0.86071 0 3.735680397500565 -0.272356889682366 0
          3.01575711043572 -0.030036452890369974 0 2.9000446886904174 0 0
          4.4528099999999995 -0.86071 0 3.7052441317404514 -0.2799811299221636 0
          3.032745602916764 -0.03669134540923933 0 2.9134300435940754 0 0
          4.4528099999999995 -0.86071 0 3.543651520212322 -0.24726448577555543 0
          3.014381121166002 -0.03649799640028915 0 2.925402115534211 0 0
          2.9 0 0 2.9 0 0
          2.9 0 0 2.9 0 0
          <InformationKey name="L2_NORM_RANGE" location="vtkDataArray" length="2">
            <Value index="0">
              2.8762209965
            </Value>
            <Value index="1">
              4.535233026
            </Value>
          </InformationKey>
        </DataArray>
        <DataArray type="Float64" Name="Energy" format="ascii" RangeMin="4.879478261368996" RangeMax="7.585636452999999">
          7.585636452999999 6.393465904874404 7.585636452999999 6.451637800049297 5.039834107722125 5.098469195392519
          7.585636452999999 6.467838236579826 4.879478261368996 5.107981845784444 4.927494542397805 7.585636452999999
          6.466770027790789 4.924290093326845 5.103640293569533 4.91617317495927 7.585636452999999 6.466544228195173
          5.102320500701969 4.915356411488997 7.585636452999999 6.469516339463376 5.103238573321115 4.914959806848688
          7.585636452999999 6.4784511645521405 5.110915317982011 4.91536707807542 7.585636452999999 6.483683742330821
          5.135938224411133 4.923513926397184 7.585636452999999 6.421005355111019 5.1688783773545435 4.948960715396715
          7.585636452999999 6.099743777816282 5.133021819256725 4.97044281953321 4.923 4.923
          4.923 4.923
        </DataArray>
        <DataArray type="Float64" Name="DERPR" format="ascii" RangeMin="-3.787341463414633" RangeMax="1.8742622799934123">
          1.8742622799934123 1.1635433659697465 1.8079605906407468 1.2996263638111045 0.3488099587376356 0.43096038727899183
          1.791357338869454 1.2578716819361415 0.12526972918651502 0.3969931510903007 0.11946759605421262 1.7929268159608003
          1.2505543140138768 0.0813399367651342 0.3911847780918219 0.07484159319261585 1.7940515829053125 1.2533494295906522
          0.3940978950441074 0.07724409933609053 1.7932501400980865 1.258851954186346 0.3993925631680375 0.07863713948328223
          1.780384226383251 1.2638298299709332 0.415880737339516 0.08652019081974872 1.7326903349443437 1.2337432963099313
          0.4403657292987925 0.11143729380647475 1.643527324937022 1.0599921172087308 0.41076586265421117 0.13784673073762396
          -0.5588499222053473 0.4134099594122196 0.18497198018637037 0.08383814158112389 -3.787341463414633 -1.69558940407539
          -0.4985130564748445 -0.11572036175439449
        </DataArray>
        <DataArray type="Float64" Name="MORPR" NumberOfComponents="3" format="ascii" RangeMin="0.22077515465608508" RangeMax="10.883431402763204">
          4.413623818062298 -1.9880582666557316 0 3.159644844822401 -1.0013234784464915 0
          4.280026747861494 -1.9138444455466443 0 3.5304955823306416 -1.0671445840768399 0
          1.0054425875734023 -0.26235486825537757 0 1.2315452390882302 -0.3294156921510464 0
          4.236462179844653 -1.892920450618614 0 3.44098735455349 -1.0198079116943737 0
          0.37136573628242386 -0.08116922566572751 0 1.1541138873642003 -0.28720571944472983 0
          0.3443297974660181 -0.08520310105723296 0 4.239528599467164 -1.8950829996759058 0
          3.4210284280161587 -1.0090810119622402 0 0.23836554819897615 -0.04815571155110312 0
          1.1355755331665864 -0.27799152975421415 0 0.2166091442481733 -0.042686620169466956 0
          4.2431465551289635 -1.895970663526468 0 3.4290936031716726 -1.0121382493765367 0
          1.1433164904243378 -0.28257452409997685 0 0.22329566068245282 -0.04566750352693836 0
          4.241594174486731 -1.8958519608856885 0 3.4466375899282267 -1.0192244494839027 0
          1.1610734559477385 -0.28620942794754856 0 0.2284340331928 -0.04657340934693752 0
          4.203124626596133 -1.8914850110796146 0 3.454807982131534 -1.0389834164289593 0
          1.2133933199106615 -0.29837158729768276 0 0.25441637423832975 -0.049194017949422075 0
          4.058602118673353 -1.8680267341690566 0 3.3264055784240485 -1.0551967845354882 0
          1.2798605885944176 -0.32408440658277954 0 0.3315381982185923 -0.05899607750310997 0
          3.7920192570847044 -1.8354482208710252 0 2.75414116158395 -0.9346244856415296 0
          1.1600624275041798 -0.31893835531673437 0 0.40201600977663743 -0.07331600436435987 0
          -1.386467284697389 0.8936864706630828 0 1.0214120052282272 -0.23256268570248137 0
          0.4865305146082277 -0.12897688177787878 0 0.2261136279077772 -0.0540281948406313 0
          -8.72922622011753 6.499976053545495 0 -3.9596501885109263 3.0537590666889862 0
          -1.3483917413444229 0.627636740949125 0 -0.34450570872507996 0.10293518594914051 0
          <InformationKey name="L2_NORM_RANGE" location="vtkDataArray" length="2">
            <Value index="0">
              0.22077515466
            </Value>
            <Value index="1">
              10.883431403
            </Value>
          </InformationKey>
        </DataArray>
        <DataArray type="Float64" Name="ENRPR" format="ascii" RangeMin="-16.42998815317402" RangeMax="7.987655547673402">
          7.987655547673402 5.90908588792589 7.759069991703045 6.5966579122115485 1.8354943404924564 2.2338432308508858
          7.675807592089767 6.440322263668536 0.6904359117485024 2.0867585110077154 0.633324028550006 7.68140038231694
          6.401640271647777 0.4255284906858759 2.0502834471625073 0.38436746983455866 7.688619577823611 6.417834148121627
          2.0660550943604075 0.399998842498541 7.686591186346189 6.455645272408841 2.1014580972611374 0.410057777024297
          7.613039979440095 6.478520348501584 2.2067735559750443 0.4607873806024467 7.330264603376041 6.222572572136819
          2.339550666104448 0.6098930082438447 6.824535597236202 5.068370233153789 2.1006806653485826 0.7387396961231636
          -2.3846995118433925 1.7637806804840563 0.8038455283196753 0.39312948511003626 -16.42998815317402 -7.756389415320411
          -2.686570766942316 -0.676641803176957
        </DataArray>
      </PointData>
      <CellData>
        <DataArray type="UInt8" Name="vtkGhostType" format="ascii" RangeMin="0" RangeMax="0">
          0 0 0 0 0 0
          0 0 0 0 0 0
          0 0 0 0 0 0
          0 0 0 0 0 0
          0 0 0 0 0 0
          0 0 0 0 0 0
          0 0 0 0 0 0
          0 0 0 0 0 0
          0 0 0 0 0 0
          0 0 0 0 0 0
        </DataArray>
        <DataArray type="Float64" Name="sgvis" format="ascii" RangeMin="0.3720604437454047" RangeMax="0.48729643286802893">
          0.48622145063035394 0.4835844238917084 0.486761567844438 0.4809754958936753 0.48703337821772363 0.4823047465097513
          0.48695352829516825 0.48316851861579313 0.48686837892887014 0.48334389184711046 0.48687172351165975 0.48334858726702934
          0.4868708907599665 0.48333514762643626 0.4868008107753111 0.4832207827414573 0.4868646759178389 0.4832027030601522
          0.48729643286802893 0.48406221114951375 0.4787963195471826 0.4705693207477504 0.48001065855412395 0.44396446787722454
          0.48146136415147833 0.4458379796051261 0.4818094584755357 0.44838673910754956 0.4817419594611304 0.44921310003758985
          0.48168758255229716 0.4493362954391401 0.48167403216762117 0.44933415947237576 0.48164527536199286 0.44930011125233915
          0.4819232294799076 0.4494239708140355 0.4825917479253363 0.45024236331059175 0.4567381843792352 0.45388437186777253
          0.4510721944106101 0.3720604437454047 0.45295288958372026 0.37254631191560417 0.4541203501889761 0.3732074535091201
          0.45434923036611874 0.3734671850967893 0.4543384002005699 0.3735195215369773 0.4543201522114565 0.3735303305254044
          0.454314502169022 0.37352488645929355 0.4544143445748904 0.37348886041809704 0.45456289673030537 0.3737785139979767
        </DataArray>
        <DataArray type="Float64" Name="sgtco" format="ascii" RangeMin="0.3720604437454047" RangeMax="0.48729643286802893">
          0.48622145063035394 0.4835844238917084 0.486761567844438 0.4809754958936753 0.48703337821772363 0.4823047465097513
          0.48695352829516825 0.48316851861579313 0.48686837892887014 0.48334389184711046 0.48687172351165975 0.48334858726702934
          0.4868708907599665 0.48333514762643626 0.4868008107753111 0.4832207827414573 0.4868646759178389 0.4832027030601522
          0.48729643286802893 0.48406221114951375 0.4787963195471826 0.4705693207477504 0.48001065855412395 0.44396446787722454
          0.48146136415147833 0.4458379796051261 0.4818094584755357 0.44838673910754956 0.4817419594611304 0.44921310003758985
          0.48168758255229716 0.4493362954391401 0.48167403216762117 0.44933415947237576 0.48164527536199286 0.44930011125233915
          0.4819232294799076 0.4494239708140355 0.4825917479253363 0.45024236331059175 0.4567381843792352 0.45388437186777253
          0.4510721944106101 0.3720604437454047 0.45295288958372026 0.37254631191560417 0.4541203501889761 0.3732074535091201
          0.45434923036611874 0.3734671850967893 0.4543384002005699 0.3735195215369773 0.4543201522114565 0.3735303305254044
          0.454314502169022 0.37352488645929355 0.4544143445748904 0.37348886041809704 0.45456289673030537 0.3737785139979767
        </DataArray>
        <DataArray type="Float64" Name="MOSGS" NumberOfComponents="3" format="ascii" RangeMin="0" RangeMax="0.26516744432185213">
          6.91300441270424e-310 6.91300441270424e-310 4.6836477020466e-310 0.000254598755882577 -0.001622661642766891 0
          -0.023796320168545264 0.0032899155306405307 0 -0.011199712745024869 0.004991115966653306 0
          -0.027256204990040053 0.0065026802946931 0 -0.017676355363148495 0.005610521429413004 0
          -0.029162400603157706 0.007340506687735552 0 -0.019178644829216617 0.00496800963894669 0
          -0.033301521731086366 0.008537138478466055 0 -0.01842302453477011 0.0045963315007984725 0
          -0.03506949805975548 0.008959528555926416 0 -0.01776503108319726 0.004469318472254907 0
          -0.03521310111257545 0.008961274131490246 0 -0.017383145892310825 0.004288170140005649 0
          -0.03523120997838632 0.00895014734334 0 -0.018841861727012417 0.004534542910733126 0
          -0.03565576253023242 0.00947364978704781 0 -0.02227777191067413 0.006363850022259693 0
          -0.0338945621015123 0.009386772760496239 0 -0.011696895526715406 0.003494933611474285 0
          -0.024092254151100008 0.005365433703175632 0 0.053700901639064734 -0.018546643263930275 0
          -0.15898482585773976 0.033301645613905334 0 0.02577638933159311 -0.00715507768881252 0
          -0.051874817106113476 0.007326270135535602 0 0.016108968065624035 -0.0042534729137337045 0
          -0.035724980928881815 0.004632182273581417 0 0.009866770428486216 -0.003113253859361899 0
          -0.03378258432417209 0.006451987038728631 0 0.0076850487851470445 -0.0029774621735286985 0
          -0.034564217403620645 0.007439066770965334 0 0.007605040416819253 -0.0031044607143314203 0
          -0.03495161680829063 0.007610281608831501 0 0.007634925147322218 -0.0031645925085679698 0
          -0.0349941903218838 0.007617603589160816 0 0.006051020171257776 -0.002264499313501884 0
          -0.03519963048519825 0.007816989002956895 0 0.0041621882611182215 -0.0010703656233811178 0
          -0.03475718687308117 0.00715179531518368 0 0.0220784887664162 -0.0062062748002240965 0
          -0.026874814655709955 0.003764068153921319 0 0.12188141308816587 -0.06385625122543417 0
          -0.22322760231311595 0.1431195692200054 0 0.03871248225800569 -0.014118136668994216 0
          0.17286274163351134 -0.07290978270045956 0 0.05009351179998288 -0.015342309083014552 0
          0.03848740252993099 -0.006150347234305377 0 0.05534892951510348 -0.013568659087765538 0
          0.024649053249531296 -0.0037195720311584803 0 0.05550258812072592 -0.012494297993787963 0
          0.022134979044253947 -0.004387274407673766 0 0.05503685194958591 -0.012275635861857266 0
          0.022507191111939183 -0.004972655040981001 0 0.0548057727851575 -0.01223647734698715 0
          0.023007218039520785 -0.005175755856712873 0 0.05433319796938928 -0.011903738657037397 0
          0.023193812274291986 -0.005268161543369992 0 0.05715123179189891 -0.013104038393753611 0
          0.022000608280727134 -0.004668450318602515 0 0.07366707456199009 -0.019269028968465572 0
          0.01959155151571329 -0.002821343319589796 0
          <InformationKey name="L2_NORM_RANGE" location="vtkDataArray" length="2">
            <Value index="0">
              0
            </Value>
            <Value index="1">
              0.26516744432
            </Value>
          </InformationKey>
        </DataArray>
        <DataArray type="Float64" Name="CORES" format="ascii" RangeMin="-3.7873414634146334" RangeMax="1.9428381528512406">
          0.047537620798532736 -0.2789783443073217 0.13927422269886858 0.06470258124597039 0.12275657476413926 0.15150939474986402
          0.09074505528913868 0.12081025136614632 0.07888029408130226 0.08993522308880528 0.07750038344109189 0.07953074092745253
          0.0778186076941445 0.07641330687303517 0.07333296709256043 0.07337320479114262 0.07524280030654573 0.09544404289629635
          0.12526972918651502 0.15789025866957712 0.3533209973586091 -1.5698817566154206 0.6850777886606343 0.23817102086561598
          0.7683965124984959 0.6556344130280698 0.7467353031661927 0.7319860614416823 0.7210089819849195 0.7260493252964462
          0.711914379349305 0.7150854746270678 0.7087664359599337 0.7104618390591069 0.7019142156616374 0.7088226137863305
          0.7093927536639848 0.7285014377874675 0.7632697640188606 0.7845224148275262 0.2704549700915857 -3.7873414634146334
          1.3480584636518724 1.8403367267070059 1.6908247129219907 1.7421867844521874 1.790559034074414 1.7650595074588522
          1.8021155942460623 1.7855341376164868 1.796752144855542 1.7921006884317094 1.7925813110002298 1.7933019154286867
          1.7897969499078403 1.792897221453484 1.8268175195396181 1.7913778452470375 1.9428381528512406 1.805686407135584
        </DataArray>
        <DataArray type="Float64" Name="MORES" NumberOfComponents="3" format="ascii" RangeMin="0.13820585029820326" RangeMax="10.647093091956153">
          0.1269253789717456 -0.054688254950474746 0 -0.8156984154639102 0.25781665916385343 0
          0.4020291621222335 -0.06234712007447961 0 0.1479772703956596 -0.05367596543227446 0
          0.36522964529321966 -0.05505325142242369 0 0.43803669426101977 -0.11057122045573214 0
          0.26810439457202184 -0.04960371530687212 0 0.36111100428622334 -0.0783312778264733 0
          0.22942072267851826 -0.04784865926939458 0 0.2655942236048966 -0.0552370555861231 0
          0.22448323327913772 -0.04765292166212606 0 0.23122661678674095 -0.049106919282722886 0
          0.2245467934240195 -0.04795669882834505 0 0.2206846909445207 -0.04625571520153367 0
          0.2105677058315095 -0.04760403422816069 0 0.21450459947752137 -0.03765318894618076 0
          0.21968208265790667 -0.044264106980204665 0 0.2843920150589344 -0.058124332141701845 0
          0.37140424881785183 -0.08246552577767222 0 0.4416099574343779 -0.13237289971692728 0
          0.9825235354214283 -0.23202507736765515 0 -4.23610405526628 1.7367612083134705 0
          1.913318737672105 -0.5847554930867218 0 0.46634242430545103 -0.29679779084780356 0
          2.2004620399837904 -0.6395789403451451 0 1.7524238328186819 -0.6837527770120289 0
          2.1523429827099934 -0.6074494096803162 0 2.0622036937344377 -0.6866846945617063 0
          2.07200476900236 -0.585837975667379 0 2.0663388428767933 -0.6480465511376636 0
          2.041342115926232 -0.5803939399790965 0 2.0334310540883527 -0.6319468806689927 0
          2.0306654298835887 -0.5776760424335461 0 2.0182320096468978 -0.6272295692868648 0
          2.0134731070676777 -0.5671928987061909 0 2.015782246181245 -0.6245714807835345 0
          2.0425072799712787 -0.5793938670805563 0 2.0667148891681935 -0.6592618564149262 0
          2.1792941856378607 -0.6380140627760387 0 2.144464529628862 -0.72955140400795 0
          0.6427667379210495 0.15411053249232548 0 -8.737547840737033 6.084065173846515 0
          3.203639080611093 -1.2475664950140963 0 4.584243965844378 -1.8377288463646677 0
          4.252758099061686 -1.552010483718429 0 4.319570487751911 -1.672628916920937 0
          4.624395841827935 -1.5641369085212993 0 4.368555090181624 -1.6819840292601318 0
          4.679808395014241 -1.5352934134916443 0 4.421760169392669 -1.6992197233749282 0
          4.663793927487045 -1.5227160409075173 0 4.439943057327227 -1.7059135591061714 0
          4.65013677027033 -1.5183989675904381 0 4.443493382630961 -1.7073888712443193 0
          4.644877803462791 -1.5144728869774133 0 4.442339576650645 -1.7072129835050713 0
          4.7441722719065895 -1.5612431637139008 0 4.438749849138547 -1.705101355562795 0
          4.981183015877361 -1.6863163425054761 0 4.479720708613199 -1.7157042965835134 0
          <InformationKey name="L2_NORM_RANGE" location="vtkDataArray" length="2">
            <Value index="0">
              0.1382058503
            </Value>
            <Value index="1">
              10.647093092
            </Value>
          </InformationKey>
        </DataArray>
        <DataArray type="Float64" Name="ENRES" format="ascii" RangeMin="-16.09691055786549" RangeMax="9.164006174381957">
          0.2060672677719011 -1.555622087284032 0.730274306998149 0.24669155240147544 0.6728220190404748 0.8184897825806337
          0.4883691295705084 0.6736163835254287 0.41305062868131515 0.4851974729113353 0.4039234909015005 0.41707012607223726
          0.4035458490047734 0.3963715812690912 0.3715570978103513 0.38206149537729717 0.3909943505409025 0.5175088304513006
          0.6915041704385134 0.819267689319839 1.7530423356757212 -8.171586335462568 3.5189639256955534 0.6590412466419528
          4.084324787235181 3.240081553662481 3.985271785126301 3.874713487369095 3.8211605247650766 3.8747098338845714
          3.7589591743650406 3.8032853256013457 3.7381168811155696 3.7717169542500697 3.7036900514922007 3.767269540361082
          3.7626946979863796 3.8676631241102726 4.025702990744955 3.9799417563204305 0.8624498216000682 -16.09691055786549
          5.667751741102933 8.44044546649712 7.788345867342279 7.899066571546749 8.544647095112134 7.978078662129212
          8.64535789789189 8.07787812046366 8.606817796128528 8.1134891645858 8.578311610733754 8.120743609101416
          8.568686438517336 8.118664717416964 8.758873493491981 8.11174966979257 9.164006174381957 8.188777588823893
        </DataArray>
      </CellData>
      <Points>
        <DataArray type="Float32" Name="Points" NumberOfComponents="3" format="ascii" RangeMin="0" RangeMax="4.2201894765504395">
          4.099999904632568 1 0 4.099999904632568 0.6666666865348816 0
          3.690000057220459 1 0 3.690000057220459 0.6666666865348816 0
          4.099999904632568 0.3333333134651184 0 3.690000057220459 0.3333333134651184 0
          3.2799999713897705 1 0 3.2799999713897705 0.6666666865348816 0
          4.099999904632568 0 0 3.2799999713897705 0.3333333134651184 0
          3.690000057220459 0 0 2.869999885559082 1 0
          2.869999885559082 0.6666666865348816 0 3.2799999713897705 0 0
          2.869999885559082 0.3333333134651184 0 2.869999885559082 0 0
          2.4600000381469727 1 0 2.4600000381469727 0.6666666865348816 0
          2.4600000381469727 0.3333333134651184 0 2.4600000381469727 0 0
          2.049999952316284 1 0 2.049999952316284 0.6666666865348816 0
          2.049999952316284 0.3333333134651184 0 2.049999952316284 0 0
          1.6399999856948853 1 0 1.6399999856948853 0.6666666865348816 0
          1.6399999856948853 0.3333333134651184 0 1.6399999856948853 0 0
          1.2300000190734863 1 0 1.2300000190734863 0.6666666865348816 0
          1.2300000190734863 0.3333333134651184 0 1.2300000190734863 0 0
          0.8199999928474426 1 0 0.8199999928474426 0.6666666865348816 0
          0.8199999928474426 0.3333333134651184 0 0.8199999928474426 0 0
          0.4099999964237213 1 0 0.4099999964237213 0.6666666865348816 0
          0.4099999964237213 0.3333333134651184 0 0.4099999964237213 0 0
          0 1 0 0 0.6666666865348816 0
          0 0.3333333134651184 0 0 0 0
          <InformationKey name="L2_NORM_RANGE" location="vtkDataArray" length="2">
            <Value index="0">
              0
            </Value>
            <Value index="1">
              4.2201894766
            </Value>
          </InformationKey>
        </DataArray>
      </Points>
      <Cells>
        <DataArray type="Int64" Name="connectivity" format="ascii" RangeMin="0" RangeMax="43">
          39 38 43 38 42 43
          35 34 39 34 38 39
          31 30 35 30 34 35
          27 26 31 26 30 31
          23 22 27 22 26 27
          19 18 23 18 22 23
          15 14 19 14 18 19
          13 9 15 9 14 15
          10 5 13 5 9 13
          8 4 10 4 5 10
          38 37 42 37 41 42
          34 33 38 33 37 38
          30 29 34 29 33 34
          26 25 30 25 29 30
          22 21 26 21 25 26
          18 17 22 17 21 22
          14 12 18 12 17 18
          9 7 14 7 12 14
          5 3 9 3 7 9
          4 1 5 1 3 5
          37 36 41 36 40 41
          33 32 37 32 36 37
          29 28 33 28 32 33
          25 24 29 24 28 29
          21 20 25 20 24 25
          17 16 21 16 20 21
          12 11 17 11 16 17
          7 6 12 6 11 12
          3 2 7 2 6 7
          1 0 3 0 2 3
        </DataArray>
        <DataArray type="Int64" Name="offsets" format="ascii" RangeMin="3" RangeMax="180">
          3 6 9 12 15 18
          21 24 27 30 33 36
          39 42 45 48 51 54
          57 60 63 66 69 72
          75 78 81 84 87 90
          93 96 99 102 105 108
          111 114 117 120 123 126
          129 132 135 138 141 144
          147 150 153 156 159 162
          165 168 171 174 177 180
        </DataArray>
        <DataArray type="UInt8" Name="types" format="ascii" RangeMin="5" RangeMax="5">
          5 5 5 5 5 5
          5 5 5 5 5 5
          5 5 5 5 5 5
          5 5 5 5 5 5
          5 5 5 5 5 5
          5 5 5 5 5 5
          5 5 5 5 5 5
          5 5 5 5 5 5
          5 5 5 5 5 5
          5 5 5 5 5 5
        </DataArray>
      </Cells>
    </Piece>
  </UnstructuredGrid>
</VTKFile>
