<?xml version="1.0"?>
<VTKFile type="UnstructuredGrid" version="0.1" byte_order="LittleEndian" header_type="UInt32" compressor="vtkZLibDataCompressor">
  <UnstructuredGrid>
    <Piece NumberOfPoints="13" NumberOfCells="11">
      <PointData>
        <DataArray type="Float64" Name="Disp" NumberOfComponents="3" format="ascii" RangeMin="0" RangeMax="0.08487274956688377">
          0 0 0 0 0 0
          -0.0005315152598785287 0.001723729249524108 0 0.0010922922234700755 0.0016130051702747073 0
          -0.002003972296418478 0.007472770354854679 0 0.002297503827207385 0.007299163070318319 0
          -0.0033983592789465326 0.019374791663391715 0 0.004046742159670104 0.01946666896184513 0
          -0.004658434058567396 0.03671534471589305 0 0.005167568130414293 0.03674318033172106 0
          -0.005746377408872418 0.058710088182516884 0 0.006280167850914655 0.0587670302620182 0
          -0.006607164147173645 0.0846151818586669 0
          <InformationKey name="L2_NORM_RANGE" location="vtkDataArray" length="2">
            <Value index="0">
              0
            </Value>
            <Value index="1">
              0.084872749567
            </Value>
          </InformationKey>
        </DataArray>
        <DataArray type="Float64" Name="Nodal Stress" NumberOfComponents="6" format="ascii" RangeMin="41516.14689119573" RangeMax="2181046.8750614063">
          1905666.607851123 298210.0808761458 0 1018072.1971452524 0 0
          128372.52533622275 -152796.09998392165 0 9437.779293810829 0 0
          -156019.33345866814 -38192.30951497794 0 -35660.267097585995 0 0
          71141.2983554031 26587.286396981675 0 -33599.25500318553 0 0
          14465.103048341845 56747.870876664885 0 43705.69635187194 0 0
          96487.40976069964 23924.287993090464 0 -24648.269380848746 0 0
          -81362.56775617869 -9124.65245601014 0 20115.627463023535 0 0
          57342.91095284156 -11218.982660869971 0 -15488.005076468306 0 0
          -63151.738511700976 -9027.258735959047 0 23531.684886501786 0 0
          50026.89924482577 -8876.154708678452 0 -15612.636896670281 0 0
          -57797.406207049506 -12312.492220646916 0 20466.677335217544 0 0
          37754.21835112044 -13245.093755633967 0 -11080.475657286903 0 0
          -48811.515690278786 -14417.022695803884 0 17741.171073866477 0 0
          <InformationKey name="L2_NORM_RANGE" location="vtkDataArray" length="2">
            <Value index="0">
              41516.146891
            </Value>
            <Value index="1">
              2181046.8751
            </Value>
          </InformationKey>
        </DataArray>
        <DataArray type="Float64" Name="Nodal Strain" NumberOfComponents="6" format="ascii" RangeMin="0.0035990151644042056" RangeMax="0.172705066679375">
          0.1254686833866465 -0.04675880164638685 0 0.10907916397984847 0 0
          0.014626469666298826 -0.015498740189430935 0 0.0010111906386225911 0 0
          -0.009780227050084224 0.0028440969438825797 0 -0.0038207429033127872 0 0
          0.0041319753683508745 -0.0006416687700514183 0 -0.0035999201789127366 0 0
          -0.0009934880278564717 0.003536808525178141 0 0.004682753180557707 0 0
          0.006037518983153887 -0.001737101206232811 0 -0.0026408860050909366 0 0
          -0.005485731537726688 0.002254045101577086 0 0.002155245799609664 0 0
          0.004496600163091182 -0.002849317009806482 0 -0.0016594291153358897 0 0
          -0.004188436367408675 0.0016106150371351026 0 0.0025212519521251916 0 0
          0.0038903554713689277 -0.0024206860236493806 0 -0.001672782524643244 0 0
          -0.0036886542926232893 0.001184729348776988 0 0.002192858285916165 0 0
          0.003169768944924102 -0.0022944430665138705 0 -0.0011871938204235965 0 0
          -0.0029716431673126324 0.0007134810820953934 0 0.0019008397579142655 0 0
          <InformationKey name="L2_NORM_RANGE" location="vtkDataArray" length="2">
            <Value index="0">
              0.0035990151644
            </Value>
            <Value index="1">
              0.17270506668
            </Value>
          </InformationKey>
        </DataArray>
        <DataArray type="Float64" Name="Sld_traction" NumberOfComponents="3" format="ascii" RangeMin="25359.587572587756" RangeMax="243162.9614373674">
          27764.61975041602 -118652.22701836638 0 -242713.57494318747 14776.547407576094 0
          166070.5176307848 84776.85053119676 0 20206.453053044494 -15323.444027595633 0
          44927.86135742722 32764.47797139115 0 76746.43916485323 -26928.16136134369 0
          76824.39020629795 -6517.886066079241 0 58180.0902913842 7254.684589334411 0
          59378.63849819554 -10560.110485603755 0 51004.9296626131 8899.65544010703 0
          54691.907401019875 -12905.130202401831 0 41969.480172240685 12354.291896447729 0
          44697.867367869665 -14889.714255576917 0
          <InformationKey name="L2_NORM_RANGE" location="vtkDataArray" length="2">
            <Value index="0">
              25359.587573
            </Value>
            <Value index="1">
              243162.96144
            </Value>
          </InformationKey>
        </DataArray>
        <DataArray type="Float64" Name="Velocity" NumberOfComponents="3" format="ascii" RangeMin="0" RangeMax="2.3223658210471574">
          0 0 0 0 0 0
          0.02342459295828503 -0.06997841988891373 0 -0.027589595308823656 -0.07571617274449094 0
          0.014410188284821102 -0.1761619227521729 0 -0.011439198746597157 -0.1871526287263383 0
          -0.052282202048595794 -0.13011276683420725 0 0.04691526343032493 -0.13732982348113865 0
          -0.1464003875140345 0.24297695107741646 0 0.14303467272570547 0.23770960223372484 0
          -0.25945958526965196 1.0393294162740467 0 0.25455546082521785 1.039703076304594 0
          -0.36956042262564637 2.292773015541833 0
          <InformationKey name="L2_NORM_RANGE" location="vtkDataArray" length="2">
            <Value index="0">
              0
            </Value>
            <Value index="1">
              2.322365821
            </Value>
          </InformationKey>
        </DataArray>
        <DataArray type="Float64" Name="Acceleration" NumberOfComponents="3" format="ascii" RangeMin="0" RangeMax="665.6118498366842">
          0 0 0 0 0 0
          -29.041611197872044 89.90848840880426 0 44.86824360032256 91.54670933178727 0
          -56.04372290800302 297.7144288538311 0 60.65802034352873 301.7101831660093 0
          -39.56855976597171 535.5849808038583 0 58.34497664533819 542.8846428534707 0
          -0.29870869836759084 661.0345001891837 0 14.488232063879877 665.4541500168707 0
          56.44042534502205 587.1106233723767 0 -40.552334872452775 588.1148811048624 0
          116.07945413334346 273.004296785075 0
          <InformationKey name="L2_NORM_RANGE" location="vtkDataArray" length="2">
            <Value index="0">
              0
            </Value>
            <Value index="1">
              665.61184984
            </Value>
          </InformationKey>
        </DataArray>
        <DataArray type="Float64" Name="Sigma" NumberOfComponents="6" format="ascii" RangeMin="124952.69072055093" RangeMax="5340312.510297948">
          4649976.22215829 955944.3864965931 0 2445982.2507395525 0 0
          -443476.0899503866 -473035.729908599 0 -419315.57400654955 0 0
          -1068499.8789095762 -80702.67552788022 0 -400360.1388915462 0 0
          588032.2670944068 175359.25326440585 0 107502.55742022471 0 0
          63447.500002853914 129085.710275085 0 151881.4106113419 0 0
          157716.92385038847 21795.675979695803 0 -131933.3739926165 0 0
          -258507.7912382859 -35552.51891210464 0 62401.664590741726 0 0
          183680.2160046768 -36063.709349301076 0 -40247.69643887795 0 0
          -169587.35171084615 5228.134111198678 0 59458.27226347898 0 0
          144980.42893479293 -18919.010731637743 0 -56156.38200017691 0 0
          -157237.92616703224 -12305.626075762375 0 56037.07734451555 0 0
          114417.57663742642 -28774.079278691675 0 -41156.353536092975 0 0
          -129481.3650238047 -13889.492391540138 0 44544.86276457805 0 0
          <InformationKey name="L2_NORM_RANGE" location="vtkDataArray" length="2">
            <Value index="0">
              124952.69072
            </Value>
            <Value index="1">
              5340312.5103
            </Value>
          </InformationKey>
        </DataArray>
        <DataArray type="Float64" Name="Press" format="ascii" RangeMin="-43317.9091021859" RangeMax="25596.88527048211">
          -43317.9091021859 -36513.38874044668 -42160.8371073053 -26431.030663632828 -41597.03394156911 -16018.783568168788
          5048.194041573439 25596.88527048211 -9806.827359065117 11481.30709938014 -2235.9389758632065 15593.785245898865
          -796.3353685020865
        </DataArray>
        <DataArray type="Float64" Name="Dev strain" NumberOfComponents="6" format="ascii" RangeMin="0.003701627972409486" RangeMax="0.17338900174857794">
          0.12694466592282616 -0.04528281911020716 0 0.10907916397984847 0 0
          0.015966309706219435 -0.014158900149510321 0 0.0010111906386225911 0 0
          -0.008399962750989746 0.004224361242977062 0 -0.0038207429033127872 0 0
          0.005258862565934688 0.0004852184275323959 0 -0.0035999201789127366 0 0
          0.00011244791017552198 0.004642744463210134 0 0.004682753180557707 0 0
          0.006543603883755538 -0.0012310163056311594 0 -0.0026408860050909366 0 0
          -0.005479902687588095 0.002259873951715678 0 0.002155245799609664 0 0
          0.004081342518689036 -0.003264574654208627 0 -0.0016594291153358897 0 0
          -0.004242387783036782 0.001556663621506995 0 0.0025212519521251916 0 0
          0.003634423981955817 -0.0026766175130624914 0 -0.001672782524643244 0 0
          -0.0037783310429441584 0.0010950525984561204 0 0.002192858285916165 0 0
          0.0028358082054365263 -0.0026284038060014467 0 -0.0011871938204235965 0 0
          -0.003126849377243192 0.0005582748721648338 0 0.0019008397579142655 0 0
          <InformationKey name="L2_NORM_RANGE" location="vtkDataArray" length="2">
            <Value index="0">
              0.0037016279724
            </Value>
            <Value index="1">
              0.17338900175
            </Value>
          </InformationKey>
        </DataArray>
        <DataArray type="Float64" Name="J2 Stresses" format="ascii" RangeMin="7383126100.05586" RangeMax="12763761561089.152">
          12763761561089.152 254173309715.03278 614174516736.8832 191155607387.7911 16111343649.240429 17026443573.389465
          35018621801.87024 17924475708.936813 15277423158.430958 11477011680.427631 13222635438.541588 7383126100.05586
          8975232143.339975
        </DataArray>
      </PointData>
      <CellData>
        <DataArray type="UInt8" Name="vtkGhostType" format="ascii" RangeMin="0" RangeMax="0">
          0 0 0 0 0 0
          0 0 0 0 0
        </DataArray>
        <DataArray type="Float64" Name="Gauss Stress" NumberOfComponents="6" format="ascii" RangeMin="45709.75254335182" RangeMax="1145992.9088650646">
          -343016.3194256468 -161161.46956115268 0 -237391.05182595694 0 0
          1005336.0394494629 93404.61537005866 0 542102.1792804855 0 0
          241716.6142580928 80731.26378193861 0 42483.53134631666 0 0
          -175736.33784160754 37851.12876636781 0 -46992.05695332647 0 0
          32505.214786888733 -11731.418845941049 0 -36593.13528025092 0 0
          -29970.33028440269 20920.41462483723 0 27449.900403155727 0 0
          62114.8860798069 -7494.406986314336 0 -12315.268725191967 0 0
          -74525.55833048832 -15183.280732405536 0 27204.080138447593 0 0
          42333.07759153431 -11719.854238892 0 -13758.552730584786 0 0
          -60802.10272621123 -8852.653977249875 0 19779.655869272534 0 0
          -53246.73455062565 -14135.895614820205 0 19808.52885766688 0 0
          <InformationKey name="L2_NORM_RANGE" location="vtkDataArray" length="2">
            <Value index="0">
              45709.752543
            </Value>
            <Value index="1">
              1145992.9089
            </Value>
          </InformationKey>
        </DataArray>
        <DataArray type="Float64" Name="Gauss Strain" NumberOfComponents="6" format="ascii" RangeMin="0.004022429067646993" RangeMax="0.09442882549612046">
          -0.018745398903219322 0.0007390492965479063 0 -0.025434755552781102 0 0
          0.06847383798317383 -0.029233100311048057 0 0.05808237635148059 0 0
          0.014382213026223108 -0.0028662173819362685 0 0.0045518069299625 0 0
          -0.013904421587485104 0.00897994983479797 0 -0.005034863244999265 0 0
          0.0027407803007042327 -0.001998859017098959 0 -0.003920693065741169 0 0
          -0.002887895542630095 0.002564684269074184 0 0.002941060757480969 0 0
          0.004704434969497434 -0.0027537035733012703 0 -0.001319493077699139 0 0
          -0.00478099414030611 0.0015771070309170427 0 0.002914722871976527 0 0
          0.003442357479355738 -0.0023490280739042256 0 -0.0014741306497055128 0 0
          -0.004026841124113308 0.001539171241846838 0 0.002119248843136344 0 0
          -0.0032984847673725405 0.0008919622614637587 0 0.002122342377607165 0 0
          <InformationKey name="L2_NORM_RANGE" location="vtkDataArray" length="2">
            <Value index="0">
              0.0040224290676
            </Value>
            <Value index="1">
              0.094428825496
            </Value>
          </InformationKey>
        </DataArray>
      </CellData>
      <Points>
        <DataArray type="Float32" Name="Points" NumberOfComponents="3" format="ascii" RangeMin="0" RangeMax="0.6020797527609908">
          0 0.05000000074505806 0 0 0 0
          0.10000000149011612 0.05000000074505806 0 0.10000000149011612 0 0
          0.20000000298023224 0.05000000074505806 0 0.20000000298023224 0 0
          0.30000001192092896 0.05000000074505806 0 0.30000001192092896 0 0
          0.4000000059604645 0.05000000074505806 0 0.4000000059604645 0 0
          0.5 0.05000000074505806 0 0.5 0 0
          0.6000000238418579 0.05000000074505806 0
          <InformationKey name="L2_NORM_RANGE" location="vtkDataArray" length="2">
            <Value index="0">
              0
            </Value>
            <Value index="1">
              0.60207975276
            </Value>
          </InformationKey>
        </DataArray>
      </Points>
      <Cells>
        <DataArray type="Int64" Name="connectivity" format="ascii" RangeMin="0" RangeMax="12">
          3 2 1 2 0 1
          5 4 3 4 2 3
          7 6 5 6 4 5
          9 8 7 8 6 7
          11 10 9 10 8 9
          12 10 11
        </DataArray>
        <DataArray type="Int64" Name="offsets" format="ascii" RangeMin="3" RangeMax="33">
          3 6 9 12 15 18
          21 24 27 30 33
        </DataArray>
        <DataArray type="UInt8" Name="types" format="ascii" RangeMin="5" RangeMax="5">
          5 5 5 5 5 5
          5 5 5 5 5
        </DataArray>
      </Cells>
    </Piece>
  </UnstructuredGrid>
</VTKFile>
