<?xml version="1.0"?>
<VTKFile type="UnstructuredGrid" version="0.1" byte_order="LittleEndian" header_type="UInt32" compressor="vtkZLibDataCompressor">
  <UnstructuredGrid>
    <Piece NumberOfPoints="13" NumberOfCells="11">
      <PointData>
        <DataArray type="Float64" Name="Disp" NumberOfComponents="3" format="ascii" RangeMin="0.0369874062371528" RangeMax="0.1964197086369462">
          0.006006336886240316 0.05781726311311755 0 -0.006196833354950205 0.08229164104838183 0
          0.006720635263283882 0.0823481630804881 0 -0.006699375195801622 0.1092698190451147 0
          0.007211761998373282 0.10932316996828806 0 -0.006974748175842473 0.13777661417547604 0
          0.007488179263651344 0.13781814319745955 0 -0.0070754895622204775 0.1669909484386727 0
          0.007570780563724758 0.1670263982160567 0 -0.007056157117627653 0.19627523117692916 0
          0.007548479414712648 0.19627460966601995 0 -0.005463885684126097 0.057760487828680325 0
          0.005022037671393712 0.03664488174055515 0
          <InformationKey name="L2_NORM_RANGE" location="vtkDataArray" length="2">
            <Value index="0">
              0.036987406237
            </Value>
            <Value index="1">
              0.19641970864
            </Value>
          </InformationKey>
        </DataArray>
        <DataArray type="Float64" Name="Nodal Stress" NumberOfComponents="6" format="ascii" RangeMin="3253.7498619291614" RangeMax="57570.07959251854">
          32425.24529021399 -13402.981255501947 0 -9171.76113654749 0 0
          -43203.865070765045 -13755.716173920348 0 15597.675501662883 0 0
          21984.62716264038 -13377.178388508459 0 -6000.083706038887 0 0
          -32667.708366302297 -13558.108871655899 0 11995.703012091624 0 0
          12439.805330710296 -12879.117038507504 0 -2795.165185529711 0 0
          -22519.620772065333 -11791.453483185493 0 8114.274756354362 0 0
          5081.007924693191 -10704.197691666026 0 -399.4860104687569 0 0
          -13678.548990165646 -9323.637100755901 0 4286.175837923083 0 0
          1018.0143398637744 -7315.716014298799 0 791.5074593697891 0 0
          -7046.790009496654 -4766.601643910229 0 1484.516998415534 0 0
          1689.8743448990483 -2676.4988666722516 0 753.3702138777464 0 0
          -52889.76578838752 -12921.141100431256 0 18709.111464769743 0 0
          44528.02791858694 -10144.127616644819 0 -13577.856302842381 0 0
          <InformationKey name="L2_NORM_RANGE" location="vtkDataArray" length="2">
            <Value index="0">
              3253.7498619
            </Value>
            <Value index="1">
              57570.079593
            </Value>
          </InformationKey>
        </DataArray>
        <DataArray type="Float64" Name="Nodal Strain" NumberOfComponents="6" format="ascii" RangeMin="0.00034141863719890797" RangeMax="0.004475136897193655">
          0.002794766851283211 -0.0021154002786149245 0 -0.0009826886932015168 0 0
          -0.002594714784557491 0.0005604440258187264 0 0.0016711795180353092 0 0
          0.002048086882635329 -0.0017406779978449034 0 -0.0006428661113613091 0 0
          -0.0018491895664624538 0.00019826752224966028 0 0.0012852538941526743 0 0
          0.0013485259892831462 -0.0013642156931330468 0 -0.0002994819841638976 0 0
          -0.0011874210021766134 -0.00003797450693948788 0 0.0008693865810379675 0 0
          0.000745221912180443 -0.0009460501181437586 0 -0.000042802072550223995 0 0
          -0.0006440521742705498 -0.00017745447183379145 0 0.000459233125491759 0 0
          0.0003339908819295124 -0.0005589087988736205 0 0.0000848043706467631 0 0
          -0.00033310637053868156 -0.00008880047422585018 0 0.00015905539268737867 0 0
          0.0002162945555882267 -0.00025153114565155537 0 0.00008071823720118713 0 0
          -0.0033163710884408495 0.0009659815566973216 0 0.002004547656939615 0 0
          0.0035428636947792396 -0.002314867255424163 0 -0.0014547703181616836 0 0
          <InformationKey name="L2_NORM_RANGE" location="vtkDataArray" length="2">
            <Value index="0">
              0.0003414186372
            </Value>
            <Value index="1">
              0.0044751368972
            </Value>
          </InformationKey>
        </DataArray>
        <DataArray type="Float64" Name="Sld_traction" NumberOfComponents="3" format="ascii" RangeMin="2328.066143650628" RangeMax="51000.23405117822">
          36210.60465699822 12655.70945395564 0 38741.38368090292 -14072.033074437637 0
          25672.81854556363 13116.36814490203 0 28290.83114497336 -13666.030702270073 0
          15751.436013838083 12751.577819303326 0 17751.663180827818 -11755.101070990118 0
          7064.014940263193 10727.589861166649 0 8308.047429126616 -8940.147321156832 0
          1187.0991005615108 7515.633868343681 0 -327.0999675282986 -3087.6896529415135 0
          -927.1116235482356 2135.499006483979 0 49218.74614175858 -13361.844988925857 0
          45513.782267912524 10348.08105895926 0
          <InformationKey name="L2_NORM_RANGE" location="vtkDataArray" length="2">
            <Value index="0">
              2328.0661437
            </Value>
            <Value index="1">
              51000.234051
            </Value>
          </InformationKey>
        </DataArray>
        <DataArray type="Float64" Name="Velocity" NumberOfComponents="3" format="ascii" RangeMin="0.27217609500813367" RangeMax="12.500976112772562">
          0.29410713211056594 0.655709708348212 0 -0.4683705192901142 2.1870386618925437 0
          0.4507438499347187 2.1919903212933676 0 -0.5999376169966233 4.307920481913186 0
          0.5800547175432205 4.318279420233644 0 -0.6830060093192811 6.866204665420852 0
          0.6644982669147623 6.876484451093063 0 -0.717578069013955 9.656417644417274 0
          0.6942874653351465 9.667399599268165 0 -0.7121498556865635 12.48067491585114 0
          0.6890638796388382 12.480602382260855 0 -0.3107119374188332 0.6560450421503781 0
          0.13828634298864007 -0.23442848384252457 0
          <InformationKey name="L2_NORM_RANGE" location="vtkDataArray" length="2">
            <Value index="0">
              0.27217609501
            </Value>
            <Value index="1">
              12.500976113
            </Value>
          </InformationKey>
        </DataArray>
        <DataArray type="Float64" Name="Acceleration" NumberOfComponents="3" format="ascii" RangeMin="83.75395753858544" RangeMax="2044.1399966407814">
          -38.84004562119571 214.54921445779473 0 84.64663841070706 -33.7183745989023 0
          -76.23374414986665 -34.686332413039054 0 116.63657562871595 -423.8208571783907 0
          -107.69005311996625 -426.25715390668483 0 137.0708212387117 -921.0963940121728 0
          -128.478684122495 -923.5798152953212 0 145.6522861300391 -1475.7601036289707 0
          -135.89441238417112 -1478.465183717548 0 144.32566670085362 -2039.0386038027646 0
          -134.63742260816616 -2039.0224172941817 0 47.097335131896216 214.09358429902932 0
          -3.396534639350648 312.10593311260163 0
          <InformationKey name="L2_NORM_RANGE" location="vtkDataArray" length="2">
            <Value index="0">
              83.753957539
            </Value>
            <Value index="1">
              2044.1399966
            </Value>
          </InformationKey>
        </DataArray>
        <DataArray type="Float64" Name="Sigma" NumberOfComponents="6" format="ascii" RangeMin="3302.241984202599" RangeMax="152107.48612712455">
          98954.41675080845 -28242.222999462305 0 -35207.571040296934 0 0
          -113829.88498211674 -13727.984815584847 0 38397.0011668396 0 0
          69884.6771026308 -24816.348548397054 0 -25827.52815927413 0 0
          -83671.57409874057 -15778.194460827597 0 28448.480392892096 0 0
          41988.36361244484 -22941.06895379307 0 -15519.227595988303 0 0
          -55490.39825670906 -14376.465880430631 0 17554.064131432195 0 0
          19926.291454815644 -17637.77995572548 0 -6604.177539801166 0 0
          -31171.10745199115 -12023.065927458527 0 7845.242166346014 0 0
          7401.475023444177 -12231.079145003789 0 -448.1518863861913 0 0
          -16553.62644463034 -5903.614137209387 0 913.2517779434443 0 0
          1742.4630045042593 -2499.0124881248325 0 1274.1904819768665 0 0
          -142812.08120451352 -14143.744276884272 0 50411.81702516705 0 0
          129630.783540804 -19967.545043457096 0 -50605.815621527436 0 0
          <InformationKey name="L2_NORM_RANGE" location="vtkDataArray" length="2">
            <Value index="0">
              3302.2419842
            </Value>
            <Value index="1">
              152107.48613
            </Value>
          </InformationKey>
        </DataArray>
        <DataArray type="Float64" Name="Press" format="ascii" RangeMin="-969.9556815254637" RangeMax="14700.387519842487">
          14700.387519842487 -67.23891753034987 11835.209940922896 1640.5909050722926 9709.24999389734 2725.9196229466106
          7036.727486962624 2232.2480872092037 3501.568812951053 3076.5478287497003 2924.30307503654 -969.9556815254637
          11181.768845676685
        </DataArray>
        <DataArray type="Float64" Name="Dev strain" NumberOfComponents="6" format="ascii" RangeMin="0.0003860142126262003" RangeMax="0.004417365493496712">
          0.002469930795606001 -0.0024402363342921353 0 -0.0009826886932015168 0 0
          -0.0027534600126524183 0.0004016987977237992 0 0.0016711795180353092 0 0
          0.0017547309268783021 -0.002034033953601931 0 -0.0006428661113613091 0 0
          -0.0020146394057645087 0.000032817682947605235 0 0.0012852538941526743 0 0
          0.0010929889105709219 -0.001619752771845271 0 -0.0002994819841638976 0 0
          -0.0013473028822113785 -0.00019785638697425307 0 0.0008693865810379675 0 0
          0.0005507352480467056 -0.0011405367822774962 0 -0.000042802072550223995 0 0
          -0.000763910949790725 -0.0002973132473539668 0 0.000459233125491759 0 0
          0.00021021696743063348 -0.0006826827133724993 0 0.0000848043706467631 0 0
          -0.00044232904957058623 -0.00019802315325775493 0 0.00015905539268737867 0 0
          0.00010534167351881745 -0.00036248402772096473 0 0.00008071823720118713 0 0
          -0.0034284519332401157 0.0008539007118980558 0 0.002004547656939615 0 0
          0.003275459821597555 -0.002582271128605847 0 -0.0014547703181616836 0 0
          <InformationKey name="L2_NORM_RANGE" location="vtkDataArray" length="2">
            <Value index="0">
              0.00038601421263
            </Value>
            <Value index="1">
              0.0044173654935
            </Value>
          </InformationKey>
        </DataArray>
        <DataArray type="Float64" Name="J2 Stresses" format="ascii" RangeMin="5046510.715025048" RangeMax="10933005844.011963">
          5604693141.861407 6941432565.720998 2916624927.211774 3827270875.4685545 1204869268.0908062 1719969826.8322914
          364977976.69872874 573482983.2019495 102240774.81532517 154646111.37719095 5046510.715025048 10933005844.011963
          9241658591.912643
        </DataArray>
      </PointData>
      <CellData>
        <DataArray type="UInt8" Name="vtkGhostType" format="ascii" RangeMin="0" RangeMax="1">
          1 1 0 0 0 0
          0 0 0 0 0
        </DataArray>
        <DataArray type="Float64" Name="Gauss Stress" NumberOfComponents="6" format="ascii" RangeMin="3819.688534492275" RangeMax="53143.59574669698">
          36895.10659036422 -12480.437211936654 0 -11800.523212219105 0 0
          -48008.11883834504 -14150.253057048249 0 17867.082383903242 0 0
          27159.18913818585 -13439.399273403056 0 -7546.0326775771555 0 0
          17128.839152075863 -13450.187041041729 0 -4299.425120790113 0 0
          -38069.40668325391 -13637.98863211488 0 13672.651133485853 0 0
          8632.051304786002 -11827.805895380869 0 -1523.113668119092 0 0
          -27699.28274036286 -13006.656257711686 0 10161.105642778664 0 0
          2975.7344711305204 -9707.12688035497 0 264.30424671955234 0 0
          -18246.773018922046 -10680.8055221654 0 6265.0429193256805 0 0
          697.577100018465 -3710.42868453357 0 579.7634578447065 0 0
          -10504.298048089118 -7115.798160253915 0 2770.114019301089 0 0
          <InformationKey name="L2_NORM_RANGE" location="vtkDataArray" length="2">
            <Value index="0">
              3819.6885345
            </Value>
            <Value index="1">
              53143.595747
            </Value>
          </InformationKey>
        </DataArray>
        <DataArray type="Float64" Name="Gauss Strain" NumberOfComponents="6" format="ascii" RangeMin="0.00034810178736504786" RangeMax="0.003996500165186987">
          0.0030810946568808964 -0.0022091421790799122 0 -0.0012643417727377614 0 0
          -0.0029237851649872105 0.0007038433115803047 0 0.0019143302554182043 0 0
          0.0024199206267776704 -0.001929928131606856 0 -0.0008085035011689812 0 0
          0.001703852333756909 -0.001572471901219976 0 -0.00046065269151322665 0 0
          -0.002232172311942604 0.0003854796221080044 0 0.0014649269071591994 0 0
          0.001038996732319746 -0.0011531308248409907 0 -0.00016319075015561706 0 0
          -0.0015139967579647872 0.00006021322231926731 0 0.001088689890297714 0 0
          0.000559235565093429 -0.0007996424368514451 0 0.000028318312148523415 0 0
          -0.0009218835898456675 -0.00011124421519316985 0 0.0006712545984991802 0 0
          0.00018234224587751783 -0.00028994408818162876 0 0.00006211751334050428 0 0
          -0.0004961713548544401 -0.00013311779544352543 0 0.0002967979306394023 0 0
          <InformationKey name="L2_NORM_RANGE" location="vtkDataArray" length="2">
            <Value index="0">
              0.00034810178737
            </Value>
            <Value index="1">
              0.0039965001652
            </Value>
          </InformationKey>
        </DataArray>
      </CellData>
      <Points>
        <DataArray type="Float32" Name="Points" NumberOfComponents="3" format="ascii" RangeMin="0.4000000059604645" RangeMax="1.0012492197622458">
          0.5 0 0 0.6000000238418579 0.05000000074505806 0
          0.6000000238418579 0 0 0.699999988079071 0.05000000074505806 0
          0.699999988079071 0 0 0.800000011920929 0.05000000074505806 0
          0.800000011920929 0 0 0.8999999761581421 0.05000000074505806 0
          0.8999999761581421 0 0 1 0.05000000074505806 0
          1 0 0 0.5 0.05000000074505806 0
          0.4000000059604645 0 0
          <InformationKey name="L2_NORM_RANGE" location="vtkDataArray" length="2">
            <Value index="0">
              0.40000000596
            </Value>
            <Value index="1">
              1.0012492198
            </Value>
          </InformationKey>
        </DataArray>
      </Points>
      <Cells>
        <DataArray type="Int64" Name="connectivity" format="ascii" RangeMin="0" RangeMax="12">
          0 11 12 1 11 0
          2 1 0 4 3 2
          3 1 2 6 5 4
          5 3 4 8 7 6
          7 5 6 10 9 8
          9 7 8
        </DataArray>
        <DataArray type="Int64" Name="offsets" format="ascii" RangeMin="3" RangeMax="33">
          3 6 9 12 15 18
          21 24 27 30 33
        </DataArray>
        <DataArray type="UInt8" Name="types" format="ascii" RangeMin="5" RangeMax="5">
          5 5 5 5 5 5
          5 5 5 5 5
        </DataArray>
      </Cells>
    </Piece>
  </UnstructuredGrid>
</VTKFile>
