<?xml version="1.0"?>
<VTKFile type="UnstructuredGrid" version="0.1" byte_order="LittleEndian" header_type="UInt32" compressor="vtkZLibDataCompressor">
  <UnstructuredGrid>
    <Piece NumberOfPoints="13" NumberOfCells="11">
      <PointData>
        <DataArray type="Float64" Name="Disp" NumberOfComponents="3" format="ascii" RangeMin="0" RangeMax="0.0882861159682164">
          0 0 0 0 0 0
          -0.0007052152073264502 0.0022630355606165662 0 0.0013667114796094453 0.0021588018363177803 0
          -0.002361842117378392 0.009299452253061781 0 0.002687440000654277 0.0091440167447636 0
          -0.0036969577828054848 0.022798132934856257 0 0.004464077996623983 0.022932733467758513 0
          -0.0047676209801798715 0.04123558830682704 0 0.0053666275896184015 0.0412887049329551 0
          -0.005564543621843096 0.06332430840834145 0 0.00619809005647799 0.06338822339449446 0
          -0.006112439978191667 0.0880742661068848 0
          <InformationKey name="L2_NORM_RANGE" location="vtkDataArray" length="2">
            <Value index="0">
              0
            </Value>
            <Value index="1">
              0.088286115968
            </Value>
          </InformationKey>
        </DataArray>
        <DataArray type="Float64" Name="Nodal Stress" NumberOfComponents="6" format="ascii" RangeMin="30035.607185682962" RangeMax="2629672.305771851">
          2289324.104501247 393356.83124978165 0 1232656.4742871951 0 0
          149942.54400393183 -158833.2157464535 0 20866.618042765604 0 0
          -185087.62371673915 -45705.265878225735 0 -38000.073664429205 0 0
          75579.44728925652 20269.33559571987 0 -37935.368672073055 0 0
          19506.91414838325 57209.107388778306 0 53428.81073179473 0 0
          99569.58157607066 19410.741007817058 0 -23818.89501607021 0 0
          -88916.55786988493 -19729.187345966322 0 21950.722569276695 0 0
          48543.348254143864 -21354.933700979564 0 -11260.698603421048 0 0
          -60208.067044269264 -16021.30050339783 0 23220.666086297242 0 0
          38289.61456804125 -14286.825152471707 0 -10884.61457711698 0 0
          -49063.58261029692 -15974.73202511753 0 17307.07068861679 0 0
          24960.075297455638 -15524.582510289743 0 -6174.113542784962 0 0
          -36549.39654531856 -14115.041885894527 0 12932.03546159909 0 0
          <InformationKey name="L2_NORM_RANGE" location="vtkDataArray" length="2">
            <Value index="0">
              30035.607186
            </Value>
            <Value index="1">
              2629672.3058
            </Value>
          </InformationKey>
        </DataArray>
        <DataArray type="Float64" Name="Nodal Strain" NumberOfComponents="6" format="ascii" RangeMin="0.0025388390560117688" RangeMax="0.20655544763046088">
          0.14947469206259686 -0.05366465864291727 0 0.13207033653077088 0 0
          0.01638279656265418 -0.01670032055345853 0 0.002235709076010604 0 0
          -0.01158821362697331 0.0033456104271531294 0 -0.004071436464045985 0 0
          0.00467462710652833 -0.001251456289207742 0 -0.004064503786293541 0 0
          -0.0006498313961432786 0.0033896893081847633 0 0.005724515435549435 0 0
          0.0064188722194401535 -0.002169574984301305 0 -0.002552024466007523 0 0
          -0.00564656887120727 0.001766363684926866 0 0.0023518631324225036 0 0
          0.004230058221759547 -0.003259043416289393 0 -0.0012065034217951126 0 0
          -0.0037283869137550254 0.0010059095013383423 0 0.002487928509246133 0 0
          0.0032452162245912228 -0.0023879737454637374 0 -0.001166208704691105 0 0
          -0.002934015471267012 0.0006112185200022091 0 0.0018543290023517983 0 0
          0.0023373118966143226 -0.0020003300113583975 0 -0.0006615121652983888 0 0
          -0.0021065625430265215 0.0002971183133403393 0 0.001385575228028474 0 0
          <InformationKey name="L2_NORM_RANGE" location="vtkDataArray" length="2">
            <Value index="0">
              0.002538839056
            </Value>
            <Value index="1">
              0.20655544763
            </Value>
          </InformationKey>
        </DataArray>
        <DataArray type="Float64" Name="Sld_traction" NumberOfComponents="3" format="ascii" RangeMin="22657.573020547738" RangeMax="295951.813202653">
          39954.00231184593 -126329.56287629028 0 -295925.9312715806 -3913.9416175785536 0
          203270.3702736792 98519.34518080753 0 20059.366988171907 -10535.056298629443 0
          52039.972046692805 29926.792101756135 0 80669.95870579692 -22061.139830459462 0
          81280.23249815442 -16468.53738767971 0 51504.58454629108 16703.672857521982 0
          53532.45365895412 -17288.38671852251 0 39420.514344416486 14916.892370069012 0
          43656.15853570092 -16138.254615353615 0 28296.094685867927 14995.32389662399 0
          30725.78179213617 -14128.194035494747 0
          <InformationKey name="L2_NORM_RANGE" location="vtkDataArray" length="2">
            <Value index="0">
              22657.573021
            </Value>
            <Value index="1">
              295951.8132
            </Value>
          </InformationKey>
        </DataArray>
        <DataArray type="Float64" Name="Velocity" NumberOfComponents="3" format="ascii" RangeMin="0" RangeMax="5.655162806675932">
          0 0 0 0 0 0
          0.10394697129536529 -0.3262878317442206 0 -0.17644552983613415 -0.3238474669334155 0
          0.258171011045345 -1.18430673570521 0 -0.28681371413717294 -1.1840819271626613 0
          0.2990029709283055 -2.4795179540308734 0 -0.38384676622187897 -2.50320401754162 0
          0.27472621509537687 -3.8130335716661037 0 -0.3398270915273165 -3.8257661679330504 0
          0.196351406631325 -4.920276265124166 0 -0.2670932731067288 -4.926174852786957 0
          0.0971185393319498 -5.654328815989466 0
          <InformationKey name="L2_NORM_RANGE" location="vtkDataArray" length="2">
            <Value index="0">
              0
            </Value>
            <Value index="1">
              5.6551628067
            </Value>
          </InformationKey>
        </DataArray>
        <DataArray type="Float64" Name="Acceleration" NumberOfComponents="3" format="ascii" RangeMin="0" RangeMax="715.228081816813">
          0 0 0 0 0 0
          10.350317516650307 -32.638924745015174 0 -18.086870807543846 -32.127831157702985 0
          27.573012649047087 -121.7879529649963 0 -30.824748977189756 -121.295542929558 0
          34.87217786817655 -265.15609551035595 0 -43.90307461674274 -267.43607944082396 0
          36.22387174528831 -426.6254804046257 0 -43.1840346070785 -427.7935574548246 0
          32.46451085875833 -581.3704808042676 0 -39.974935497930346 -582.032620941638 0
          26.291255000430283 -714.7446949294972 0
          <InformationKey name="L2_NORM_RANGE" location="vtkDataArray" length="2">
            <Value index="0">
              0
            </Value>
            <Value index="1">
              715.22808182
            </Value>
          </InformationKey>
        </DataArray>
        <DataArray type="Float64" Name="Sigma" NumberOfComponents="6" format="ascii" RangeMin="87966.20662383962" RangeMax="6426401.061858215">
          5582555.244993389 1200071.9160265005 0 2948480.106904859 0 0
          -544203.9359804142 -520794.63275821676 0 -488700.64654709154 0 0
          -1274698.9033946928 -117010.64168897658 0 -477633.67011384555 0 0
          680440.1002032689 183703.61486685197 0 128522.7638533232 0 0
          87009.20858256778 142605.62560575953 0 181676.79519259997 0 0
          149507.74869921475 16226.659715263673 0 -145746.61079523302 0 0
          -280473.6879210016 -59278.98424039137 0 63166.32162360239 0 0
          165609.90746604063 -53455.401520483116 0 -29556.072907172515 0 0
          -156044.61969417095 -3868.0165730511962 0 53339.313301917085 0 0
          112922.6057442475 -24926.448417599993 0 -45056.60485382347 0 0
          -129888.38395921193 -20072.781579341023 0 44671.147122453964 0 0
          77935.58745635762 -30806.46623417053 0 -26740.59374403251 0 0
          -94363.0229946715 -15184.817668112773 0 29913.04942247255 0 0
          <InformationKey name="L2_NORM_RANGE" location="vtkDataArray" length="2">
            <Value index="0">
              87966.206624
            </Value>
            <Value index="1">
              6426401.0619
            </Value>
          </InformationKey>
        </DataArray>
        <DataArray type="Float64" Name="Press" format="ascii" RangeMin="-50207.347245284625" RangeMax="31785.9128535281">
          -50207.347245284625 -41424.79293066399 -47071.74518544789 -27191.4331153242 -45024.57580443178 -16845.62324071766
          12597.924520041543 31785.9128535281 -5800.018672955419 12001.329465742161 1695.6619725822534 14675.076488142799
          1531.8036490327775
        </DataArray>
        <DataArray type="Float64" Name="Dev strain" NumberOfComponents="6" format="ascii" RangeMin="0.0026823058457911136" RangeMax="0.20735006607424816">
          0.1511613994965851 -0.05197795120892904 0 0.13207033653077088 0 0
          0.017888338716467403 -0.015194778399645314 0 0.002235709076010604 0 0
          -0.01005578848931146 0.004878035564814975 0 -0.004071436464045985 0 0
          0.0058818046566565625 -0.000044278739079508564 0 -0.004064503786293541 0 0
          0.0005189048782736285 0.0045584255826016705 0 0.005724515435549435 0 0
          0.006899028654782067 -0.0016894185489593932 0 -0.002552024466007523 0 0
          -0.005809198430339659 0.0016037341257944763 0 0.0023518631324225036 0 0
          0.003636406450806078 -0.003852695187242862 0 -0.0012065034217951126 0 0
          -0.003927993934866429 0.000806302480226938 0 0.002487928509246133 0 0
          0.0029170607104978363 -0.002716129259557124 0 -0.001166208704691105 0 0
          -0.0031103802591221923 0.0004348537321470282 0 0.0018543290023517983 0 0
          0.0019896117273184933 -0.0023480301806542265 0 -0.0006615121652983888 0 0
          -0.002294109879419425 0.00010957097694743455 0 0.001385575228028474 0 0
          <InformationKey name="L2_NORM_RANGE" location="vtkDataArray" length="2">
            <Value index="0">
              0.0026823058458
            </Value>
            <Value index="1">
              0.20735006607
            </Value>
          </InformationKey>
        </DataArray>
        <DataArray type="Float64" Name="J2 Stresses" format="ascii" RangeMin="3690261915.448176" RangeMax="18475931568722.78">
          18475931568722.78 343399567207.05664 876307872998.6547 252502399247.01587 22205097894.150898 16618454342.885536
          42087239841.15406 15360451062.73683 12893713029.73394 7193945769.631411 9135832270.242779 3690261915.448176
          4791177029.5911875
        </DataArray>
      </PointData>
      <CellData>
        <DataArray type="UInt8" Name="vtkGhostType" format="ascii" RangeMin="0" RangeMax="0">
          0 0 0 0 0 0
          0 0 0 0 0
        </DataArray>
        <DataArray type="Float64" Name="Gauss Stress" NumberOfComponents="6" format="ascii" RangeMin="34908.99721445012" RangeMax="1384379.488625748">
          -418050.2368010911 -189929.87693725905 0 -279270.5176025379 0 0
          1208316.1734189615 141187.58540597023 0 660715.2634146404 0 0
          275965.1417748593 84491.4226758005 0 54817.64941689668 0 0
          -208845.78290468658 30003.614892810354 0 -55811.37035597408 0 0
          20727.394125701947 -22989.837304252942 0 -37378.78735960105 0 0
          -31076.335054775685 16760.342185174643 0 33032.16867365646 0 0
          53491.705720810685 -14754.214288273153 0 -7091.12148635964 0 0
          -77441.52714950593 -26006.194544437152 0 28983.18733944899 0 0
          29780.62572262014 -15811.209434881443 0 -9042.01715846734 0 0
          -55037.80838125548 -13656.757934874404 0 17651.28519018253 0 0
          -42804.42579592266 -16053.841123955499 0 15947.867600298005 0 0
          <InformationKey name="L2_NORM_RANGE" location="vtkDataArray" length="2">
            <Value index="0">
              34908.997214
            </Value>
            <Value index="1">
              1384379.4886
            </Value>
          </InformationKey>
        </DataArray>
        <DataArray type="Float64" Name="Gauss Strain" NumberOfComponents="6" format="ascii" RangeMin="0.0030391430495075055" RangeMax="0.1127345487875389">
          -0.02307752130946155 0.0013639458188061757 0 -0.029921841171700485 0 0
          0.08126588433685544 -0.03306932152167932 0 0.07079092108014005 0 0
          0.016694245031211363 -0.0038207963008306508 0 0.005873319580381786 0 0
          -0.01598911359650656 0.009601893310368117 0 -0.005979789680997224 0 0
          0.0023015937698448877 -0.002382395311935995 0 -0.004004870074242969 0 0
          -0.002818321867668787 0.0023070364080401765 0 0.0035391609293203338 0 0
          0.004347772347496233 -0.0029642905106198924 0 -0.0007597630163956755 0 0
          -0.004602744991234811 0.0009081835021654138 0 0.003105341500655249 0 0
          0.0026918736028614903 -0.002192965878299394 0 -0.0009687875526929292 0 0
          -0.0034435306724155917 0.0009901533039823808 0 0.0018912091275195568 0 0
          -0.0024841075167103513 0.0003820265552861306 0 0.001708700100031929 0 0
          <InformationKey name="L2_NORM_RANGE" location="vtkDataArray" length="2">
            <Value index="0">
              0.0030391430495
            </Value>
            <Value index="1">
              0.11273454879
            </Value>
          </InformationKey>
        </DataArray>
      </CellData>
      <Points>
        <DataArray type="Float32" Name="Points" NumberOfComponents="3" format="ascii" RangeMin="0" RangeMax="0.6020797527609908">
          0 0.05000000074505806 0 0 0 0
          0.10000000149011612 0.05000000074505806 0 0.10000000149011612 0 0
          0.20000000298023224 0.05000000074505806 0 0.20000000298023224 0 0
          0.30000001192092896 0.05000000074505806 0 0.30000001192092896 0 0
          0.4000000059604645 0.05000000074505806 0 0.4000000059604645 0 0
          0.5 0.05000000074505806 0 0.5 0 0
          0.6000000238418579 0.05000000074505806 0
          <InformationKey name="L2_NORM_RANGE" location="vtkDataArray" length="2">
            <Value index="0">
              0
            </Value>
            <Value index="1">
              0.60207975276
            </Value>
          </InformationKey>
        </DataArray>
      </Points>
      <Cells>
        <DataArray type="Int64" Name="connectivity" format="ascii" RangeMin="0" RangeMax="12">
          3 2 1 2 0 1
          5 4 3 4 2 3
          7 6 5 6 4 5
          9 8 7 8 6 7
          11 10 9 10 8 9
          12 10 11
        </DataArray>
        <DataArray type="Int64" Name="offsets" format="ascii" RangeMin="3" RangeMax="33">
          3 6 9 12 15 18
          21 24 27 30 33
        </DataArray>
        <DataArray type="UInt8" Name="types" format="ascii" RangeMin="5" RangeMax="5">
          5 5 5 5 5 5
          5 5 5 5 5
        </DataArray>
      </Cells>
    </Piece>
  </UnstructuredGrid>
</VTKFile>
