<?xml version="1.0"?>
<VTKFile type="UnstructuredGrid" version="0.1" byte_order="LittleEndian" header_type="UInt32" compressor="vtkZLibDataCompressor">
  <UnstructuredGrid>
    <Piece NumberOfPoints="13" NumberOfCells="11">
      <PointData>
        <DataArray type="Float64" Name="Disp" NumberOfComponents="3" format="ascii" RangeMin="0" RangeMax="0.003462302679474153">
          0 0 0 0 0 0
          0.00017925631351344164 -0.0005527215990110263 0 -0.0002696986634634173 -0.000566484132670251 0
          0.0003203378202261383 -0.0017840705587703397 0 -0.0003430904656626549 -0.00181519116180099 0
          0.00017424000441663086 -0.003054169280219598 0 -0.000281732234278657 -0.0031003571372591786 0
          -0.00012028335919046172 -0.0034333268201587196 0 0.00003975485431106379 -0.0034620744353425744 0
          -0.0005269908627508888 -0.002362071227423247 0 0.00043588808899061376 -0.002367335474669952 0
          -0.0009474863925280647 0.0004135473583658865 0
          <InformationKey name="L2_NORM_RANGE" location="vtkDataArray" length="2">
            <Value index="0">
              0
            </Value>
            <Value index="1">
              0.0034623026795
            </Value>
          </InformationKey>
        </DataArray>
        <DataArray type="Float64" Name="Nodal Stress" NumberOfComponents="6" format="ascii" RangeMin="7236.400419032828" RangeMax="421371.33140972425">
          -356603.68710410764 -97849.56975397535 0 -202022.4516649604 0 0
          -18915.650071184227 -1020.1948286635292 0 -13172.815292422012 0 0
          26381.613479504547 6932.007294622788 0 879.4729674651263 0 0
          -1491.0519599601964 8995.588130681945 0 3380.4730566485264 0 0
          -5264.371455952664 2504.277137865061 0 -9284.15166078213 0 0
          1495.7352925888351 6689.290327124877 0 -2319.8409166398096 0 0
          4652.150367108143 12198.115986149523 0 -1112.1024649077963 0 0
          13605.050479525895 11522.979168138103 0 -5892.023536056752 0 0
          -6929.969680533223 7877.9126400432215 0 1640.3162661289255 0 0
          16721.813033148195 5989.8473265899465 0 -6495.505696315649 0 0
          -13567.084250075592 3711.809722779521 0 4882.848736608656 0 0
          17322.239759261764 2007.1143546523579 0 -6462.76091416488 0 0
          -17299.581547593043 -1143.533391308021 0 6707.275318885304 0 0
          <InformationKey name="L2_NORM_RANGE" location="vtkDataArray" length="2">
            <Value index="0">
              7236.400419
            </Value>
            <Value index="1">
              421371.33141
            </Value>
          </InformationKey>
        </DataArray>
        <DataArray type="Float64" Name="Nodal Strain" NumberOfComponents="6" format="ascii" RangeMin="0.0005092396813995317" RangeMax="0.03137725395860191">
          -0.021977064444794282 0.00574659098557703 0 -0.02164526267838861 0 0
          -0.0013146823326323192 0.0006026878719234702 0 -0.0014113730670452154 0 0
          0.0016368292737280828 -0.00044705710322353465 0 0.0000942292465141215 0 0
          -0.00042777471609294076 0.0006957938650472889 0 0.0003621935417837708 0 0
          -0.0004654650017775142 0.0003668902047029568 0 -0.0009947305350837994 0 0
          -0.00013206499078382875 0.00042438733434503275 0 -0.00024855438392569387 0 0
          -0.00010335054471190131 0.0007051457716139609 0 -0.00011915383552583529 0 0
          0.0005602543496754891 0.0003371752805982253 0 -0.0006312882360060807 0 0
          -0.0007763518571824883 0.000810206962879274 0 0.00017574817137095626 0 0
          0.0009804920978466586 -0.00016936137071315354 0 -0.0006959470388909624 0 0
          -0.0011016420793903824 0.0007496679891298082 0 0.0005231623646366417 0 0
          0.0011656201844239703 -0.0004752861089270373 0 -0.0006924386693748085 0 0
          -0.0011948439179956453 0.0005361612416063216 0 0.0007186366413091398 0 0
          <InformationKey name="L2_NORM_RANGE" location="vtkDataArray" length="2">
            <Value index="0">
              0.0005092396814
            </Value>
            <Value index="1">
              0.031377253959
            </Value>
          </InformationKey>
        </DataArray>
        <DataArray type="Float64" Name="Sld_traction" NumberOfComponents="3" format="ascii" RangeMin="6676.56103894342" RangeMax="55680.90591213042">
          -13092.537131822559 2787.026059558714 0 50626.21970988917 23180.792934702422 0
          -35583.73169709179 -11885.090395936735 0 1264.643157289488 -6555.6956146131515 0
          -6092.789954988164 5160.486097595804 0 -563.1861254158592 -7274.876813205805 0
          -1195.0867903743779 11555.492619189112 0 11120.548396415506 -10914.543287221304 0
          10193.544730664958 7477.0254314280755 0 16603.69314186892 -6714.936014766472 0
          16146.3241553866 3166.5487264707554 0 18610.64499544255 -2487.657966682706 0
          19115.159674536088 -1718.2694734443937 0
          <InformationKey name="L2_NORM_RANGE" location="vtkDataArray" length="2">
            <Value index="0">
              6676.5610389
            </Value>
            <Value index="1">
              55680.905912
            </Value>
          </InformationKey>
        </DataArray>
        <DataArray type="Float64" Name="Velocity" NumberOfComponents="3" format="ascii" RangeMin="0" RangeMax="8.094471007353281">
          0 0 0 0 0 0
          -0.06726992222806008 0.2156783450420699 0 0.12931113372638484 0.2063585591548115 0
          -0.22106036460415812 0.8787529754259862 0 0.25140465351651553 0.8649681423842934 0
          -0.3411783355278585 2.1342912571702035 0 0.41335155863446116 2.147239822949091 0
          -0.4352639293928405 3.8297457272507804 0 0.49170170926797063 3.834923615489683 0
          -0.5032237940960937 5.840921443729872 0 0.5630211945800786 5.846745538446483 0
          -0.5487274621525973 8.075850361489024 0
          <InformationKey name="L2_NORM_RANGE" location="vtkDataArray" length="2">
            <Value index="0">
              0
            </Value>
            <Value index="1">
              8.0944710074
            </Value>
          </InformationKey>
        </DataArray>
        <DataArray type="Float64" Name="Acceleration" NumberOfComponents="3" format="ascii" RangeMin="0" RangeMax="1431.3369098273627">
          0 0 0 0 0 0
          -48.784180211421784 151.919655600282 0 78.01185270337828 153.42477982597177 0
          -103.09294947250874 519.251261310229 0 113.03165755897965 523.7313181058385 0
          -90.90409170680732 988.5508349022366 0 125.69000289415021 1000.4426590213852 0
          -43.1326802361167 1337.930257779477 0 69.82428264694954 1344.8612933635595 0
          32.44564904230856 1429.3061829002145 0 -2.851079726376838 1431.3340702919559 0
          114.30672905813003 1194.9154629418445 0
          <InformationKey name="L2_NORM_RANGE" location="vtkDataArray" length="2">
            <Value index="0">
              0
            </Value>
            <Value index="1">
              1431.3369098
            </Value>
          </InformationKey>
        </DataArray>
        <DataArray type="Float64" Name="Sigma" NumberOfComponents="6" format="ascii" RangeMin="22036.884975964746" RangeMax="1014051.9264341331">
          -865839.8884169183 -240754.73488083386 0 -469744.35043267324 0 0
          96678.83065168286 31665.037346559035 0 60467.45049586313 0 0
          189265.30997658664 39125.26561007074 0 70931.44370964146 0 0
          -78945.12491453765 -531.3745569293249 0 -19370.861309438395 0 0
          -24788.839666809356 -9228.91532734862 0 -27483.814588443478 0 0
          18309.882308207056 7841.094609496963 0 9428.135798153555 0 0
          12369.593676481325 26483.949814249107 0 2447.0749142035 0 0
          31500.12738315555 18873.202677783203 0 -14962.565130680689 0 0
          -25336.225939670006 11160.725130923991 0 10524.99418938319 0 0
          46141.9514340844 6164.8172116514725 0 -16301.165653923825 0 0
          -41183.31865266439 8623.32448853174 0 16614.2167122535 0 0
          49778.08658090232 877.0397185930286 0 -19454.931104837546 0 0
          -48971.363907327745 794.9160186472183 0 19896.083893922423 0 0
          <InformationKey name="L2_NORM_RANGE" location="vtkDataArray" length="2">
            <Value index="0">
              22036.884976
            </Value>
            <Value index="1">
              1014051.9264
            </Value>
          </InformationKey>
        </DataArray>
        <DataArray type="Float64" Name="Press" format="ascii" RangeMin="-8767.344112859804" RangeMax="5906.787251439818">
          5906.787251439818 3905.6915542670254 3601.621731989825 -518.9267304102867 1858.771212879865 123.55532671434702
          -8767.344112859804 -6032.240256054005 -5324.048106877795 -6.057111451762601 -4824.485697537376 1936.573547477756
          -2827.655847846334
        </DataArray>
        <DataArray type="Float64" Name="Dev strain" NumberOfComponents="6" format="ascii" RangeMin="0.000547996878346771" RangeMax="0.03146730612244066">
          -0.022149572371483 0.00557408305888831 0 -0.02164526267838861 0 0
          -0.0014406371103201632 0.00047673309423562507 0 -0.0014113730670452154 0 0
          0.001529243504371023 -0.0005546428725805947 0 0.0000942292465141215 0 0
          -0.00046300231248656897 0.0006605662686536609 0 0.0003621935417837708 0 0
          -0.00048092976989958945 0.0003514254365808813 0 -0.0009947305350837994 0 0
          -0.00007365135737270345 0.00048280096775615806 0 -0.00024855438392569387 0 0
          0.000098693239305468 0.0009071895556313303 0 -0.00011915383552583529 0 0
          0.000751500563248515 0.0005284214941712512 0 -0.0006312882360060807 0 0
          -0.0006048854488888112 0.0009816733711729513 0 0.00017574817137095626 0 0
          0.0010531976841148647 -0.00009665578444494765 0 -0.0006959470388909624 0 0
          -0.0010027206946645 0.0008485893738556905 0 0.0005231623646366417 0 0
          0.0011641301057639959 -0.00047677618758701156 0 -0.0006924386693748085 0 0
          -0.0011644850642114975 0.0005665200953904692 0 0.0007186366413091398 0 0
          <InformationKey name="L2_NORM_RANGE" location="vtkDataArray" length="2">
            <Value index="0">
              0.00054799687835
            </Value>
            <Value index="1">
              0.031467306122
            </Value>
          </InformationKey>
        </DataArray>
        <DataArray type="Float64" Name="J2 Stresses" format="ascii" RangeMin="220589713.5648442" RangeMax="458985716061.53467">
          458985716061.53467 6088813585.535292 19933889411.47952 3210115120.3132267 538669741.1560602 220589713.5648442
          428700266.651387 730197491.0583199 410936940.82866025 1149974327.1184053 954221779.4811338 1333937137.2353928
          1298376725.7888122
        </DataArray>
      </PointData>
      <CellData>
        <DataArray type="UInt8" Name="vtkGhostType" format="ascii" RangeMin="0" RangeMax="0">
          0 0 0 0 0 0
          0 0 0 0 0
        </DataArray>
        <DataArray type="Float64" Name="Gauss Stress" NumberOfComponents="6" format="ascii" RangeMin="8025.8280154562335" RangeMax="226049.92336476565">
          71329.13408985944 25749.104985182334 0 37342.67763202207 0 0
          -188827.21575031726 -52183.443795502455 0 -112781.8187423895 0 0
          -27986.894154652004 -151.93182186568407 0 -12475.5133665761 0 0
          30157.603869899664 11435.480646750731 0 8025.589270586524 0 0
          15834.524775214824 12840.739353109937 0 -1029.1181394412133 0 0
          -298.12708512885456 6103.7038410439545 0 -5202.867958695473 0 0
          13647.835801062132 8278.799848658367 0 -6912.91219840711 0 0
          -530.0457852749169 12131.415049054898 0 -663.4986756979979 0 0
          17280.91670027032 4257.070719088285 0 -6380.626682169291 0 0
          -10177.394691372312 5264.758638413425 0 3612.681749237625 0 0
          -15364.0546589986 1526.5707426220101 0 5685.123167112795 0 0
          <InformationKey name="L2_NORM_RANGE" location="vtkDataArray" length="2">
            <Value index="0">
              8025.8280155
            </Value>
            <Value index="1">
              226049.92336
            </Value>
          </InformationKey>
        </DataArray>
        <DataArray type="Float64" Name="Gauss Strain" NumberOfComponents="6" format="ascii" RangeMin="0.0007533144044818285" RangeMax="0.017036221863511447">
          0.004175327256947735 -0.0007082472899819558 0 0.004001001174859507 0 0
          -0.011623963846611865 0.0030164402914040125 0 -0.012083766293827444 0 0
          -0.0019936377316942264 0.0009886796611043081 0 -0.001336662146418868 0 0
          0.0017457045390374501 -0.0002602372348713642 0 0.0008598845647056993 0 0
          0.0006724396499042755 0.00035167692610732336 0 -0.00011026265779727273 0 0
          -0.0002392842146893451 0.000446626241686313 0 -0.0005574501384316578 0 0
          0.0006791739911952106 0.00010392013915195008 0 -0.0007406691641150475 0 0
          -0.0004711252364144548 0.0008854598529780258 0 -0.0000710891438247854 0 0
          0.001082312952909013 -0.00031309911650334826 0 -0.0006836385730895669 0 0
          -0.0009149838578985021 0.0007395325702928271 0 0.000387073044561174 0 0
          -0.0011519528593078288 0.0006577570051515222 0 0.0006091203393335136 0 0
          <InformationKey name="L2_NORM_RANGE" location="vtkDataArray" length="2">
            <Value index="0">
              0.00075331440448
            </Value>
            <Value index="1">
              0.017036221864
            </Value>
          </InformationKey>
        </DataArray>
      </CellData>
      <Points>
        <DataArray type="Float32" Name="Points" NumberOfComponents="3" format="ascii" RangeMin="0" RangeMax="0.6020797527609908">
          0 0.05000000074505806 0 0 0 0
          0.10000000149011612 0.05000000074505806 0 0.10000000149011612 0 0
          0.20000000298023224 0.05000000074505806 0 0.20000000298023224 0 0
          0.30000001192092896 0.05000000074505806 0 0.30000001192092896 0 0
          0.4000000059604645 0.05000000074505806 0 0.4000000059604645 0 0
          0.5 0.05000000074505806 0 0.5 0 0
          0.6000000238418579 0.05000000074505806 0
          <InformationKey name="L2_NORM_RANGE" location="vtkDataArray" length="2">
            <Value index="0">
              0
            </Value>
            <Value index="1">
              0.60207975276
            </Value>
          </InformationKey>
        </DataArray>
      </Points>
      <Cells>
        <DataArray type="Int64" Name="connectivity" format="ascii" RangeMin="0" RangeMax="12">
          3 2 1 2 0 1
          5 4 3 4 2 3
          7 6 5 6 4 5
          9 8 7 8 6 7
          11 10 9 10 8 9
          12 10 11
        </DataArray>
        <DataArray type="Int64" Name="offsets" format="ascii" RangeMin="3" RangeMax="33">
          3 6 9 12 15 18
          21 24 27 30 33
        </DataArray>
        <DataArray type="UInt8" Name="types" format="ascii" RangeMin="5" RangeMax="5">
          5 5 5 5 5 5
          5 5 5 5 5
        </DataArray>
      </Cells>
    </Piece>
  </UnstructuredGrid>
</VTKFile>
