<?xml version="1.0"?>
<VTKFile type="UnstructuredGrid" version="0.1" byte_order="LittleEndian" header_type="UInt32" compressor="vtkZLibDataCompressor">
  <UnstructuredGrid>
    <Piece NumberOfPoints="13" NumberOfCells="11">
      <PointData>
        <DataArray type="Float64" Name="Disp" NumberOfComponents="3" format="ascii" RangeMin="0" RangeMax="0.09762028887055937">
          0 0 0 0 0 0
          -0.0008723503736021075 0.002787916885022272 0 0.001651270903190291 0.0026793153805812165 0
          -0.002780036960684571 0.011210066798412686 0 0.003152347914249029 0.011053491135200632 0
          -0.004186155174688216 0.026815105090769963 0 0.005090654872264064 0.026987657409590766 0
          -0.00522403013510861 0.04744415786628341 0 0.005928496950204207 0.0475175781134028 0
          -0.005901653418622862 0.07138687366851586 0 0.006649709104213359 0.07146039306241807 0
          -0.006296170108841853 0.0974170367088426 0
          <InformationKey name="L2_NORM_RANGE" location="vtkDataArray" length="2">
            <Value index="0">
              0
            </Value>
            <Value index="1">
              0.097620288871
            </Value>
          </InformationKey>
        </DataArray>
        <DataArray type="Float64" Name="Nodal Stress" NumberOfComponents="6" format="ascii" RangeMin="26496.37471607454" RangeMax="3127181.880173754">
          2717922.4778042585 485477.72832471447 0 1468494.2259450972 0 0
          175763.31455553087 -175557.25605893982 0 29788.585283293054 0 0
          -218507.16319512064 -54169.72966542619 0 -42567.10429606371 0 0
          84525.51035525976 17921.33523207653 0 -43759.39989017601 0 0
          24279.065628562963 62148.90138824064 0 63918.00326017036 0 0
          109607.20132285949 18133.59908761454 0 -25229.66272465913 0 0
          -100918.17488897766 -28038.10295738617 0 24894.68821369831 0 0
          46921.507113391846 -29499.82028686652 0 -9502.334572904772 0 0
          -63238.95976184813 -21746.412587619514 0 24910.72567510979 0 0
          33976.39082167901 -18869.924877565372 0 -8778.769719216962 0 0
          -47527.15013719565 -19589.417024900467 0 16715.180814831318 0 0
          18895.108507493886 -18228.269882076016 0 -3572.5235745711743 0 0
          -31764.38525373261 -15071.590990172168 0 10941.255837239782 0 0
          <InformationKey name="L2_NORM_RANGE" location="vtkDataArray" length="2">
            <Value index="0">
              26496.374716
            </Value>
            <Value index="1">
              3127181.8802
            </Value>
          </InformationKey>
        </DataArray>
        <DataArray type="Float64" Name="Nodal Strain" NumberOfComponents="6" format="ascii" RangeMin="0.002091078675261389" RangeMax="0.24475703040358882">
          0.17679882954585008 -0.06239167932695816 0 0.15733866706554614 0 0
          0.018824424470357197 -0.018817065238336088 0 0.0031916341374956954 0 0
          -0.013673021311600548 0.003934560852295295 0 -0.004560761174578252 0 0
          0.005397488767087251 -0.0017386728532538102 0 -0.004688507131090286 0 0
          -0.00048538464753980997 0.0035720977552827974 0 0.006848357492161109 0 0
          0.0071814572699323035 -0.0026192858267010855 0 -0.0027031781490706205 0 0
          -0.006207080243591758 0.0016014988919359039 0 0.0026672880228962477 0 0
          0.004405101232630364 -0.0037828981316830315 0 -0.0010181072756683686 0 0
          -0.0037404109620027414 0.000705219092378896 0 0.0026690063223331916 0 0
          0.003100810947175835 -0.002561294306314634 0 -0.0009405824699161031 0 0
          -0.00269517440176753 0.00029815414597838223 0 0.0017909122301604985 0 0
          0.0020006602463237067 -0.001976844581130212 0 -0.0003827703829897687 0 0
          -0.0017306135541890377 0.000057900116906723605 0 0.0011722774111328337 0 0
          <InformationKey name="L2_NORM_RANGE" location="vtkDataArray" length="2">
            <Value index="0">
              0.0020910786753
            </Value>
            <Value index="1">
              0.2447570304
            </Value>
          </InformationKey>
        </DataArray>
        <DataArray type="Float64" Name="Sld_traction" NumberOfComponents="3" format="ascii" RangeMin="23158.95262159656" RangeMax="353980.4049656054">
          50908.052333592 -141449.38639495926 0 -353616.39349751064 -16049.091856791732 0
          243308.0164637944 115213.43252037186 0 21596.193373922622 -8363.104584153825 0
          60765.35844858118 30563.86716369609 0 89705.17335481914 -20775.904235189333 0
          90701.76021883421 -24099.107280934186 0 51467.77455542791 24036.227169477308 0
          54184.93963905428 -22948.42366736227 0 35297.12049938076 19934.69319656653 0
          40223.93551439504 -19494.850648333908 0 21947.126803873743 17884.644378139255 0
          24385.35142443417 -14795.140648009807 0
          <InformationKey name="L2_NORM_RANGE" location="vtkDataArray" length="2">
            <Value index="0">
              23158.952622
            </Value>
            <Value index="1">
              353980.40497
            </Value>
          </InformationKey>
        </DataArray>
        <DataArray type="Float64" Name="Velocity" NumberOfComponents="3" format="ascii" RangeMin="0" RangeMax="3.6304130107904844">
          0 0 0 0 0 0
          0.06090460242183515 -0.19148769095111629 0 -0.10445788169619374 -0.1894984437634164 0
          0.15515230886951326 -0.7019398118256381 0 -0.17276194315290305 -0.7008274111962498 0
          0.18581316790527325 -1.4908001970643365 0 -0.23673003134955284 -1.504511446517748 0
          0.17945212862954785 -2.331881422024928 0 -0.21858008983081056 -2.339129562975099 0
          0.141984796892916 -3.0733840512964505 0 -0.18439069073887593 -3.076992076250143 0
          0.09160879820502776 -3.629257011704773 0
          <InformationKey name="L2_NORM_RANGE" location="vtkDataArray" length="2">
            <Value index="0">
              0
            </Value>
            <Value index="1">
              3.6304130108
            </Value>
          </InformationKey>
        </DataArray>
        <DataArray type="Float64" Name="Acceleration" NumberOfComponents="3" format="ascii" RangeMin="0" RangeMax="1397.9323104952025">
          0 0 0 0 0 0
          36.089929854921365 -112.73274068848559 0 -59.33711258567041 -112.88580838943426 0
          82.68435115232296 -396.81335933326045 0 -91.14756434715719 -398.4885883687057 0
          84.81070591850039 -792.877162349876 0 -112.10980947087137 -801.3967538092365 0
          62.32655102071658 -1148.988754971775 0 -83.16560446849599 -1153.785258445554 0
          20.018618927627358 -1367.5785176799982 0 -42.86323687069944 -1369.3513600995502 0
          -28.287350576332756 -1397.6460819978092 0
          <InformationKey name="L2_NORM_RANGE" location="vtkDataArray" length="2">
            <Value index="0">
              0
            </Value>
            <Value index="1">
              1397.9323105
            </Value>
          </InformationKey>
        </DataArray>
        <DataArray type="Float64" Name="Sigma" NumberOfComponents="6" format="ascii" RangeMin="73029.4903945664" RangeMax="7635451.049251173">
          6625819.7048347965 1451940.7651380755 0 3505780.0813890225 0 0
          -652112.6801166222 -593309.8451731424 0 -572280.7324786282 0 0
          -1508650.7934161946 -149474.74688440943 0 -565302.5265190261 0 0
          794155.8376633747 203906.77960683894 0 152256.58382988785 0 0
          108976.89308802954 162741.20217648553 0 215278.1234698503 0 0
          156463.00136712063 14023.702044173902 0 -166322.76308445938 0 0
          -317151.2161912363 -79098.37337866056 0 68782.18333111162 0 0
          167636.59005935336 -68796.08657143361 0 -25196.571620965144 0 0
          -160158.58779952297 -9935.138676868059 0 53803.70451870864 0 0
          101821.89022576736 -30751.263340125744 0 -41697.597764247585 0 0
          -123145.12227988614 -26616.43334428779 0 41112.63642837945 0 0
          61193.0900578772 -34595.37642341623 0 -19795.760318329078 0 0
          -79819.0580448856 -17238.60333921549 0 23089.36285414382 0 0
          <InformationKey name="L2_NORM_RANGE" location="vtkDataArray" length="2">
            <Value index="0">
              73029.490395
            </Value>
            <Value index="1">
              7635451.0493
            </Value>
          </InformationKey>
        </DataArray>
        <DataArray type="Float64" Name="Press" format="ascii" RangeMin="-58643.60506843659" RangeMax="38281.71896993819">
          -58643.60506843659 -47896.71790039025 -54002.09688247695 -29882.048320092956 -50850.392056347206 -18737.436612702535
          18395.17964717006 38281.71896993819 -3737.5402029132683 13305.105297772234 4319.8005907299475 15286.2170149265
          3128.7093432247266
        </DataArray>
        <DataArray type="Float64" Name="Dev strain" NumberOfComponents="6" format="ascii" RangeMin="0.002284535844680166" RangeMax="0.2456856884198761">
          0.17875584762549063 -0.060434661247317625 0 0.15733866706554614 0 0
          0.020557088393370795 -0.017084401315322496 0 0.0031916341374956954 0 0
          -0.01191985431499158 0.0056877278489042594 0 -0.004560761174578252 0 0
          0.006753534666823263 -0.00038262695351780205 0 -0.004688507131090286 0 0
          0.0008180327317428708 0.004875515134565481 0 0.006848357492161109 0 0
          0.0076842411206606495 -0.00211650197597274 0 -0.0027031781490706205 0 0
          -0.006489436524360301 0.0013191426111673588 0 0.0026672880228962477 0 0
          0.0036504189070553274 -0.0045375804572580685 0 -0.0010181072756683686 0 0
          -0.0040483377106808405 0.000397292343700797 0 0.0026690063223331916 0 0
          0.002700325564595087 -0.0029617796888953825 0 -0.0009405824699161031 0 0
          -0.002940688143761841 0.00005264040398407081 0 0.0017909122301604985 0 0
          0.0016160252063167069 -0.002361479621137211 0 -0.0003827703829897687 0 0
          -0.0019538508901574755 -0.0001653372190617141 0 0.0011722774111328337 0 0
          <InformationKey name="L2_NORM_RANGE" location="vtkDataArray" length="2">
            <Value index="0">
              0.0022845358447
            </Value>
            <Value index="1">
              0.24568568842
            </Value>
          </InformationKey>
        </DataArray>
        <DataArray type="Float64" Name="J2 Stresses" format="ascii" RangeMin="2568685201.9998503" RangeMax="26077432867989.406">
          26077432867989.406 470510069165.69995 1229076694837.9343 341926251462.11115 30766498667.65881 19254482887.927982
          54603470487.313805 16576180732.498543 13598449768.217182 6091341177.9082365 8359140051.172541 2568685201.9998503
          3467405405.382394
        </DataArray>
      </PointData>
      <CellData>
        <DataArray type="UInt8" Name="vtkGhostType" format="ascii" RangeMin="0" RangeMax="0">
          0 0 0 0 0 0
          0 0 0 0 0
        </DataArray>
        <DataArray type="Float64" Name="Gauss Stress" NumberOfComponents="6" format="ascii" RangeMin="31971.47655836938" RangeMax="1647832.6638610426">
          -499462.8329908005 -223552.89185122427 0 -328442.22505592206 0 0
          1434837.9371502243 182871.25107640648 0 789398.9407971222 0 0
          320041.95170979394 93733.9356127852 0 67070.64807175957 0 0
          -246750.86664123583 27479.565879999333 0 -65922.60640642924 0 0
          14962.612413214483 -31977.098633838184 0 -40912.383791437634 0 0
          -34301.323585988655 15491.293940039717 0 39245.84790550085 0 0
          52383.05885013164 -20544.401507876748 0 -4363.488288834704 0 0
          -85577.95183907032 -34963.41340425574 0 32463.105409618383 0 0
          24260.32696906238 -19683.983401467027 0 -6793.573884732404 0 0
          -55864.81805601762 -17805.156558564224 0 17739.58106094684 0 0
          -39678.78777267113 -18571.895386012777 0 14802.079654731398 0 0
          <InformationKey name="L2_NORM_RANGE" location="vtkDataArray" length="2">
            <Value index="0">
              31971.476558
            </Value>
            <Value index="1">
              1647832.6639
            </Value>
          </InformationKey>
        </DataArray>
        <DataArray type="Float64" Name="Gauss Strain" NumberOfComponents="6" format="ascii" RangeMin="0.0026900324283879854" RangeMax="0.133488516675798">
          -0.027691884790370616 0.0018698946174411394 0 -0.035190238398848786 0 0
          0.09595730797228726 -0.038181979821336115 0 0.08457845794254881 0 0
          0.019512498850242956 -0.004734788588722268 0 0.007186140864831382 0 0
          -0.018606474970088247 0.01077535708575837 0 -0.007063136400688852 0 0
          0.0022107972664381125 -0.002818457488603245 0 -0.004383469691939746 0 0
          -0.003003355039714894 0.0023315682666452883 0 0.004204912275589377 0 0
          0.004475375686005002 -0.0033382807809244695 0 -0.00046751660237514647 0 0
          -0.004864017509781604 0.0005589687510913861 0 0.0034781898653162553 0 0
          0.0024358799049854205 -0.0022724390632855866 0 -0.0007278829162213292 0 0
          -0.003354445698338252 0.0007233751763888988 0 0.0019006693993871618 0 0
          -0.002170917148547483 0.00009053560716591334 0 0.0015859371058640779 0 0
          <InformationKey name="L2_NORM_RANGE" location="vtkDataArray" length="2">
            <Value index="0">
              0.0026900324284
            </Value>
            <Value index="1">
              0.13348851668
            </Value>
          </InformationKey>
        </DataArray>
      </CellData>
      <Points>
        <DataArray type="Float32" Name="Points" NumberOfComponents="3" format="ascii" RangeMin="0" RangeMax="0.6020797527609908">
          0 0.05000000074505806 0 0 0 0
          0.10000000149011612 0.05000000074505806 0 0.10000000149011612 0 0
          0.20000000298023224 0.05000000074505806 0 0.20000000298023224 0 0
          0.30000001192092896 0.05000000074505806 0 0.30000001192092896 0 0
          0.4000000059604645 0.05000000074505806 0 0.4000000059604645 0 0
          0.5 0.05000000074505806 0 0.5 0 0
          0.6000000238418579 0.05000000074505806 0
          <InformationKey name="L2_NORM_RANGE" location="vtkDataArray" length="2">
            <Value index="0">
              0
            </Value>
            <Value index="1">
              0.60207975276
            </Value>
          </InformationKey>
        </DataArray>
      </Points>
      <Cells>
        <DataArray type="Int64" Name="connectivity" format="ascii" RangeMin="0" RangeMax="12">
          3 2 1 2 0 1
          5 4 3 4 2 3
          7 6 5 6 4 5
          9 8 7 8 6 7
          11 10 9 10 8 9
          12 10 11
        </DataArray>
        <DataArray type="Int64" Name="offsets" format="ascii" RangeMin="3" RangeMax="33">
          3 6 9 12 15 18
          21 24 27 30 33
        </DataArray>
        <DataArray type="UInt8" Name="types" format="ascii" RangeMin="5" RangeMax="5">
          5 5 5 5 5 5
          5 5 5 5 5
        </DataArray>
      </Cells>
    </Piece>
  </UnstructuredGrid>
</VTKFile>
