<?xml version="1.0"?>
<VTKFile type="UnstructuredGrid" version="0.1" byte_order="LittleEndian" header_type="UInt32" compressor="vtkZLibDataCompressor">
  <UnstructuredGrid>
    <Piece NumberOfPoints="13" NumberOfCells="11">
      <PointData>
        <DataArray type="Float64" Name="Disp" NumberOfComponents="3" format="ascii" RangeMin="0" RangeMax="0.08010995982616943">
          0 0 0 0 0 0
          -0.0006081356141063774 0.0019554520976452477 0 0.0011920867467708409 0.001858593729843933 0
          -0.002085284973476607 0.008120004491949053 0 0.0023765349056439115 0.00797372155188245 0
          -0.003320810656689672 0.020135491382009544 0 0.003997614155993876 0.02024949123999332 0
          -0.004342390784234223 0.03678224303428499 0 0.004871515639783381 0.03682540517152487 0
          -0.005135329680426436 0.05699034559971873 0 0.005693954913867735 0.05704736781902478 0
          -0.005704961823531179 0.07990656464861026 0
          <InformationKey name="L2_NORM_RANGE" location="vtkDataArray" length="2">
            <Value index="0">
              0
            </Value>
            <Value index="1">
              0.080109959826
            </Value>
          </InformationKey>
        </DataArray>
        <DataArray type="Float64" Name="Nodal Stress" NumberOfComponents="6" format="ascii" RangeMin="29842.946341315295" RangeMax="2310851.3804171425">
          2013294.0072122405 339591.6433250853 0 1082293.3330122936 0 0
          132637.21576758267 -144144.22400319244 0 16629.909666643605 0 0
          -163192.25131836126 -40225.52610171559 0 -34292.176871830015 0 0
          68253.29723624626 19932.835005996414 0 -33799.86646680715 0 0
          16771.8922767439 52290.988161033216 0 46819.862114706324 0 0
          90517.0888333618 18755.26831486619 0 -21992.879002980535 0 0
          -79787.97211993719 -15767.023642998964 0 19703.984351664392 0 0
          46365.75870079919 -17357.50518740193 0 -11229.462346569224 0 0
          -55774.72815502493 -13154.611690756614 0 21332.561476165418 0 0
          37612.827584807674 -11909.688384622963 0 -10993.712926862585 0 0
          -46825.116406075394 -13834.764970801605 0 16534.99531378076 0 0
          25635.01642246547 -13722.512565544243 0 -6718.632914442493 0 0
          -36130.52999549451 -12991.740001617125 0 12886.305232371678 0 0
          <InformationKey name="L2_NORM_RANGE" location="vtkDataArray" length="2">
            <Value index="0">
              29842.946341
            </Value>
            <Value index="1">
              2310851.3804
            </Value>
          </InformationKey>
        </DataArray>
        <DataArray type="Float64" Name="Nodal Strain" NumberOfComponents="6" format="ascii" RangeMin="0.0025530910333400212" RangeMax="0.1818135096044835">
          0.13167844182497843 -0.04764681144864535 0 0.1159599999656029 0 0
          0.014622094840655638 -0.01503305942049884 0 0.0017817760357118143 0 0
          -0.010219963447678823 0.002955042825533217 0 -0.0036741618076960754 0 0
          0.004163348552374863 -0.001013843829437622 0 -0.0036214142643007665 0 0
          -0.000669542985983765 0.0031360744301900914 0 0.005016413798004249 0 0
          0.00579567533399491 -0.0018930911501296218 0 -0.002356379893176487 0 0
          -0.005136032878459836 0.0017233544583549725 0 0.0021111411805354702 0 0
          0.003931750806750012 -0.002895741752700109 0 -0.0012031566799895598 0 0
          -0.0035141015935461883 0.0010523394561968464 0 0.002285631586732009 0 0
          0.003111976555508512 -0.0021940072983590575 0 -0.00117789781359242 0 0
          -0.0028505524229053285 0.0006841280880168634 0 0.001771606640762224 0 0
          0.0023211623360883996 -0.001895715769769784 0 -0.00071985352654741 0 0
          -0.0021167614281918535 0.00036239464258072326 0 0.0013806755606112513 0 0
          <InformationKey name="L2_NORM_RANGE" location="vtkDataArray" length="2">
            <Value index="0">
              0.0025530910333
            </Value>
            <Value index="1">
              0.1818135096
            </Value>
          </InformationKey>
        </DataArray>
        <DataArray type="Float64" Name="Sld_traction" NumberOfComponents="3" format="ascii" RangeMin="21280.08733471076" RangeMax="259460.9452424934">
          33944.24302063552 -114022.88670307718 0 -259460.52245145052 468.39657183455216 0
          178081.36514410508 87241.29943914988 0 18401.95389977472 -10686.917686755305 0
          46114.451456198134 28022.061474329435 0 73025.03019159024 -21259.071043380973 0
          73468.40617875542 -12922.83994656228 0 48615.26987118797 13246.980846456963 0
          50292.43359188438 -14372.638392242367 0 38613.91275480151 12355.11092575894 0
          42373.808662130934 -14077.616909205779 0 28879.632044957667 13159.385578969193 0
          31169.499962168673 -13103.49029422703 0
          <InformationKey name="L2_NORM_RANGE" location="vtkDataArray" length="2">
            <Value index="0">
              21280.087335
            </Value>
            <Value index="1">
              259460.94524
            </Value>
          </InformationKey>
        </DataArray>
        <DataArray type="Float64" Name="Velocity" NumberOfComponents="3" format="ascii" RangeMin="0" RangeMax="2.4606216090394426">
          0 0 0 0 0 0
          0.053819240678510905 -0.16368570882568179 0 -0.07319593816949499 -0.171835885238379 0
          0.06819615676907054 -0.4776612288368369 0 -0.06900830204682418 -0.49405645005620613 0
          -0.02416500979610392 -0.6429963871854536 0 0.0006728041138839291 -0.6580516772262186 0
          -0.16918135236777454 -0.3264319971282603 0 0.15222029893000721 -0.3365763975260201 0
          -0.35210467126561085 0.6630954368120712 0 0.3318019951831772 0.6626206868638533 0
          -0.5341948506243801 2.40193558707103 0
          <InformationKey name="L2_NORM_RANGE" location="vtkDataArray" length="2">
            <Value index="0">
              0
            </Value>
            <Value index="1">
              2.460621609
            </Value>
          </InformationKey>
        </DataArray>
        <DataArray type="Float64" Name="Acceleration" NumberOfComponents="3" format="ascii" RangeMin="0" RangeMax="442.3799866975216">
          0 0 0 0 0 0
          0.92414534270074 -3.3069777622245056 0 -2.9202609635156023 -2.6029921133181233 0
          7.0891747516329815 -20.537871260166867 0 -8.40795138262547 -19.334664134637933 0
          15.7464601220031 -69.12694024355733 0 -18.05994421177229 -69.14246584118882 0
          25.195814927628817 -154.74033012217114 0 -27.081497415085323 -154.6034408766427 0
          34.866390858959676 -278.9011964130477 0 -36.79006706580094 -279.15037782328 0
          43.48383632528248 -440.2376728642557 0
          <InformationKey name="L2_NORM_RANGE" location="vtkDataArray" length="2">
            <Value index="0">
              0
            </Value>
            <Value index="1">
              442.3799867
            </Value>
          </InformationKey>
        </DataArray>
        <DataArray type="Float64" Name="Sigma" NumberOfComponents="6" format="ascii" RangeMin="88433.3339809871" RangeMax="5649540.906255223">
          4910093.145076137 1046047.5479954674 0 2591154.6239968166 0 0
          -476519.65185404674 -466570.0479582217 0 -432491.1370279566 0 0
          -1122613.6653565464 -99281.53063965464 0 -420644.77891650156 0 0
          603089.1094814957 166420.50337888 0 113138.75928116181 0 0
          74570.73630007442 127662.23209272226 0 159912.68253382115 0 0
          138698.4648963397 16067.689834131164 0 -130475.62349533924 0 0
          -252087.02651010198 -49140.22304176054 0 57680.75751840553 0 0
          155583.8503411166 -45181.337926942375 0 -29386.44644934624 0 0
          -145840.43263269262 -1569.4408515955568 0 50174.72446508933 0 0
          110368.36169236533 -21524.490794362682 0 -43670.20993440373 0 0
          -124882.46765522614 -16697.74272935608 0 43374.94617254342 0 0
          79287.68289896824 -27771.63895970658 0 -27616.190341847927 0 0
          -94034.60944494646 -13625.38486717276 0 30568.34281752255 0 0
          <InformationKey name="L2_NORM_RANGE" location="vtkDataArray" length="2">
            <Value index="0">
              88433.333981
            </Value>
            <Value index="1">
              5649540.9063
            </Value>
          </InformationKey>
        </DataArray>
        <DataArray type="Float64" Name="Press" format="ascii" RangeMin="-44483.2216346289" RangeMax="27767.139034388085">
          -44483.2216346289 -36869.44406042766 -42041.05676303176 -24735.478885287765 -40488.41220791536 -15246.789669319181
          9899.89975119584 27767.139034388085 -6180.125550326144 10878.501121026104 700.5012741533789 13639.130991053556
          898.2156346705974
        </DataArray>
        <DataArray type="Float64" Name="Dev strain" NumberOfComponents="6" format="ascii" RangeMin="0.002674068998634589" RangeMax="0.18251727568259354">
          0.13317734311152057 -0.046147910162103234 0 0.1159599999656029 0 0
          0.01596485640443997 -0.013690297856714507 0 0.0017817760357118143 0 0
          -0.008849642553892614 0.004325363719319424 0 -0.0036741618076960754 0 0
          0.005251408210063455 0.00007421582825097226 0 -0.0036214142643007665 0 0
          0.00038711227404165753 0.004192729690215515 0 0.005016413798004249 0 0
          0.006240991116078996 -0.0014477753680455327 0 -0.002356379893176487 0 0
          -0.005248448234052311 0.0016109391027624984 0 0.0021111411805354702 0 0
          0.003426768383953061 -0.003400724175497058 0 -0.0012031566799895598 0 0
          -0.0036653245936480363 0.0009011164560949993 0 0.002285631586732009 0 0
          0.002827101471582164 -0.0024788823822854047 0 -0.00117789781359242 0 0
          -0.0029932796906238525 0.0005414008202983394 0 0.001771606640762224 0 0
          0.0020057035697587274 -0.002211174536099456 0 -0.00071985352654741 0 0
          -0.0022815167557929013 0.0001976393149796749 0 0.0013806755606112513 0 0
          <InformationKey name="L2_NORM_RANGE" location="vtkDataArray" length="2">
            <Value index="0">
              0.0026740689986
            </Value>
            <Value index="1">
              0.18251727568
            </Value>
          </InformationKey>
        </DataArray>
        <DataArray type="Float64" Name="J2 Stresses" format="ascii" RangeMin="3719563787.2471104" RangeMax="14280135654360.523">
          14280135654360.523 269141440029.3532 679294639493.1346 198906223672.95184 17322236616.406326 14003689492.227886
          33813082674.62369 13339734700.647842 11265323211.325714 6799011292.235413 8407569158.824944 3719563787.2471104
          4747685338.773493
        </DataArray>
      </PointData>
      <CellData>
        <DataArray type="UInt8" Name="vtkGhostType" format="ascii" RangeMin="0" RangeMax="0">
          0 0 0 0 0 0
          0 0 0 0 0
        </DataArray>
        <DataArray type="Float64" Name="Gauss Stress" NumberOfComponents="6" format="ascii" RangeMin="34221.85477122568" RangeMax="1216031.5488096476">
          -366563.3958126147 -167692.3516425811 0 -246665.7188877653 0 0
          1062522.0351358182 118934.08231316757 0 579339.569350786 0 0
          245295.87663846248 76559.91484773702 0 47525.272773214536 0 0
          -184072.92247707042 29178.752325237598 0 -49197.77903383947 0 0
          21538.512614539723 -18611.20733943567 0 -34060.43747542665 0 0
          -28217.709146575544 16251.465586351385 0 29039.27218562914 0 0
          50859.09800195914 -11936.584989270857 0 -7627.310639553551 0 0
          -70285.56518880675 -21468.029528346888 0 26156.345178049545 0 0
          29997.236774113502 -13591.913032397435 0 -9303.818034569409 0 0
          -51651.887250233376 -11464.265843486992 0 16626.486901076347 0 0
          -41463.84876710894 -14285.639552119294 0 15442.366216072687 0 0
          <InformationKey name="L2_NORM_RANGE" location="vtkDataArray" length="2">
            <Value index="0">
              34221.854771
            </Value>
            <Value index="1">
              1216031.5488
            </Value>
          </InformationKey>
        </DataArray>
        <DataArray type="Float64" Name="Gauss Strain" NumberOfComponents="6" format="ascii" RangeMin="0.0029932216249444433" RangeMax="0.09926541621567225">
          -0.020194087142237447 0.0011135247331233037 0 -0.026428469880832004 0 0
          0.07164678528423105 -0.02945192394676724 0 0.06207209671615564 0 0
          0.014786851372471002 -0.0032920016765353 0 0.005091993511415844 0 0
          -0.014190164188549232 0.008658229540269485 0 -0.0052711906107685185 0 0
          0.0022031511631612536 -0.0020986045461932517 0 -0.003649332586652855 0 0
          -0.00259596013855366 0.002168594297117083 0 0.003111350591317409 0 0
          0.004059099321185326 -0.0026690095707321733 0 -0.0008172118542378801 0 0
          -0.004253682173188095 0.0009767680761468916 0 0.0028024655547910227 0 0
          0.0026280852350223016 -0.002042180815675299 0 -0.0009968376465610083 0 0
          -0.0032799824520349913 0.0010258341272592632 0 0.0017814093108296084 0 0
          -0.0024515020707892364 0.0004604489165310841 0 0.0016545392374363594 0 0
          <InformationKey name="L2_NORM_RANGE" location="vtkDataArray" length="2">
            <Value index="0">
              0.0029932216249
            </Value>
            <Value index="1">
              0.099265416216
            </Value>
          </InformationKey>
        </DataArray>
      </CellData>
      <Points>
        <DataArray type="Float32" Name="Points" NumberOfComponents="3" format="ascii" RangeMin="0" RangeMax="0.6020797527609908">
          0 0.05000000074505806 0 0 0 0
          0.10000000149011612 0.05000000074505806 0 0.10000000149011612 0 0
          0.20000000298023224 0.05000000074505806 0 0.20000000298023224 0 0
          0.30000001192092896 0.05000000074505806 0 0.30000001192092896 0 0
          0.4000000059604645 0.05000000074505806 0 0.4000000059604645 0 0
          0.5 0.05000000074505806 0 0.5 0 0
          0.6000000238418579 0.05000000074505806 0
          <InformationKey name="L2_NORM_RANGE" location="vtkDataArray" length="2">
            <Value index="0">
              0
            </Value>
            <Value index="1">
              0.60207975276
            </Value>
          </InformationKey>
        </DataArray>
      </Points>
      <Cells>
        <DataArray type="Int64" Name="connectivity" format="ascii" RangeMin="0" RangeMax="12">
          3 2 1 2 0 1
          5 4 3 4 2 3
          7 6 5 6 4 5
          9 8 7 8 6 7
          11 10 9 10 8 9
          12 10 11
        </DataArray>
        <DataArray type="Int64" Name="offsets" format="ascii" RangeMin="3" RangeMax="33">
          3 6 9 12 15 18
          21 24 27 30 33
        </DataArray>
        <DataArray type="UInt8" Name="types" format="ascii" RangeMin="5" RangeMax="5">
          5 5 5 5 5 5
          5 5 5 5 5
        </DataArray>
      </Cells>
    </Piece>
  </UnstructuredGrid>
</VTKFile>
