<?xml version="1.0"?>
<VTKFile type="UnstructuredGrid" version="0.1" byte_order="LittleEndian" header_type="UInt32" compressor="vtkZLibDataCompressor">
  <UnstructuredGrid>
    <Piece NumberOfPoints="13" NumberOfCells="11">
      <PointData>
        <DataArray type="Float64" Name="Disp" NumberOfComponents="3" format="ascii" RangeMin="0.032285388212591554" RangeMax="0.17185770263625427">
          -0.005252517995682437 -0.050496308491750026 0 0.005424003720899905 -0.07190892212923308 0
          -0.005880869452428297 -0.07195840808767545 0 0.005866774697539506 -0.09552539689625704 0
          -0.006313610815037958 -0.09557228520716281 0 0.006109763518142848 -0.12048991930076643 0
          -0.006557561142194927 -0.12052649182707201 0 0.006198798266997411 -0.14607940321064086 0
          -0.006630614927362022 -0.14611069525371112 0 0.006181751849656877 -0.17173104469490386 0
          -0.006610986841651201 -0.1717305005186636 0 0.004779347475883664 -0.050446763736192446 0
          -0.004388536089965251 -0.031985731866330934 0
          <InformationKey name="L2_NORM_RANGE" location="vtkDataArray" length="2">
            <Value index="0">
              0.032285388213
            </Value>
            <Value index="1">
              0.17185770264
            </Value>
          </InformationKey>
        </DataArray>
        <DataArray type="Float64" Name="Nodal Stress" NumberOfComponents="6" format="ascii" RangeMin="2872.647919716416" RangeMax="50431.18844791904">
          -28508.17420979992 11688.036786101931 0 8079.2288787537545 0 0
          37921.41248473172 12027.646319556665 0 -13695.294571085244 0 0
          -19354.46691855418 11714.449881653973 0 5294.52315645735 0 0
          28722.51325025418 11897.485456522376 0 -10552.399013875025 0 0
          -10964.472323606697 11314.484965314952 0 2472.914082975606 0 0
          19829.121923807925 10375.906351178044 0 -7150.283827722405 0 0
          -4480.593252417716 9428.605458553713 0 357.8087593458295 0 0
          12061.700233792422 8222.977710484589 0 -3782.4005015748603 0 0
          -896.1309213905147 6456.178561371129 0 -696.8513465741481 0 0
          6220.34765147058 4209.453697113917 0 -1311.2310443431645 0 0
          -1489.2012483651997 2364.8584043093488 0 -664.7032722095046 0 0
          46345.88745103584 11250.34404779076 0 -16394.915170618613 0 0
          -39075.351708077615 8802.095737562753 0 11928.438651374123 0 0
          <InformationKey name="L2_NORM_RANGE" location="vtkDataArray" length="2">
            <Value index="0">
              2872.6479197
            </Value>
            <Value index="1">
              50431.188448
            </Value>
          </InformationKey>
        </DataArray>
        <DataArray type="Float64" Name="Nodal Strain" NumberOfComponents="6" format="ascii" RangeMin="0.0003013613940394342" RangeMax="0.003921088447073099">
          -0.0024537280430607777 0.001853008849357278 0 0.0008656316655807594 0 0
          0.0022791135232109565 -0.0004952185659149423 0 -0.0014673529897591333 0 0
          -0.0018008351328129397 0.0015279773814950756 0 0.0005672703381918589 0 0
          0.001626697894428071 -0.00017598365490033633 0 -0.0011306141800580384 0 0
          -0.0011872653433045838 0.0011997657947941645 0 0.00026495508031881495 0 0
          0.0010457977677299215 0.000032953242091006246 0 -0.0007661018386845434 0 0
          -0.0006567782844067551 0.0008334930060544697 0 0.00003833665278705313 0 0
          0.0005678722413250093 0.00015658054239916995 0 -0.0004052571965973064 0 0
          -0.00029458715729114855 0.0004931602872904563 0 -0.00007466264427580158 0 0
          0.00029397291449383015 0.00007851999081275911 0 -0.00014048904046533905 0 0
          -0.00019083074646570526 0.00022210421632085344 0 -0.00007121820773673264 0 0
          0.002908622530510033 -0.0008516142626947968 0 -0.001756598053994852 0 0
          -0.0031054571126327857 0.0020242693994001115 0 0.0012780469983615132 0 0
          <InformationKey name="L2_NORM_RANGE" location="vtkDataArray" length="2">
            <Value index="0">
              0.00030136139404
            </Value>
            <Value index="1">
              0.0039210884471
            </Value>
          </InformationKey>
        </DataArray>
        <DataArray type="Float64" Name="Sld_traction" NumberOfComponents="3" format="ascii" RangeMin="2056.170884611504" RangeMax="44706.90219137303">
          -31826.01344090966 -11030.400337473786 0 -34042.14593280873 12309.914557158634 0
          -22605.2467063861 -11480.107766947305 0 -24901.838249097695 11995.540467401097 0
          -13890.945859704074 -11198.68556778845 0 -15649.558613400925 10346.244962611687 0
          -6239.84835579789 -9446.198369231399 0 -7334.268154179719 7885.399026327358 0
          -1052.2130882394117 -6631.006960746931 0 287.1386967029988 2725.930342849812 0
          817.8556438349784 -1886.5181824120668 0 -43164.79138631069 11640.785545884493 0
          -39932.30193208771 -8973.475529372618 0
          <InformationKey name="L2_NORM_RANGE" location="vtkDataArray" length="2">
            <Value index="0">
              2056.1708846
            </Value>
            <Value index="1">
              44706.902191
            </Value>
          </InformationKey>
        </DataArray>
        <DataArray type="Float64" Name="Velocity" NumberOfComponents="3" format="ascii" RangeMin="1.3721904302509638" RangeMax="13.601783730441785">
          -0.37503476564521376 -2.600460351219052 0 0.4634214987780916 -4.2830310445211985 0
          -0.4761186454371584 -4.28757257532396 0 0.5444687129558576 -6.338751795291323 0
          -0.5556714962655178 -6.345679563481426 0 0.5939850974171894 -8.658315085542014 0
          -0.605873907176798 -8.664738750842652 0 0.6140452668288967 -11.113716815317588 0
          -0.6229961282411072 -11.120226441096932 0 0.6107559426805436 -13.587718277031897 0
          -0.6196854480812388 -13.587660232547293 0 0.36113118890137375 -2.5983636257118086 0
          -0.26362803305750737 -1.346627950496556 0
          <InformationKey name="L2_NORM_RANGE" location="vtkDataArray" length="2">
            <Value index="0">
              1.3721904303
            </Value>
            <Value index="1">
              13.60178373
            </Value>
          </InformationKey>
        </DataArray>
        <DataArray type="Float64" Name="Acceleration" NumberOfComponents="3" format="ascii" RangeMin="69.7324415511894" RangeMax="1807.399967925111">
          33.86468877895959 -201.67694901193317 0 -74.91497304558743 17.00342013107729 0
          67.40876634340384 17.851375990394445 0 -103.70254247131606 363.0989975544071 0
          95.7234255951098 365.27934535534587 0 -122.14409210435679 805.805223381627 0
          114.49507231990992 808.041010532077 0 -129.90682816364188 1300.393212049632 0
          121.21212303058292 1302.8378435272607 0 -128.7098336609024 1802.8112554492982 0
          120.0839856771754 1802.7976806062943 0 -41.24363768767353 -201.24051926528045 0
          2.2121239962743857 -285.4307601919136 0
          <InformationKey name="L2_NORM_RANGE" location="vtkDataArray" length="2">
            <Value index="0">
              69.732441551
            </Value>
            <Value index="1">
              1807.3999679
            </Value>
          </InformationKey>
        </DataArray>
        <DataArray type="Float64" Name="Sigma" NumberOfComponents="6" format="ascii" RangeMin="2916.764392995946" RangeMax="133334.39083945978">
          -86964.62858809967 24664.663167055114 0 30957.95336270547 0 0
          99949.89213177802 11982.896087788438 0 -33748.978998105646 0 0
          -61499.772797134814 21747.07934807116 0 22745.696007314906 0 0
          73590.8624229966 13837.52571208782 0 -25045.31818962348 0 0
          -36999.464068189154 20157.798417714625 0 13690.742846351528 0 0
          48870.64196226339 12649.095484704538 0 -15480.777737986637 0 0
          -17572.853914302083 15533.972869064357 0 5837.007765503437 0 0
          27488.548275766123 10604.39844192902 0 -6928.922538835498 0 0
          -6530.620920834964 10792.933047511644 0 400.31622642205747 0 0
          14613.809108055564 5214.822805516935 0 -809.1410317496841 0 0
          -1536.568950026236 2209.2665224188704 0 -1124.994141755196 0 0
          125191.29042648543 12269.121618509454 0 -44211.641414806305 0 0
          -113727.07633875472 17383.182639863906 0 44378.57118732122 0 0
          <InformationKey name="L2_NORM_RANGE" location="vtkDataArray" length="2">
            <Value index="0">
              2916.764393
            </Value>
            <Value index="1">
              133334.39084
            </Value>
          </InformationKey>
        </DataArray>
        <DataArray type="Float64" Name="Press" format="ascii" RangeMin="-12863.469889029187" RangeMax="895.9628424735946">
          -12863.469889029187 87.84587739281382 -10382.88034541426 -1426.0906908440606 -8535.141104684322 -2392.3347304542413
          -6196.687717111753 -1965.406704503839 -3087.5407529639724 -2715.156351503805 -2582.0790880805735 895.9628424735946
          -9769.752729781798
        </DataArray>
        <DataArray type="Float64" Name="Dev strain" NumberOfComponents="6" format="ascii" RangeMin="0.0003407626590631838" RangeMax="0.0038703716266225573">
          -0.002169901153270187 0.0021368357391478685 0 0.0008656316655807594 0 0
          0.0024174937406303038 -0.0003568383484955958 0 -0.0014673529897591333 0 0
          -0.001543774470035852 0.0017850380442721637 0 0.0005672703381918589 0 0
          0.0017716296679349843 -0.00003105188139342279 0 -0.0011306141800580384 0 0
          -0.0009627794339794988 0.0014242517041192493 0 0.00026495508031881495 0 0
          0.001186301230294402 0.00017345670465548687 0 -0.0007661018386845434 0 0
          -0.00048559289443581764 0.0010046783960254069 0 0.00003833665278705313 0 0
          0.0006734329206379039 0.0002621412217120643 0 -0.0004052571965973064 0 0
          -0.00018546472444891206 0.0006022827201326927 0 -0.00007466264427580158 0 0
          0.0003903264533533283 0.00017487352967225726 0 -0.00014048904046533905 0 0
          -0.00009291239574580414 0.0003200225670407546 0 -0.00007121820773673264 0 0
          0.0030055555618216747 -0.0007546812313831555 0 -0.001756598053994852 0 0
          -0.0028725362593962356 0.0022571902526366604 0 0.0012780469983615132 0 0
          <InformationKey name="L2_NORM_RANGE" location="vtkDataArray" length="2">
            <Value index="0">
              0.00034076265906
            </Value>
            <Value index="1">
              0.0038703716266
            </Value>
          </InformationKey>
        </DataArray>
        <DataArray type="Float64" Name="J2 Stresses" format="ascii" RangeMin="3937354.3073786264" RangeMax="8400362581.117052">
          4325194836.407065 5351533763.756042 2256920428.8495483 2960363065.801423 934507699.1124506 1334083251.0356917
          283572418.80875164 446039268.1994513 79608269.96014234 120542574.07212886 3937354.3073786264 8400362581.117052
          7110375860.782938
        </DataArray>
      </PointData>
      <CellData>
        <DataArray type="UInt8" Name="vtkGhostType" format="ascii" RangeMin="0" RangeMax="1">
          1 1 0 0 0 0
          0 0 0 0 0
        </DataArray>
        <DataArray type="Float64" Name="Gauss Stress" NumberOfComponents="6" format="ascii" RangeMin="3373.1700644955517" RangeMax="46585.520723347174">
          -32412.558092235464 10859.90254969703 0 10374.961045073465 0 0
          42098.96426700033 12345.673234730075 0 -15667.555683402163 0 0
          -23891.004536835717 11745.378081954694 0 6651.556790638245 0 0
          -15084.162194423347 11799.430445643655 0 3797.0402213476546 0 0
          33439.95219959143 11948.791996360636 0 -12016.200393471407 0 0
          -7608.613190826054 10405.567739744401 0 1348.9909579561108 0 0
          24369.491263696065 11430.284362841452 0 -8945.117693752865 0 0
          -2621.520577983496 8560.556394641819 0 -230.53284897000117 0 0
          16077.302390552532 9411.012547876027 0 -5524.230837106232 0 0
          -612.7189851179965 3277.415394299698 0 -511.272982360941 0 0
          9267.87755133837 6281.350161995326 0 -2445.915781387708 0 0
          <InformationKey name="L2_NORM_RANGE" location="vtkDataArray" length="2">
            <Value index="0">
              3373.1700645
            </Value>
            <Value index="1">
              46585.520723
            </Value>
          </InformationKey>
        </DataArray>
        <DataArray type="Float64" Name="Gauss Strain" NumberOfComponents="6" format="ascii" RangeMin="0.0003072301760091004" RangeMax="0.0035042418092590144">
          -0.002703036383363142 0.0019332986854153405 0 0.0011116029691150139 0 0
          0.002566151974973951 -0.0006217006356264354 0 -0.0016786666803645176 0 0
          -0.002125978112700933 0.001692205739312325 0 0.0007126667989969547 0 0
          -0.0014988483869460838 0.0013815365387753805 0 0.00040682573800153443 0 0
          0.001961825442957937 -0.00034079886453107673 0 -0.0012874500421576512 0 0
          -0.0009150997900498755 0.0010149910239398163 0 0.00014453474549529753 0 0
          0.0013324535058768109 -0.00005389009064332695 0 -0.0009584054671878066 0 0
          -0.0004929856268074575 0.0007050940488309691 0 -0.000024699948103928688 0 0
          0.0008122711511867513 0.00009802581089998297 0 -0.0005918818754042392 0 0
          -0.00016081619159056038 0.00025598392048990695 0 -0.0000547792481101008 0 0
          0.00043765731931005056 0.0001176722418804387 0 -0.00026206240514868297 0 0
          <InformationKey name="L2_NORM_RANGE" location="vtkDataArray" length="2">
            <Value index="0">
              0.00030723017601
            </Value>
            <Value index="1">
              0.0035042418093
            </Value>
          </InformationKey>
        </DataArray>
      </CellData>
      <Points>
        <DataArray type="Float32" Name="Points" NumberOfComponents="3" format="ascii" RangeMin="0.4000000059604645" RangeMax="1.0012492197622458">
          0.5 0 0 0.6000000238418579 0.05000000074505806 0
          0.6000000238418579 0 0 0.699999988079071 0.05000000074505806 0
          0.699999988079071 0 0 0.800000011920929 0.05000000074505806 0
          0.800000011920929 0 0 0.8999999761581421 0.05000000074505806 0
          0.8999999761581421 0 0 1 0.05000000074505806 0
          1 0 0 0.5 0.05000000074505806 0
          0.4000000059604645 0 0
          <InformationKey name="L2_NORM_RANGE" location="vtkDataArray" length="2">
            <Value index="0">
              0.40000000596
            </Value>
            <Value index="1">
              1.0012492198
            </Value>
          </InformationKey>
        </DataArray>
      </Points>
      <Cells>
        <DataArray type="Int64" Name="connectivity" format="ascii" RangeMin="0" RangeMax="12">
          0 11 12 1 11 0
          2 1 0 4 3 2
          3 1 2 6 5 4
          5 3 4 8 7 6
          7 5 6 10 9 8
          9 7 8
        </DataArray>
        <DataArray type="Int64" Name="offsets" format="ascii" RangeMin="3" RangeMax="33">
          3 6 9 12 15 18
          21 24 27 30 33
        </DataArray>
        <DataArray type="UInt8" Name="types" format="ascii" RangeMin="5" RangeMax="5">
          5 5 5 5 5 5
          5 5 5 5 5
        </DataArray>
      </Cells>
    </Piece>
  </UnstructuredGrid>
</VTKFile>
