<?xml version="1.0"?>
<VTKFile type="UnstructuredGrid" version="0.1" byte_order="LittleEndian" header_type="UInt32" compressor="vtkZLibDataCompressor">
  <UnstructuredGrid>
    <Piece NumberOfPoints="13" NumberOfCells="11">
      <PointData>
        <DataArray type="Float64" Name="Disp" NumberOfComponents="3" format="ascii" RangeMin="0" RangeMax="0.08948718605290587">
          0 0 0 0 0 0
          0.0006355551442266878 -0.00204930969803249 0 -0.001265395357690092 -0.001937968790291144 0
          0.0022496989781801324 -0.008631960304423163 0 -0.002569211236321761 -0.008461325235680429 0
          0.0036629833456999317 -0.021732602571074476 0 -0.004392373088927616 -0.02184872554576523 0
          0.004873145544095104 -0.040213056589881724 0 -0.005444250779061503 -0.04025431867260963 0
          0.005855151034496843 -0.06301382141825435 0 -0.0064566490042525316 -0.06307616309387448 0
          0.00659140876461907 -0.08924410231586788 0
          <InformationKey name="L2_NORM_RANGE" location="vtkDataArray" length="2">
            <Value index="0">
              0
            </Value>
            <Value index="1">
              0.089487186053
            </Value>
          </InformationKey>
        </DataArray>
        <DataArray type="Float64" Name="Nodal Stress" NumberOfComponents="6" format="ascii" RangeMin="37071.13066327365" RangeMax="2477623.193515176">
          -2160738.5460410663 -355449.20855713787 0 -1159086.487209985 0 0
          -143447.72398288167 161047.63942186686 0 -15402.17273286266 0 0
          175745.46251237256 43216.89980419303 0 38045.7090545552 0 0
          -75788.60280855236 -24388.17841750354 0 36898.48832625276 0 0
          -17452.958671822737 -58934.85706699036 0 -50011.41672527929 0 0
          -101341.40853276037 -22524.120350397374 0 25090.26883058824 0 0
          87897.55241141701 14670.266375157235 0 -21715.197755879308 0 0
          -54984.96652478239 16605.337340011432 0 13937.871624816331 0 0
          63879.69695293169 12787.322260647281 0 -24190.56677333426 0 0
          -45968.67720945311 11849.621292806918 0 13820.47861189997 0 0
          55485.308442428046 14542.000961248168 0 -19614.987865103187 0 0
          -32751.975434580712 14824.819666218204 0 9044.421244625855 0 0
          44450.22764658518 14764.340005860035 0 -15982.477772656357 0 0
          <InformationKey name="L2_NORM_RANGE" location="vtkDataArray" length="2">
            <Value index="0">
              37071.130663
            </Value>
            <Value index="1">
              2477623.1935
            </Value>
          </InformationKey>
        </DataArray>
        <DataArray type="Float64" Name="Nodal Strain" NumberOfComponents="6" format="ascii" RangeMin="0.0031979291241408204" RangeMax="0.1953631721968482">
          -0.14164385298303556 0.05178000460452824 0 -0.12418783791535552 0 0
          -0.015997967406701074 0.016626535815236262 0 -0.001650232792806706 0 0
          0.011009786615019718 -0.0031897022465709472 0 0.004076325970130918 0 0
          -0.004542465257128616 0.0009647230704837611 0 0.003953409463527082 0 0
          0.0008581764186908897 -0.003586312695077071 0 -0.005358366077708496 0 0
          -0.006434239168397263 0.0020104702797130573 0 0.002688243088991597 0 0
          0.005754458515988457 -0.0020913221307536623 0 -0.002326628330987069 0 0
          -0.004520545371056293 0.0031498443287430442 0 0.001493343388373178 0 0
          0.004106145415900575 -0.0013680375868441825 0 -0.0025918464400000994 0 0
          -0.0037066777039897556 0.002488139992680962 0 0.0014807655655607104 0 0
          0.0034438791401288555 -0.0009429038042832751 0 -0.0021016058426896276 0 0
          -0.002868884661977844 0.00222862909882204 0 0.0009690451333527702 0 0
          0.002647718403118227 -0.0005329124155308968 0 -0.0017124083327846099 0 0
          <InformationKey name="L2_NORM_RANGE" location="vtkDataArray" length="2">
            <Value index="0">
              0.0031979291241
            </Value>
            <Value index="1">
              0.1953631722
            </Value>
          </InformationKey>
        </DataArray>
        <DataArray type="Float64" Name="Sld_traction" NumberOfComponents="3" format="ascii" RangeMin="24818.14128413387" RangeMax="277412.49659761804">
          -34736.46662408001 126534.78375555227 0 277346.2087662514 -6064.1365016246455 0
          -190156.70727246688 -94483.87520999133 0 -20831.479101730085 13490.352672684758 0
          -49987.59683050209 -32496.06178749524 0 -81331.98791876918 25457.190975380756 0
          -81674.9569904016 11650.809053871382 0 -56896.5715743064 -12165.359034053792 0
          -58545.32925750098 14241.932735492623 0 -47053.62301470466 -12173.253797240599 0
          -51138.362071253716 14943.481628573125 0 -36677.48762905916 -14081.573809285728 0
          -39352.71161531112 15026.854503015931 0
          <InformationKey name="L2_NORM_RANGE" location="vtkDataArray" length="2">
            <Value index="0">
              24818.141284
            </Value>
            <Value index="1">
              277412.4966
            </Value>
          </InformationKey>
        </DataArray>
        <DataArray type="Float64" Name="Velocity" NumberOfComponents="3" format="ascii" RangeMin="0" RangeMax="4.227739724865454">
          0 0 0 0 0 0
          0.06707323008142019 -0.2111112096228207 0 -0.11582120697505638 -0.2085169794861933 0
          0.17367966150046654 -0.7788699504774823 0 -0.19368069227885898 -0.7769363603058914 0
          0.21232079532428227 -1.6693494642820461 0 -0.26928199018897647 -1.6843303918552994 0
          0.21100390748054476 -2.6388936660058206 0 -0.25482613830736556 -2.6467241016441143 0
          0.17585509099434216 -3.522649624502879 0 -0.22327169094050658 -3.5267344695451897 0
          0.12599058555712306 -4.225861989411911 0
          <InformationKey name="L2_NORM_RANGE" location="vtkDataArray" length="2">
            <Value index="0">
              0
            </Value>
            <Value index="1">
              4.2277397249
            </Value>
          </InformationKey>
        </DataArray>
        <DataArray type="Float64" Name="Acceleration" NumberOfComponents="3" format="ascii" RangeMin="0" RangeMax="217.8651230629977">
          0 0 0 0 0 0
          10.58462819110656 -32.4485832372593 0 -15.304003426626878 -33.57530739105073 0
          16.713757971479254 -100.74753914248231 0 -17.568246671731686 -103.13922410785744 0
          4.271179729515097 -158.71124759449958 0 -9.901776886938478 -161.53269045151683 0
          -17.58465119475295 -147.16240662019845 0 13.429356216522137 -148.98129650943883 0
          -46.41605679200438 -31.186661968924454 0 41.62870923822538 -31.412834312417544 0
          -75.68770066354409 204.29533478648227 0
          <InformationKey name="L2_NORM_RANGE" location="vtkDataArray" length="2">
            <Value index="0">
              0
            </Value>
            <Value index="1">
              217.86512306
            </Value>
          </InformationKey>
        </DataArray>
        <DataArray type="Float64" Name="Sigma" NumberOfComponents="6" format="ascii" RangeMin="110823.20352997456" RangeMax="6060460.810976415">
          -5270604.948427002 -1109391.782677095 0 -2778337.378995979 0 0
          508480.21357789706 512926.11622266046 0 468023.40591816336 0 0
          1207117.835777182 101402.95156831981 0 452305.403233855 0 0
          -653924.6586828228 -185528.75935607104 0 -121584.43300728544 0 0
          -77262.33008594062 -140212.54702386045 0 -171824.47757424338 0 0
          -159114.9555650376 -19800.95918416176 0 143303.2007213592 0 0
          278270.5280737111 48484.141752825424 0 -64933.07391989382 0 0
          -181113.123440225 45887.66365373476 0 36363.557634463614 0 0
          168764.39489931543 -924.0696222394471 0 -58492.968688591034 0 0
          -134181.10579371653 22533.523324055852 0 52621.9981866248 0 0
          149181.02071946682 16558.86543880461 0 -52367.02687074792 0 0
          -100384.10741542744 30768.152415533015 0 35470.18770726513 0 0
          116637.74726493428 15005.675798838245 0 -38869.09625593956 0 0
          <InformationKey name="L2_NORM_RANGE" location="vtkDataArray" length="2">
            <Value index="0">
              110823.20353
            </Value>
            <Value index="1">
              6060460.811
            </Value>
          </InformationKey>
        </DataArray>
        <DataArray type="Float64" Name="Press" format="ascii" RangeMin="-29534.065421903128" RangeMax="48211.487345460926">
          48211.487345460926 40196.19868569957 46038.489958036465 27718.027376487255 44723.82499012086 16979.456158028657
          -8947.065869194688 -29534.065421903128 8169.342444684314 -12134.259020926555 374.5638007409367 -15679.285076438227
          -323.7758080265358
        </DataArray>
        <DataArray type="Float64" Name="Dev strain" NumberOfComponents="6" format="ascii" RangeMin="0.003321989577620094" RangeMax="0.19612547362577665">
          -0.143274724977095 0.05014913261046879 0 -0.12418783791535552 0 0
          -0.01746578566286545 0.015158717559071893 0 -0.001650232792806706 0 0
          0.009506826185828722 -0.0046926626757619406 0 0.004076325970130918 0 0
          -0.005747847545816016 -0.0002406592182036392 0 0.003953409463527082 0 0
          -0.0003169109060073215 -0.004761400019775283 0 -0.005358366077708496 0 0
          -0.0069449957670419315 0.0014997136810683891 0 0.002688243088991597 0 0
          0.0058315372252387915 -0.002014243421503329 0 -0.002326628330987069 0 0
          -0.004002942269141597 0.0036674474306577385 0 0.001493343388373178 0 0
          0.00423380344056131 -0.0012403795621834467 0 -0.0025918464400000994 0 0
          -0.0034062875488318667 0.0027885301478388497 0 0.0014807655655607104 0 0
          0.003579397410228933 -0.0008073855341831972 0 -0.0021016058426896276 0 0
          -0.002516618064517098 0.002580895696282786 0 0.0009690451333527702 0 0
          0.0028242251007842057 -0.0003564057178649175 0 -0.0017124083327846099 0 0
          <InformationKey name="L2_NORM_RANGE" location="vtkDataArray" length="2">
            <Value index="0">
              0.0033219895776
            </Value>
            <Value index="1">
              0.19612547363
            </Value>
          </InformationKey>
        </DataArray>
        <DataArray type="Float64" Name="J2 Stresses" format="ascii" RangeMin="5826357666.325928" RangeMax="16434802972808.89">
          16434802972808.89 315584141273.5525 784853058467.7123 234714883478.25043 20195425770.028973 17988775368.784912
          40946675420.13665 17784397659.89497 15096494291.700537 9948433085.998447 11950162859.581623 5826357666.325928
          7292468857.547636
        </DataArray>
      </PointData>
      <CellData>
        <DataArray type="UInt8" Name="vtkGhostType" format="ascii" RangeMin="0" RangeMax="0">
          0 0 0 0 0 0
          0 0 0 0 0
        </DataArray>
        <DataArray type="Float64" Name="Gauss Stress" NumberOfComponents="6" format="ascii" RangeMin="41905.90535479059" RangeMax="1303093.5753060784">
          391875.36889749294 180917.67481837748 0 266248.1253815775 0 0
          -1140186.9076942415 -120205.51296563921 0 -619336.1899479869 0 0
          -266960.2119363881 -85373.65234648548 0 -50035.236620056516 0 0
          198137.06311102092 -35286.004162322395 0 52965.49755077534 0 0
          -27819.742021540267 17689.723696443092 0 38244.561478643 0 0
          31549.819233895912 -19591.049725413974 0 -31151.450257592674 0 0
          -60009.60544425716 11332.711785801934 0 10164.195710832464 0 0
          78536.670228796 21045.31564596908 0 -29020.828324673752 0 0
          -37607.72426210033 14140.520293923211 0 11908.38634104734 0 0
          60057.985683188155 11525.988788373235 0 -19412.665790904724 0 0
          49935.38782841663 15568.065523150679 0 -18588.645139807453 0 0
          <InformationKey name="L2_NORM_RANGE" location="vtkDataArray" length="2">
            <Value index="0">
              41905.905355
            </Value>
            <Value index="1">
              1303093.5753
            </Value>
          </InformationKey>
        </DataArray>
        <DataArray type="Float64" Name="Gauss Strain" NumberOfComponents="6" format="ascii" RangeMin="0.0036718382457382056" RangeMax="0.10671413976018125">
          0.02152975224916459 -0.001072857830740643 0 0.028526584862311882 0 0
          -0.07714886794367302 0.03213485292010582 0 -0.06635744892299858 0 0
          -0.01601952755451038 0.0034361752586934673 0 -0.005360918209291769 0 0
          0.015412861799441584 -0.009596752551273777 0 0.005674874737583072 0 0
          -0.0026189002764115577 0.002257113907658088 0 0.004097631586997464 0 0
          0.002953238864043066 -0.0025261399530258524 0 -0.003337655384742071 0 0
          -0.004691140095511297 0.002952679607709322 0 0.0010890209690177643 0 0
          0.004858143743272249 -0.0013016442477449238 0 -0.0031093744633579013 0 0
          -0.003191284600647282 0.0023531701732123845 0 0.0012758985365407865 0 0
          0.00387821366350011 -0.0013216431466586314 0 -0.0020799284775969355 0 0
          0.0030108110762029506 -0.000671402027932688 0 -0.001991640550693656 0 0
          <InformationKey name="L2_NORM_RANGE" location="vtkDataArray" length="2">
            <Value index="0">
              0.0036718382457
            </Value>
            <Value index="1">
              0.10671413976
            </Value>
          </InformationKey>
        </DataArray>
      </CellData>
      <Points>
        <DataArray type="Float32" Name="Points" NumberOfComponents="3" format="ascii" RangeMin="0" RangeMax="0.6020797527609908">
          0 0.05000000074505806 0 0 0 0
          0.10000000149011612 0.05000000074505806 0 0.10000000149011612 0 0
          0.20000000298023224 0.05000000074505806 0 0.20000000298023224 0 0
          0.30000001192092896 0.05000000074505806 0 0.30000001192092896 0 0
          0.4000000059604645 0.05000000074505806 0 0.4000000059604645 0 0
          0.5 0.05000000074505806 0 0.5 0 0
          0.6000000238418579 0.05000000074505806 0
          <InformationKey name="L2_NORM_RANGE" location="vtkDataArray" length="2">
            <Value index="0">
              0
            </Value>
            <Value index="1">
              0.60207975276
            </Value>
          </InformationKey>
        </DataArray>
      </Points>
      <Cells>
        <DataArray type="Int64" Name="connectivity" format="ascii" RangeMin="0" RangeMax="12">
          3 2 1 2 0 1
          5 4 3 4 2 3
          7 6 5 6 4 5
          9 8 7 8 6 7
          11 10 9 10 8 9
          12 10 11
        </DataArray>
        <DataArray type="Int64" Name="offsets" format="ascii" RangeMin="3" RangeMax="33">
          3 6 9 12 15 18
          21 24 27 30 33
        </DataArray>
        <DataArray type="UInt8" Name="types" format="ascii" RangeMin="5" RangeMax="5">
          5 5 5 5 5 5
          5 5 5 5 5
        </DataArray>
      </Cells>
    </Piece>
  </UnstructuredGrid>
</VTKFile>
