<?xml version="1.0"?>
<VTKFile type="UnstructuredGrid" version="0.1" byte_order="LittleEndian" header_type="UInt32" compressor="vtkZLibDataCompressor">
  <UnstructuredGrid>
    <Piece NumberOfPoints="13" NumberOfCells="11">
      <PointData>
        <DataArray type="Float64" Name="Disp" NumberOfComponents="3" format="ascii" RangeMin="0" RangeMax="0.00018901790424208652">
          0 0 0 0 0 0
          -4.7550414629991504e-7 -1.1056647849761587e-7 0 -2.2735968174997576e-7 -9.808748471432465e-7 0
          -0.000004021046037159566 0.000004014536715549141 0 0.0000013646052537931463 0.000002930033006385136 0
          -0.00001028429831298279 0.00002443149548383046 0 0.000005875607471230967 0.000024215494024763566 0
          -0.000018810504897752755 0.00006980487154364426 0 0.000009671652631377578 0.00007091690217797669 0
          -0.000021363085744627848 0.00013558967188582584 0 0.000010926296630473612 0.00013898982625590368 0
          -0.000013992791863068478 0.00018849925702757407 0
          <InformationKey name="L2_NORM_RANGE" location="vtkDataArray" length="2">
            <Value index="0">
              0
            </Value>
            <Value index="1">
              0.00018901790424
            </Value>
          </InformationKey>
        </DataArray>
        <DataArray type="Float64" Name="Nodal Stress" NumberOfComponents="6" format="ascii" RangeMin="136.35949173278155" RangeMax="2082.695192217829">
          1727.7487724146704 -389.0795416505887 0 920.3090692419497 0 0
          -7.659094197782921 -665.8793982202061 0 -80.1723751611875 0 0
          -341.1959906248878 -108.4733459785175 0 -82.21820920689552 0 0
          -13.48440032502972 146.74872915736123 0 -58.26392167658453 0 0
          -159.44781170558704 166.07348839832636 0 35.74397911236669 0 0
          48.36078883377923 101.15100639086052 0 -77.61197713699366 0 0
          -295.59634880442616 42.86332706685171 0 64.32123107670714 0 0
          -120.72300716906705 -18.413056839828407 0 -61.93466560310067 0 0
          -279.7885612752065 -185.5253947170167 0 150.8031318438691 0 0
          -593.3714112629124 -332.2429712276785 0 48.770298814193225 0 0
          -114.24328062386941 -656.5976884992394 0 257.6630425846089 0 0
          -1778.5443647037353 -1021.3701817258088 0 362.2183848857411 0 0
          297.8891370733508 -1737.2519392174413 0 288.37066160108685 0 0
          <InformationKey name="L2_NORM_RANGE" location="vtkDataArray" length="2">
            <Value index="0">
              136.35949173
            </Value>
            <Value index="1">
              2082.6951922
            </Value>
          </InformationKey>
        </DataArray>
        <DataArray type="Float64" Name="Nodal Strain" NumberOfComponents="6" format="ascii" RangeMin="0.000009969986287003664" RangeMax="0.00019127347862281282">
          0.00013730632451714036 -0.00008949670913270885 0 0.00009860454313306602 0 0
          0.00002323432892230858 -0.00004728927508009392 0 -0.000008589897338698664 0 0
          -0.000020497094116830652 0.000004437474952423314 0 -0.000008809093843595951 0 0
          -0.000006204197493122167 0.000010963637808562577 0 -0.000006242563036776913 0 0
          -0.000017320325421767875 0.000017556956732222853 0 0.000003829712047753574 0 0
          -1.581938829750716e-7 0.000005497900855283636 0 -0.000008315568978963607 0 0
          -0.000022644858024132286 0.000013618678676361772 0 0.000006891560472504337 0 0
          -0.000007965462767796633 0.0000029963176246217946 0 -0.000006635857028903643 0 0
          -0.000013358990279764157 -0.0000032593652913866753 0 0.000016157478411843115 0 0
          -0.000030517851832076664 -0.0000025398046854444523 0 0.000005225389158663559 0 0
          0.000015289683116125016 -0.000042819717727664625 0 0.00002760675456263667 0 0
          -0.00009056137670291652 -0.00000943557138385295 0 0.000038809112666329405 0 0
          0.00008332250762014797 -0.00013472832198243692 0 0.00003089685660011645 0 0
          <InformationKey name="L2_NORM_RANGE" location="vtkDataArray" length="2">
            <Value index="0">
              9.969986287e-06
            </Value>
            <Value index="1">
              0.00019127347862
            </Value>
          </InformationKey>
        </DataArray>
        <DataArray type="Float64" Name="Sld_traction" NumberOfComponents="3" format="ascii" RangeMin="85.90450982256105" RangeMax="1808.382724319298">
          21.014182855069706 -474.0815727362997 0 -141.25540300975135 422.5710391236119 0
          127.79337190711675 87.02205219018633 0 61.96535695026011 -59.49688517797666 0
          68.0788141883442 120.7062121122024 0 192.25098150536036 -118.22955270139252 0
          222.3242965126157 30.655668741140783 0 226.62796707481718 5.718567331068409 0
          323.3973744224454 -225.65939140226234 0 92.58523938626517 303.39908778500205 0
          326.11147194846103 -770.1358906963342 0 -473.85153972942175 919.8065887144278 0
          -102.94687923274181 -1805.4500872837016 0
          <InformationKey name="L2_NORM_RANGE" location="vtkDataArray" length="2">
            <Value index="0">
              85.904509823
            </Value>
            <Value index="1">
              1808.3827243
            </Value>
          </InformationKey>
        </DataArray>
        <DataArray type="Float64" Name="Velocity" NumberOfComponents="3" format="ascii" RangeMin="0" RangeMax="0.2835268563631298">
          0 0 0 0 0 0
          -0.0007132562194498726 -0.0001658497177464238 0 -0.0003410395226249636 -0.0014713122707148698 0
          -0.0060315690557393485 0.006021805073323712 0 0.0020469078806897197 0.0043950495095777045 0
          -0.015426447469474185 0.03664724322574569 0 0.00881341120684645 0.03632324103714535 0
          -0.028215757346629133 0.10470730731546639 0 0.014507478947066367 0.10637535326696504 0
          -0.032044628616941774 0.20338450782873876 0 0.01638944494571042 0.20848473938385553 0
          -0.020989187794602716 0.28274888554136113 0
          <InformationKey name="L2_NORM_RANGE" location="vtkDataArray" length="2">
            <Value index="0">
              0
            </Value>
            <Value index="1">
              0.28352685636
            </Value>
          </InformationKey>
        </DataArray>
        <DataArray type="Float64" Name="Acceleration" NumberOfComponents="3" format="ascii" RangeMin="0" RangeMax="378.035808484173">
          0 0 0 0 0 0
          -0.9510082925998301 -0.22113295699523172 0 -0.4547193634999515 -1.9617496942864932 0
          -8.042092074319132 8.029073431098283 0 2.7292105075862927 5.860066012770273 0
          -20.56859662596558 48.86299096766092 0 11.751214942461933 48.43098804952713 0
          -37.62100979550551 139.6097430872885 0 19.343305262755155 141.8338043559534 0
          -42.7261714892557 271.1793437716517 0 21.852593260947224 277.9796525118074 0
          -27.985583726136955 376.9985140551481 0
          <InformationKey name="L2_NORM_RANGE" location="vtkDataArray" length="2">
            <Value index="0">
              0
            </Value>
            <Value index="1">
              378.03580848
            </Value>
          </InformationKey>
        </DataArray>
        <DataArray type="Float64" Name="Sigma" NumberOfComponents="6" format="ascii" RangeMin="299.065577222215" RangeMax="5167.7566834140225">
          4609.924697761387 78.46453170732325 0 2334.1265469558066 0 0
          -404.0877592923872 -1304.3291031283427 0 -555.8996801693843 0 0
          -1194.2837727790413 301.56464690400406 0 -431.11713677442964 0 0
          737.4194509721956 612.3857208246037 0 110.32744598108968 0 0
          -110.25820627947168 289.33332539985884 0 157.10223158461343 0 0
          370.76981838490735 153.13119417035347 0 -257.2022454565355 0 0
          -545.936086816639 152.26661339558544 0 211.18109556604108 0 0
          178.73905225333314 47.498674590113936 0 -235.02435318710985 0 0
          -403.92322265060557 -233.45684139240228 0 332.1191652269162 0 0
          -918.9801137985512 -423.51798259467364 0 -162.46814424392812 0 0
          317.3408074704448 -1000.945688674038 0 400.7264900609668 0 0
          -3744.288715912455 -1156.6396152771333 0 329.38549384523157 0 0
          2076.882553412634 -2858.340209161508 0 21.643706219982892 0 0
          <InformationKey name="L2_NORM_RANGE" location="vtkDataArray" length="2">
            <Value index="0">
              299.06557722
            </Value>
            <Value index="1">
              5167.7566834
            </Value>
          </InformationKey>
        </DataArray>
        <DataArray type="Float64" Name="Press" format="ascii" RangeMin="-179.8654061410171" RangeMax="839.2831979499279">
          -177.90933730993382 -174.7986930317781 -179.8654061410171 -166.86339786913382 -154.55316970807806 -99.11137876425293
          -88.84920425248131 0.27705703836929535 28.941061575049797 144.08383668822972 401.63505038676976 406.20594056441286
          839.2831979499279
        </DataArray>
        <DataArray type="Float64" Name="Dev strain" NumberOfComponents="6" format="ascii" RangeMin="0.000010695392021149063" RangeMax="0.0001930611194369936">
          0.00014364992071171768 -0.00008315311293813148 0 0.00009860454313306602 0 0
          0.000029500839277613108 -0.000041022764724789374 0 -0.000008589897338698664 0 0
          -0.000014262037195205835 0.000010672531874048133 0 -0.000008809093843595951 0 0
          -4.1869865172625774e-7 0.00001674913664995848 0 -0.000006242563036776913 0 0
          -0.000012177518332753769 0.00002269976382123696 0 0.000003829712047753574 0 0
          0.000003556268501957669 0.000009212363240216376 0 -0.000008315568978963607 0 0
          -0.000020096119997049893 0.00001616741670344416 0 0.000006891560472504337 0 0
          -0.000007747660728508924 0.0000032141196639095035 0 -0.000006635857028903643 0 0
          -0.000015665996241186138 -0.000005566371252808655 0 0.000016157478411843115 0 0
          -0.00003686350136081416 -0.00000888545421418195 0 0.000005225389158663559 0 0
          0.000002258093484128339 -0.00005585130735966129 0 0.00002760675456263667 0 0
          -0.00010724795252265689 -0.000026122147203593307 0 0.000038809112666329405 0 0
          0.00005639422030672165 -0.0001616566092958632 0 0.00003089685660011645 0 0
          <InformationKey name="L2_NORM_RANGE" location="vtkDataArray" length="2">
            <Value index="0">
              1.0695392021e-05
            </Value>
            <Value index="1">
              0.00019306111944
            </Value>
          </InformationKey>
        </DataArray>
        <DataArray type="Float64" Name="J2 Stresses" format="ascii" RangeMin="30910.99809187348" RangeMax="11990817.88518419">
          11990817.88518419 1009536.7768418703 805092.9794979843 462444.89520517946 54105.60041166995 96997.95919357885
          171765.0300029311 30910.99809187348 136403.81827243988 518544.94004264666 591444.1598397148 7705880.294757804
          6241892.058494352
        </DataArray>
      </PointData>
      <CellData>
        <DataArray type="UInt8" Name="vtkGhostType" format="ascii" RangeMin="0" RangeMax="0">
          0 0 0 0 0 0
          0 0 0 0 0
        </DataArray>
        <DataArray type="Float64" Name="Gauss Stress" NumberOfComponents="6" format="ascii" RangeMin="124.80146948325945" RangeMax="1269.1072831208767">
          -460.8265260470539 -303.9687441472212 0 -292.229790320908 0 0
          826.3265764024095 -485.6244536665814 0 449.03657667066415 0 0
          192.46770557872213 211.44076468445036 0 3.409144036389165 0 0
          -356.13483393484876 234.00057313674586 0 -54.562486402908796 0 0
          -61.37024738558776 55.07098539256263 0 -93.68183435920142 0 0
          -209.31274247867196 84.07246008032848 0 37.027027231373026 0 0
          -323.62077629805833 -145.39139803177108 0 -21.791110734707267 0 0
          -276.91711428432455 -31.107546348588397 0 102.75863586861588 0 0
          -1131.3343982003832 -543.0594863021443 0 189.21461322075675 0 0
          -143.6341934428874 -361.08685467035497 0 190.12583701465167 0 0
          99.0196112905785 -1122.9337747371899 0 250.58523004206035 0 0
          <InformationKey name="L2_NORM_RANGE" location="vtkDataArray" length="2">
            <Value index="0">
              124.80146948
            </Value>
            <Value index="1">
              1269.1072831
            </Value>
          </InformationKey>
        </DataArray>
        <DataArray type="Float64" Name="Gauss Strain" NumberOfComponents="6" format="ascii" RangeMin="0.000010307487057164202" RangeMax="0.00011076158763006782">
          -0.000022060153855245952 -0.000005253962937406738 0 -0.00003131033467724014 0 0
          0.00007636705737397858 -0.00006419912441912759 0 0.00004811106178614258 0 0
          0.0000061962373740354995 0.000008229065135363525 0 3.652654324702673e-7 0 0
          -0.00003379536575023013 0.000029433427864583587 0 -0.000005845980686025942 0 0
          -0.000006350410005847791 0.00000612543636323975 0 -0.000010037339395628725 0 0
          -0.000017953498037059726 0.000013480630808547463 0 0.000003967181489075685 0 0
          -0.000017923219805869487 0.0000011727850083755749 0 -0.000002334761864432921 0 0
          -0.000018668810079287885 0.000007667929342398135 0 0.000011009853843065986 0 0
          -0.00006141461821780795 0.0000016148366284319526 0 0.000020272994273652507 0 0
          0.0000026363738494492953 -0.00002066212556777938 0 0.000020370625394426963 0 0
          0.00004717760704708384 -0.00008374597002731995 0 0.00002684841750450647 0 0
          <InformationKey name="L2_NORM_RANGE" location="vtkDataArray" length="2">
            <Value index="0">
              1.0307487057e-05
            </Value>
            <Value index="1">
              0.00011076158763
            </Value>
          </InformationKey>
        </DataArray>
      </CellData>
      <Points>
        <DataArray type="Float32" Name="Points" NumberOfComponents="3" format="ascii" RangeMin="0" RangeMax="0.6020797527609908">
          0 0.05000000074505806 0 0 0 0
          0.10000000149011612 0.05000000074505806 0 0.10000000149011612 0 0
          0.20000000298023224 0.05000000074505806 0 0.20000000298023224 0 0
          0.30000001192092896 0.05000000074505806 0 0.30000001192092896 0 0
          0.4000000059604645 0.05000000074505806 0 0.4000000059604645 0 0
          0.5 0.05000000074505806 0 0.5 0 0
          0.6000000238418579 0.05000000074505806 0
          <InformationKey name="L2_NORM_RANGE" location="vtkDataArray" length="2">
            <Value index="0">
              0
            </Value>
            <Value index="1">
              0.60207975276
            </Value>
          </InformationKey>
        </DataArray>
      </Points>
      <Cells>
        <DataArray type="Int64" Name="connectivity" format="ascii" RangeMin="0" RangeMax="12">
          3 2 1 2 0 1
          5 4 3 4 2 3
          7 6 5 6 4 5
          9 8 7 8 6 7
          11 10 9 10 8 9
          12 10 11
        </DataArray>
        <DataArray type="Int64" Name="offsets" format="ascii" RangeMin="3" RangeMax="33">
          3 6 9 12 15 18
          21 24 27 30 33
        </DataArray>
        <DataArray type="UInt8" Name="types" format="ascii" RangeMin="5" RangeMax="5">
          5 5 5 5 5 5
          5 5 5 5 5
        </DataArray>
      </Cells>
    </Piece>
  </UnstructuredGrid>
</VTKFile>
