<?xml version="1.0"?>
<VTKFile type="UnstructuredGrid" version="0.1" byte_order="LittleEndian" header_type="UInt32" compressor="vtkZLibDataCompressor">
  <UnstructuredGrid>
    <Piece NumberOfPoints="13" NumberOfCells="11">
      <PointData>
        <DataArray type="Float64" Name="Disp" NumberOfComponents="3" format="ascii" RangeMin="0.010992272780380832" RangeMax="0.04315510605881589">
          -0.001417882635122078 -0.016076320443747825 0 0.0012789230800212986 -0.021482594706451877 0
          -0.001450723685566939 -0.021493500264302728 0 0.0012781779258636662 -0.02695877356185167 0
          -0.0014491645158974812 -0.02696272102649565 0 0.0012655107418854008 -0.032391107808736316 0
          -0.0014352548229553978 -0.032391705027598826 0 0.0012562062037448155 -0.037770222296337336 0
          -0.0014260080864737029 -0.037768267631475755 0 0.001256646199948972 -0.043131661080132486 0
          -0.0014253546520445362 -0.04313156086978007 0 0.001241783443240363 -0.016059440694466312 0
          -0.001305616979718066 -0.010914459454346478 0
          <InformationKey name="L2_NORM_RANGE" location="vtkDataArray" length="2">
            <Value index="0">
              0.01099227278
            </Value>
            <Value index="1">
              0.043155106059
            </Value>
          </InformationKey>
        </DataArray>
        <DataArray type="Float64" Name="Nodal Stress" NumberOfComponents="6" format="ascii" RangeMin="226.85721797985602" RangeMax="10561.618236361897">
          -2112.5478875010335 4269.255550366974 0 20.075668636653003 0 0
          4963.080444134503 3196.5346377994147 0 -1620.1870807538705 0 0
          -560.156052418661 2461.2256672658687 0 -291.2226170435733 0 0
          2005.102372205426 1628.000472389749 0 -554.2707177344341 0 0
          113.66836078907961 1100.6335500385294 0 -348.6135852433441 0 0
          376.48634393566545 427.9642281352759 0 43.3175537557241 0 0
          110.37689632703696 70.28222630944046 0 -194.9610182654847 0 0
          -358.15055912808134 -283.40689045231494 0 202.72144097143226 0 0
          -35.599663330185464 -357.18053813426843 0 -15.892861469773447 0 0
          -399.2003371512295 -328.0408890790895 0 109.7236545805365 0 0
          7.162499531908078 -224.50732149671404 0 31.770403591808627 0 0
          8892.182137103437 4772.8721521874595 0 -3113.9312821743797 0 0
          -5518.158302650529 4884.584636253823 0 1167.3686063651649 0 0
          <InformationKey name="L2_NORM_RANGE" location="vtkDataArray" length="2">
            <Value index="0">
              226.85721798
            </Value>
            <Value index="1">
              10561.618236
            </Value>
          </InformationKey>
        </DataArray>
        <DataArray type="Float64" Name="Nodal Strain" NumberOfComponents="6" format="ascii" RangeMin="0.0000187022415443619" RangeMax="0.0007981501459542771">
          -0.0003033696901917514 0.000380394963865535 0 0.0000021509644967842473 0 0
          0.00024034379465962826 0.000051071029695154524 0 -0.00017359147293791473 0 0
          -0.00012791206328939965 0.00019580740667679997 0 -0.00003120242325466857 0 0
          0.0000850787240007537 0.00004467494902050256 0 -0.000059386148328689355 0 0
          -0.00003118917244501322 0.00007455709783171355 0 -0.00003735145556178687 0 0
          0.000011607444990573396 0.00001712293258338881 0 0.000004641166473827581 0 0
          0.000005373984512308338 0.0000010781270104230009 0 -0.000020888680528444788 0 0
          -0.00001546050813585171 -0.000007452257920591024 0 0.000021720154389796316 0 0
          0.000010213614695496339 -0.000024241479033512558 0 -0.0000017028065860471547 0 0
          -0.000016798563757977483 -0.000009174337178819628 0 0.000011756105847914625 0 0
          0.00000852972573430465 -0.000016292040804476293 0 0.0000034039718134080675 0 0
          0.00046469614721497915 0.000023341505973981584 0 -0.00033363549451868353 0 0
          -0.0005686036157698171 0.0005459759848270776 0 0.00012507520782483912 0 0
          <InformationKey name="L2_NORM_RANGE" location="vtkDataArray" length="2">
            <Value index="0">
              1.8702241544e-05
            </Value>
            <Value index="1">
              0.00079815014595
            </Value>
          </InformationKey>
        </DataArray>
        <DataArray type="Float64" Name="Sld_traction" NumberOfComponents="3" format="ascii" RangeMin="171.79604616131246" RangeMax="8399.253582931251">
          -2635.572613588924 -4250.459818355097 0 -3114.5399755470303 3066.9567175775583 0
          -441.89181657034254 -2628.737566278665 0 -795.7569618978323 1526.788706269103 0
          453.18640768322234 -1219.207475217545 0 323.76613328802114 349.4224728027728 0
          540.0676658162554 -171.67941173116603 0 483.11018568845054 -292.1963280260875 0
          208.86127492230182 314.5724008738662 0 32.76752200462888 -184.46427476519844 0
          -35.932616151424 167.99621594897374 0 -6969.832690987111 4687.098570547756 0
          -5826.315162700798 -5206.0579573153 0
          <InformationKey name="L2_NORM_RANGE" location="vtkDataArray" length="2">
            <Value index="0">
              171.79604616
            </Value>
            <Value index="1">
              8399.2535829
            </Value>
          </InformationKey>
        </DataArray>
        <DataArray type="Float64" Name="Velocity" NumberOfComponents="3" format="ascii" RangeMin="5.176633688279032" RangeMax="15.555479500933858">
          -0.552682187945904 -7.22332095612542 0 0.4260245192647878 -9.18433316442431 0
          -0.5119562287612968 -9.187624373490078 0 0.3786668506642574 -10.967131379210667 0
          -0.46502195516797157 -10.96526162578148 0 0.34310112554976785 -12.573266226033722 0
          -0.4283837591164508 -12.56986905427073 0 0.3264264732013849 -14.071802256691658 0
          -0.41344238502365344 -14.066969417403392 0 0.3285710747512722 -15.549963349317075 0
          -0.4150054860450285 -15.549942538495955 0 0.46511474601498526 -7.215369264706681 0
          -0.556257226194943 -5.146660494041868 0
          <InformationKey name="L2_NORM_RANGE" location="vtkDataArray" length="2">
            <Value index="0">
              5.1766336883
            </Value>
            <Value index="1">
              15.555479501
            </Value>
          </InformationKey>
        </DataArray>
        <DataArray type="Float64" Name="Acceleration" NumberOfComponents="3" format="ascii" RangeMin="46.67464438609877" RangeMax="473.09307902642564">
          9.143422278740331 473.0047137732736 0 19.736013424303962 451.3848033250333 0
          -11.303677652225318 451.08456036446296 0 37.90549208037747 350.91924255161484 0
          -29.192201314534326 349.6291791414833 0 49.80678032056767 188.58954638948035 0
          -41.328140167805614 187.19255365328536 0 54.90180182000526 -7.59942259564923 0
          -45.76238624630949 -9.18294253561271 0 54.13755808419262 -209.10560442965743 0
          -45.06501893187641 -209.09918652881515 0 -0.6991952985372052 472.3665069179233 0
          26.690114669781224 414.7923683492072 0
          <InformationKey name="L2_NORM_RANGE" location="vtkDataArray" length="2">
            <Value index="0">
              46.674644386
            </Value>
            <Value index="1">
              473.09307903
            </Value>
          </InformationKey>
        </DataArray>
        <DataArray type="Float64" Name="Sigma" NumberOfComponents="6" format="ascii" RangeMin="265.56856602269033" RangeMax="24422.75077395389">
          -7598.380354230664 7752.325627400929 0 2059.5880101845905 0 0
          11813.887132903521 3906.4316089878125 0 -2735.1558100816637 0 0
          -2508.724739355077 4056.274613759107 0 298.0652420149418 0 0
          4361.188647265689 2184.8289648579835 0 -635.9205839057456 0 0
          168.79093353649444 1852.2998820809812 0 -600.4980788223022 0 0
          637.6621016950338 581.0363189515057 0 504.29637431764957 0 0
          548.5901300952472 192.0902870100112 0 -615.1913728250657 0 0
          -860.5594782131451 -380.7286998674472 0 561.3318863632742 0 0
          316.7489554092652 -555.3069660393047 0 -179.14242477496677 0 0
          -978.5865594712172 -446.9098936250683 0 149.03719435995734 0 0
          43.1794758245744 -249.9705384314594 0 78.59342239112198 0 0
          22319.360345845107 6910.492826234452 0 -7110.696029049784 0 0
          -17013.66067453126 7531.391424033801 0 7277.018398780243 0 0
          <InformationKey name="L2_NORM_RANGE" location="vtkDataArray" length="2">
            <Value index="0">
              265.56856602
            </Value>
            <Value index="1">
              24422.750774
            </Value>
          </InformationKey>
        </DataArray>
        <DataArray type="Float64" Name="Press" format="ascii" RangeMin="-3148.1130001603196" RangeMax="186.58567131815667">
          -3148.1130001603196 -1028.1706664433489 -1560.4105094803695 -677.8127069219685 -667.54352876455 -326.63005562541014
          -111.73495324920114 -47.37777455631413 79.20574806662874 151.75155983749332 186.58567131815667 -1528.8125488829742
          -2941.3471271444005
        </DataArray>
        <DataArray type="Float64" Name="Dev strain" NumberOfComponents="6" format="ascii" RangeMin="0.00002217440825041144" RangeMax="0.0008071721172985069">
          -0.0002185351602267534 0.0004652294938305331 0 0.0000021509644967842473 0 0
          0.0002932982478553022 0.0001040254828908284 0 -0.00017359147293791473 0 0
          -0.00007853680634732311 0.0002451826636188766 0 -0.00003120242325466857 0 0
          0.00011447629852483233 0.00007407252354458116 0 -0.000059386148328689355 0 0
          -0.000008313302919978606 0.00009743296735674816 0 -0.00003735145556178687 0 0
          0.000024236991952651516 0.000029752479545466923 0 0.000004641166473827581 0 0
          0.000011346493918726727 0.000007050636416841389 0 -0.000020888680528444788 0 0
          -0.000013900378512366745 -0.0000058921282971060624 0 0.000021720154389796316 0 0
          0.00000795518381147525 -0.000026499909917533646 0 -0.0000017028065860471547 0 0
          -0.000020837071044785852 -0.000013212844465627993 0 0.000011756105847914625 0 0
          0.000003135719925907904 -0.000021686046612873045 0 0.0000034039718134080675 0 0
          0.0005307285090514907 0.00008937386781049312 0 -0.00033363549451868353 0 0
          -0.0004714434949080543 0.0006431361056888405 0 0.00012507520782483912 0 0
          <InformationKey name="L2_NORM_RANGE" location="vtkDataArray" length="2">
            <Value index="0">
              2.217440825e-05
            </Value>
            <Value index="1">
              0.0008071721173
            </Value>
          </InformationKey>
        </DataArray>
        <DataArray type="Float64" Name="J2 Stresses" format="ascii" RangeMin="33719.100118886694" RangeMax="285594878.1789465">
          59977444.01333189 79284337.8786971 11395742.502163755 11997820.758619523 1819902.1018679878 435686.7882269035
          263540.0109003516 521531.85088465654 212370.8657308828 584233.075024514 33719.100118886694 285594878.1789465
          186332002.35909724
        </DataArray>
      </PointData>
      <CellData>
        <DataArray type="UInt8" Name="vtkGhostType" format="ascii" RangeMin="0" RangeMax="1">
          1 1 0 0 0 0
          0 0 0 0 0
        </DataArray>
        <DataArray type="Float64" Name="Gauss Stress" NumberOfComponents="6" format="ascii" RangeMin="162.35169920833476" RangeMax="8563.434635053418">
          -3303.651119701505 4858.645733827163 0 741.9701266383506 0 0
          6943.256969677111 4288.05128237885 0 -2595.4212763156183 0 0
          -1343.3040455887526 3326.11255802127 0 -125.83418596071056 0 0
          -294.8373012399272 1729.2122385103942 0 -312.7844735710354 0 0
          3466.6523859894824 2293.713768253072 0 -1024.3370506574893 0 0
          83.04487589587137 506.50598346777895 0 -237.13102577657287 0 0
          1165.2184637284295 982.0596248595139 0 -244.04076280346595 0 0
          -25.042457482506393 -274.61745287854245 0 -77.66730374558612 0 0
          -53.350009951263246 -31.1149591122853 0 150.14562928528602 0 0
          -67.0383830050329 -278.21480629118446 0 16.16273065870419 0 0
          -446.27251630909643 -399.7886753946708 0 177.07555198275492 0 0
          <InformationKey name="L2_NORM_RANGE" location="vtkDataArray" length="2">
            <Value index="0">
              162.35169921
            </Value>
            <Value index="1">
              8563.4346351
            </Value>
          </InformationKey>
        </DataArray>
        <DataArray type="Float64" Name="Gauss Strain" NumberOfComponents="6" format="ascii" RangeMin="0.00001631503251226058" RangeMax="0.0006247117557847192">
          -0.00040949814190107753 0.00046503366383413675 0 0.00007949679928268043 0 0
          0.00034280223774912027 0.000058315914110021184 0 -0.0002780808510338163 0 0
          -0.00021474002318567055 0.00028555461291540336 0 -0.000013482234210076128 0 0
          -0.00008281738717822316 0.0001340450635093113 0 -0.000033512622168325215 0 0
          0.00016569967870449614 0.000040027683947023665 0 -0.00010975039828473097 0 0
          -0.000012157722559858431 0.00003321311039427452 0 -0.00002540689561891852 0 0
          0.00004815633223561947 0.00002853217092823566 0 -0.000026147224586085635 0 0
          0.000008019019211197493 -0.000018721158866949234 0 -0.000008321496829884225 0 0
          -0.0000026994664567943335 -3.1713958118954756e-7 0 0.000016087031709137795 0 0
          0.000005147787152897099 -0.000017478258199190575 0 0.0000017317211420040189 0 0
          -0.000017598441329411506 -0.000012618029802865898 0 0.00001897238056958088 0 0
          <InformationKey name="L2_NORM_RANGE" location="vtkDataArray" length="2">
            <Value index="0">
              1.6315032512e-05
            </Value>
            <Value index="1">
              0.00062471175578
            </Value>
          </InformationKey>
        </DataArray>
      </CellData>
      <Points>
        <DataArray type="Float32" Name="Points" NumberOfComponents="3" format="ascii" RangeMin="0.4000000059604645" RangeMax="1.0012492197622458">
          0.5 0 0 0.6000000238418579 0.05000000074505806 0
          0.6000000238418579 0 0 0.699999988079071 0.05000000074505806 0
          0.699999988079071 0 0 0.800000011920929 0.05000000074505806 0
          0.800000011920929 0 0 0.8999999761581421 0.05000000074505806 0
          0.8999999761581421 0 0 1 0.05000000074505806 0
          1 0 0 0.5 0.05000000074505806 0
          0.4000000059604645 0 0
          <InformationKey name="L2_NORM_RANGE" location="vtkDataArray" length="2">
            <Value index="0">
              0.40000000596
            </Value>
            <Value index="1">
              1.0012492198
            </Value>
          </InformationKey>
        </DataArray>
      </Points>
      <Cells>
        <DataArray type="Int64" Name="connectivity" format="ascii" RangeMin="0" RangeMax="12">
          0 11 12 1 11 0
          2 1 0 4 3 2
          3 1 2 6 5 4
          5 3 4 8 7 6
          7 5 6 10 9 8
          9 7 8
        </DataArray>
        <DataArray type="Int64" Name="offsets" format="ascii" RangeMin="3" RangeMax="33">
          3 6 9 12 15 18
          21 24 27 30 33
        </DataArray>
        <DataArray type="UInt8" Name="types" format="ascii" RangeMin="5" RangeMax="5">
          5 5 5 5 5 5
          5 5 5 5 5
        </DataArray>
      </Cells>
    </Piece>
  </UnstructuredGrid>
</VTKFile>
