<?xml version="1.0"?>
<VTKFile type="UnstructuredGrid" version="0.1" byte_order="LittleEndian" header_type="UInt32" compressor="vtkZLibDataCompressor">
  <UnstructuredGrid>
    <Piece NumberOfPoints="13" NumberOfCells="11">
      <PointData>
        <DataArray type="Float64" Name="Disp" NumberOfComponents="3" format="ascii" RangeMin="0" RangeMax="0.0587810525127843">
          0 0 0 0 0 0
          -0.00034032961040697095 0.0011081159420201104 0 0.0007144715493023904 0.0010294466228345984 0
          -0.001337288716728946 0.004897118908796678 0 0.0015369280542752732 0.004772305115915928 0
          -0.0023239879148580604 0.012936085847996652 0 0.0027562121717716174 0.01299259644588065 0
          -0.0032404557036531203 0.024872561297387637 0 0.003580505169337264 0.024887424304701967 0
          -0.004055047354257095 0.040249565054493924 0 0.004410568455153884 0.04028813651675039 0
          -0.00471471022394086 0.05859166870822995 0
          <InformationKey name="L2_NORM_RANGE" location="vtkDataArray" length="2">
            <Value index="0">
              0
            </Value>
            <Value index="1">
              0.058781052513
            </Value>
          </InformationKey>
        </DataArray>
        <DataArray type="Float64" Name="Nodal Stress" NumberOfComponents="6" format="ascii" RangeMin="31315.550221638023" RangeMax="1444766.2421825295">
          1263816.2093117412 191375.3060341686 0 673419.3165268257 0 0
          85916.8333372221 -105834.61796365306 0 4522.617731771924 0 0
          -103894.61658333537 -25359.820957743883 0 -24531.30780196209 0 0
          48984.231232023434 19759.1924030851 0 -22725.139565495545 0 0
          9206.876577226836 39632.91180659368 0 28816.454967143505 0 0
          66971.52126420016 17567.697540929585 0 -17402.266697418716 0 0
          -55565.70132905551 -4451.550759524745 0 13743.614477349092 0 0
          41742.82996780073 -6002.084512150971 0 -11611.283131950902 0 0
          -44734.73625017738 -5039.827939633038 0 16525.829771615954 0 0
          37160.592783754706 -5222.272625455227 0 -11790.922952620229 0 0
          -42044.89199087582 -7945.930307323387 0 14900.840902122562 0 0
          28765.606463762884 -8850.974312083576 0 -8652.388351356678 0 0
          -36401.77089230912 -10142.809547067274 0 13295.412946834207 0 0
          <InformationKey name="L2_NORM_RANGE" location="vtkDataArray" length="2">
            <Value index="0">
              31315.550222
            </Value>
            <Value index="1">
              1444766.2422
            </Value>
          </InformationKey>
        </DataArray>
        <DataArray type="Float64" Name="Nodal Strain" NumberOfComponents="6" format="ascii" RangeMin="0.002714522960066167" RangeMax="0.11470801478152613">
          0.08343775402104693 -0.03146662847297871 0 0.07215206962787421 0 0
          0.009916724451360612 -0.010628073902304577 0 0.00048456618554699164 0 0
          -0.006515336150318822 0.001899106238137416 0 -0.002628354407353083 0 0
          0.0027931882164629203 -0.0003380659437804722 0 -0.0024348363820173805 0 0
          -0.0007578270947192862 0.002502105251284305 0 0.0030874773179082327 0 0
          0.004156262320981098 -0.0011370045065121782 0 -0.0018645285747234334 0 0
          -0.003809994710663796 0.0016665214217859296 0 0.0014725301225731176 0 0
          0.0031959908731340153 -0.0019195356782893806 0 -0.0012440660498518822 0 0
          -0.0030153444485972046 0.0012376814418182608 0 0.0017706246183874237 0 0
          0.0028408377926058804 -0.0017001835012380412 0 -0.0012633131734950244 0 0
          -0.002719423345515295 0.0009340368348653229 0 0.0015965186680845602 0 0
          0.00237079240141462 -0.0016595555388546441 0 -0.0009270416090739296 0 0
          -0.0022378832941982495 0.0005755768499348062 0 0.0014245085300179506 0 0
          <InformationKey name="L2_NORM_RANGE" location="vtkDataArray" length="2">
            <Value index="0">
              0.0027145229601
            </Value>
            <Value index="1">
              0.11470801478
            </Value>
          </InformationKey>
        </DataArray>
        <DataArray type="Float64" Name="Sld_traction" NumberOfComponents="3" format="ascii" RangeMin="18310.113034046393" RangeMax="160761.8920503475">
          17209.69748737581 -81640.24217423041 0 -160173.19962879305 13745.255773625635 0
          109449.63443055913 56829.37170043795 0 14168.814030481204 -11597.626838676719 0
          30147.6130557682 23448.92668361245 0 52998.48470700907 -19734.252332662192 0
          52955.53779773423 -2746.1391265782368 0 41937.55840871194 3352.919839413383 0
          42624.73168558009 -6160.995252917371 0 37813.34816303302 5128.29080344977 0
          40293.43416414607 -8439.053720951797 0 31873.410900119266 8161.536044260578 0
          33837.39410972886 -10557.746157938856 0
          <InformationKey name="L2_NORM_RANGE" location="vtkDataArray" length="2">
            <Value index="0">
              18310.113034
            </Value>
            <Value index="1">
              160761.89205
            </Value>
          </InformationKey>
        </DataArray>
        <DataArray type="Float64" Name="Velocity" NumberOfComponents="3" format="ascii" RangeMin="0" RangeMax="5.469741039054756">
          0 0 0 0 0 0
          0.018302671718051028 -0.06187577670768318 0 -0.04625757518613233 -0.053597627172549234 0
          0.10009451716089923 -0.32175749794757813 0 -0.1168951419003933 -0.30793949257548414 0
          0.2020080447206467 -0.9716105063950948 0 -0.23410008727688614 -0.9734442838866517 0
          0.30833336149357615 -2.0470923955854836 0 -0.3338921422135006 -2.0463547311396013 0
          0.41349361925128436 -3.5470802613962533 0 -0.4397132816517759 -3.550256733821893 0
          0.505364675945144 -5.446344974258118 0
          <InformationKey name="L2_NORM_RANGE" location="vtkDataArray" length="2">
            <Value index="0">
              0
            </Value>
            <Value index="1">
              5.4697410391
            </Value>
          </InformationKey>
        </DataArray>
        <DataArray type="Float64" Name="Acceleration" NumberOfComponents="3" format="ascii" RangeMin="0" RangeMax="665.1486260571335">
          0 0 0 0 0 0
          -27.463516112010268 85.08580748434997 0 42.784808731938256 86.41712746031999 0
          -54.44462488921431 284.3493143899768 0 59.03936212695589 287.7610437182366 0
          -41.366104178720434 520.2525497168499 0 59.44308221498841 527.0999172437696 0
          -7.07647779020499 660.70983564989 0 20.703229566865048 664.8263465230557 0
          43.62623179028469 624.3186386792077 0 -28.429027969014896 625.3401495904109 0
          97.42918349820593 372.04693467549805 0
          <InformationKey name="L2_NORM_RANGE" location="vtkDataArray" length="2">
            <Value index="0">
              0
            </Value>
            <Value index="1">
              665.14862606
            </Value>
          </InformationKey>
        </DataArray>
        <DataArray type="Float64" Name="Sigma" NumberOfComponents="6" format="ascii" RangeMin="94365.961954006" RangeMax="3539683.199612905">
          3084457.2523457883 624558.304674847 0 1620310.9381026232 0 0
          -292020.0953109682 -322358.1626988653 0 -280824.31802352733 0 0
          -710239.9385011563 -49867.5888816677 0 -266120.2920744153 0 0
          394711.92680928414 121206.83438583555 0 71407.8599944923 0 0
          40111.72640370326 87880.44348750323 0 100868.03677839345 0 0
          111883.63257066676 16269.65514541802 0 -89820.00613732927 0 0
          -176922.18563278433 -20556.275305276144 0 43533.82329545065 0 0
          131857.71841490438 -22068.464112017828 0 -30118.743687229522 0 0
          -121164.1941097321 5321.753580129914 0 42729.8968262093 0 0
          107329.41437706978 -12142.202830308986 0 -41330.36956602434 0 0
          -115044.00423752627 -7191.10150907254 0 41294.97951319272 0 0
          86751.52552328749 -19764.67445266837 0 -31439.867026871216 0 0
          -97040.78784206988 -9480.97733335585 0 33850.79010589624 0 0
          <InformationKey name="L2_NORM_RANGE" location="vtkDataArray" length="2">
            <Value index="0">
              94365.961954
            </Value>
            <Value index="1">
              3539683.1996
            </Value>
          </InformationKey>
        </DataArray>
        <DataArray type="Float64" Name="Press" format="ascii" RangeMin="-29060.108017022263" RangeMax="16786.998267122468">
          -29060.108017022263 -24658.302471283205 -28611.11512715883 -18358.706054637805 -28487.5939073939 -11059.942268000324
          2157.141095340019 16786.998267122468 -7594.901079964113 7940.8342959924385 -2283.1457991587718 11081.869614131303
          -983.2082595954922
        </DataArray>
        <DataArray type="Float64" Name="Dev strain" NumberOfComponents="6" format="ascii" RangeMin="0.0027805051276981424" RangeMax="0.11516632629705141">
          0.08443230432133698 -0.030472078172688658 0 0.07215206962787421 0 0
          0.01082419880051736 -0.009720599553147833 0 0.00048456618554699164 0 0
          -0.005577096835618787 0.002837345552837451 0 -0.002628354407353083 0 0
          0.0035671998210349927 0.00043594566079159866 0 -0.0024348363820173805 0 0
          0.0000047230068326738254 0.003264655352836265 0 0.0030874773179082327 0 0
          0.004515167877587126 -0.000778098949906151 0 -0.0018645285747234334 0 0
          -0.003775216328470125 0.0017012998039796006 0 0.0014725301225731176 0 0
          0.002937873725331995 -0.002177652826091401 0 -0.0012440660498518822 0 0
          -0.003026535680569307 0.0012264902098461582 0 0.0017706246183874237 0 0
          0.0026748920190970632 -0.001866129274746859 0 -0.0012633131734950244 0 0
          -0.002766353177913317 0.0008871070024673013 0 0.0015965186680845602 0 0
          0.0021395661973598592 -0.0018907817429094048 0 -0.0009270416090739296 0 0
          -0.002340594414931476 0.0004728657292015797 0 0.0014245085300179506 0 0
          <InformationKey name="L2_NORM_RANGE" location="vtkDataArray" length="2">
            <Value index="0">
              0.0027805051277
            </Value>
            <Value index="1">
              0.1151663263
            </Value>
          </InformationKey>
        </DataArray>
        <DataArray type="Float64" Name="J2 Stresses" format="ascii" RangeMin="4205351078.0856166" RangeMax="5608326692777.176">
          5608326692777.176 114310834960.35234 271168775794.94165 86519071550.91476 7209551682.204729 8408232833.506862
          16335808554.433737 9163522187.248074 7811002518.408854 6260568002.164597 7069736259.207625 4205351078.0856166
          5039870715.800973
        </DataArray>
      </PointData>
      <CellData>
        <DataArray type="UInt8" Name="vtkGhostType" format="ascii" RangeMin="0" RangeMax="0">
          0 0 0 0 0 0
          0 0 0 0 0
        </DataArray>
        <DataArray type="Float64" Name="Gauss Stress" NumberOfComponents="6" format="ascii" RangeMin="31618.158787806984" RangeMax="758689.4469796208">
          -226392.0768853066 -107549.01361592574 0 -158512.25003448338 0 0
          666622.5643060665 56667.67582628323 0 357788.77600156 0 0
          162933.6811845407 55816.89692957491 0 27485.296878518806 0 0
          -116957.90012578652 27920.75796749351 0 -31281.465100509842 0 0
          24901.120815749666 -6156.962392471263 0 -25468.308843036044 0 0
          -20772.407246156203 15401.142749196963 0 18193.951312171615 0 0
          45051.95672179762 -3918.6606263487033 0 -9573.072142348194 0 0
          -51626.47434837125 -8651.24918488856 0 18714.992144810152 0 0
          31925.497924598676 -7452.806893694977 0 -10491.752359900947 0 0
          -43605.33218443969 -5316.254447460687 0 14231.502257792568 0 0
          -39172.583666977225 -9540.412579906573 0 14568.634197405918 0 0
          <InformationKey name="L2_NORM_RANGE" location="vtkDataArray" length="2">
            <Value index="0">
              31618.158788
            </Value>
            <Value index="1">
              758689.44698
            </Value>
          </InformationKey>
        </DataArray>
        <DataArray type="Float64" Name="Gauss Strain" NumberOfComponents="6" format="ascii" RangeMin="0.002998294361662589" RangeMax="0.0627585672534092">
          -0.012329826434095983 0.00040335891619482696 0 -0.016983455360837507 0 0
          0.045592051885208915 -0.01976025759476785 0 0.03833451171445287 0 0
          0.009644659479982375 -0.0018321388330496719 0 0.0029448532369841587 0 0
          -0.009351305650680946 0.006171407716456198 0 -0.0033515855464831953 0 0
          0.0019985430008560945 -0.001329108771453293 0 -0.0027287473760395763 0 0
          -0.0020337841871967627 0.0018419533123053618 0 0.0019493519263041013 0 0
          0.0033579490739265704 -0.001888902784803394 0 -0.0010256863009658781 0 0
          -0.0033786321254233548 0.0012258562849497899 0 0.002005177729801087 0 0
          0.002546564383674726 -0.0016725397039995939 0 -0.0011241163242751014 0 0
          -0.0029248003543363836 0.0011776008317685113 0 0.001524803813334918 0 0
          -0.0024573126697874227 0.0007175628038272879 0 0.0015609250925792057 0 0
          <InformationKey name="L2_NORM_RANGE" location="vtkDataArray" length="2">
            <Value index="0">
              0.0029982943617
            </Value>
            <Value index="1">
              0.062758567253
            </Value>
          </InformationKey>
        </DataArray>
      </CellData>
      <Points>
        <DataArray type="Float32" Name="Points" NumberOfComponents="3" format="ascii" RangeMin="0" RangeMax="0.6020797527609908">
          0 0.05000000074505806 0 0 0 0
          0.10000000149011612 0.05000000074505806 0 0.10000000149011612 0 0
          0.20000000298023224 0.05000000074505806 0 0.20000000298023224 0 0
          0.30000001192092896 0.05000000074505806 0 0.30000001192092896 0 0
          0.4000000059604645 0.05000000074505806 0 0.4000000059604645 0 0
          0.5 0.05000000074505806 0 0.5 0 0
          0.6000000238418579 0.05000000074505806 0
          <InformationKey name="L2_NORM_RANGE" location="vtkDataArray" length="2">
            <Value index="0">
              0
            </Value>
            <Value index="1">
              0.60207975276
            </Value>
          </InformationKey>
        </DataArray>
      </Points>
      <Cells>
        <DataArray type="Int64" Name="connectivity" format="ascii" RangeMin="0" RangeMax="12">
          3 2 1 2 0 1
          5 4 3 4 2 3
          7 6 5 6 4 5
          9 8 7 8 6 7
          11 10 9 10 8 9
          12 10 11
        </DataArray>
        <DataArray type="Int64" Name="offsets" format="ascii" RangeMin="3" RangeMax="33">
          3 6 9 12 15 18
          21 24 27 30 33
        </DataArray>
        <DataArray type="UInt8" Name="types" format="ascii" RangeMin="5" RangeMax="5">
          5 5 5 5 5 5
          5 5 5 5 5
        </DataArray>
      </Cells>
    </Piece>
  </UnstructuredGrid>
</VTKFile>
