<?xml version="1.0"?>
<VTKFile type="UnstructuredGrid" version="0.1" byte_order="LittleEndian" header_type="UInt32" compressor="vtkZLibDataCompressor">
  <UnstructuredGrid>
    <Piece NumberOfPoints="13" NumberOfCells="11">
      <PointData>
        <DataArray type="Float64" Name="Disp" NumberOfComponents="3" format="ascii" RangeMin="0" RangeMax="0.015144280707615384">
          0 0 0 0 0 0
          -0.00016483129722703614 0.000491704627146429 0 0.0001978607027642244 0.0005290569067657815 0
          -0.00012218405330978802 0.0012744692947740431 0 0.0001020073299689244 0.0013472923012607075 0
          0.0003108970460694535 0.0011020207920477674 0 -0.00027358958285062277 0.0011542972843240579 0
          0.0009374087016566043 -0.0012251455225723627 0 -0.0009210981229824191 -0.0011820758691528598 0
          0.0017253629321486996 -0.006434456621285053 0 -0.0016993185269429756 -0.0064241113201693135 0
          0.002546184794680192 -0.014928703263927208 0
          <InformationKey name="L2_NORM_RANGE" location="vtkDataArray" length="2">
            <Value index="0">
              0
            </Value>
            <Value index="1">
              0.015144280708
            </Value>
          </InformationKey>
        </DataArray>
        <DataArray type="Float64" Name="Nodal Stress" NumberOfComponents="6" format="ascii" RangeMin="12776.881501210208" RangeMax="235887.92121738583">
          185900.98780174542 87951.50119290489 0 115535.56832642223 0 0
          5205.041976413301 26510.59832507471 0 16932.57879796329 0 0
          -11382.30747534696 -3467.128346270932 0 4655.190486232861 0 0
          -9850.022849810606 -17030.558261781018 0 802.6508317063124 0 0
          4959.610968986782 -12949.380256606486 0 5859.958525518365 0 0
          -18488.64741250081 -13496.833050695921 0 7377.0891204290165 0 0
          6998.718414531952 -16006.43352421705 0 -1620.5174672644275 0 0
          -29860.038643458553 -14978.92892937169 0 11082.985297102505 0 0
          20602.889403876317 -10801.975127765783 0 -5926.203207952705 0 0
          -34757.27037909898 -8635.161368230902 0 12484.741315676714 0 0
          29874.278154132924 -5664.8679183079375 0 -10001.878919253624 0 0
          -36339.83908776296 -3720.9662278094324 0 12618.018588248891 0 0
          35151.09324889735 64.36420115038396 0 -12594.419231453814 0 0
          <InformationKey name="L2_NORM_RANGE" location="vtkDataArray" length="2">
            <Value index="0">
              12776.881501
            </Value>
            <Value index="1">
              235887.92122
            </Value>
          </InformationKey>
        </DataArray>
        <DataArray type="Float64" Name="Nodal Strain" NumberOfComponents="6" format="ascii" RangeMin="0.0008654473680797794" RangeMax="0.01600411536169061">
          0.010137516943235213 -0.0003570709077119879 0 0.012378810892116664 0 0
          -0.0005750183704374322 0.0017077198097762898 0 0.0018142048712103522 0 0
          -0.0006891959501579637 0.00015885895652875315 0 0.0004987704092392355 0 0
          -0.0000953388370657214 -0.0008646819169196939 0 0.00008599830339710486 0 0
          0.0008167357926635731 -0.0011020846957928484 0 0.0006278526991626819 0 0
          -0.000838587920510918 -0.0003037506674603941 0 0.0007904024057602518 0 0
          0.0010715667983314625 -0.0013932709093916445 0 -0.00017362687149261721 0 0
          -0.0015978981556266224 -0.0000034935434030297805 0 0.0011874627104038397 0 0
          0.0018574197834113728 -0.0015073871306931386 0 -0.0006349503437092183 0 0
          -0.002174263549641681 0.0006245338443798993 0 0.0013376508552510767 0 0
          0.0023361937223776354 -0.0014715719282410284 0 -0.0010716298842057455 0 0
          -0.002462811140989875 0.001032068094005146 0 0.0013519305630266666 0 0
          0.002508493653451583 -0.0012507987445213062 0 -0.0013494020605129087 0 0
          <InformationKey name="L2_NORM_RANGE" location="vtkDataArray" length="2">
            <Value index="0">
              0.00086544736808
            </Value>
            <Value index="1">
              0.016004115362
            </Value>
          </InformationKey>
        </DataArray>
        <DataArray type="Float64" Name="Sld_traction" NumberOfComponents="3" format="ascii" RangeMin="12801.174623331657" RangeMax="46624.133831039515">
          13838.354472194476 15571.107958584165 0 -30944.930010619853 -34874.36253370837 0
          22548.356878046598 2666.465118744279 0 -5098.445875775345 11767.295742031933 0
          1207.8796054810718 -12744.061306965426 0 -11905.346604423277 14799.693602702593 0
          -10854.205229246474 -15610.284381310543 0 -25550.110966265573 14719.49005307338 0
          -24090.19247436403 -10110.0440561003 0 -33070.326254235806 9538.129476862632 0
          -32499.93280222983 -4972.616129391877 0 -36488.12035762388 4367.493974975946 0
          -37083.380168818374 962.8225364344179 0
          <InformationKey name="L2_NORM_RANGE" location="vtkDataArray" length="2">
            <Value index="0">
              12801.174623
            </Value>
            <Value index="1">
              46624.133831
            </Value>
          </InformationKey>
        </DataArray>
        <DataArray type="Float64" Name="Velocity" NumberOfComponents="3" format="ascii" RangeMin="0" RangeMax="6.638136546376493">
          0 0 0 0 0 0
          0.0871537920200918 -0.2769256881394846 0 -0.15137679135630547 -0.27245330124863826 0
          0.22654380512907782 -1.0160267001869525 0 -0.2534116057409007 -1.0099807095751872 0
          0.2882548290102746 -2.1915081150946074 0 -0.3635268627673029 -2.204921526092223 0
          0.32465032492894613 -3.5586619661833367 0 -0.3812723597100349 -3.560670631193714 0
          0.35317363362006565 -5.033154784414008 0 -0.41173905481511486 -5.032282134208102 0
          0.3887396382307099 -6.626744170556721 0
          <InformationKey name="L2_NORM_RANGE" location="vtkDataArray" length="2">
            <Value index="0">
              0
            </Value>
            <Value index="1">
              6.6381365464
            </Value>
          </InformationKey>
        </DataArray>
        <DataArray type="Float64" Name="Acceleration" NumberOfComponents="3" format="ascii" RangeMin="0" RangeMax="1681.1175856308257">
          0 0 0 0 0 0
          68.58127981372039 -219.58898286494815 0 -108.62303831969282 -224.2776417069466 0
          124.8905292740514 -705.6127388133734 0 -141.6660970212535 -713.0786641859008 0
          87.40240050813566 -1243.25902470049 0 -140.98703200938598 -1253.503650860851 0
          31.1044223340416 -1583.1809005738464 0 -74.10739252008176 -1585.179954506123 0
          -25.613030220109977 -1680.9224578784592 0 -20.47369068943169 -1677.949698192101 0
          -65.80924126488276 -1580.1287167018786 0
          <InformationKey name="L2_NORM_RANGE" location="vtkDataArray" length="2">
            <Value index="0">
              0
            </Value>
            <Value index="1">
              1681.1175856
            </Value>
          </InformationKey>
        </DataArray>
        <DataArray type="Float64" Name="Sigma" NumberOfComponents="6" format="ascii" RangeMin="29178.993888653058" RangeMax="546162.5226552353">
          447824.7365080304 179981.08777803846 0 255642.9435108224 0 0
          -62635.957517099014 33446.65921503042 0 -15662.385847208752 0 0
          -89312.8370702399 -41506.10277774784 0 -33481.22786874712 0 0
          13525.230742964883 -28130.60525125382 0 9429.685999213196 0 0
          24404.444261173183 -8463.724690696432 0 13572.109232445762 0 0
          -52598.142587127215 -14789.298978834266 0 8534.31710500803 0 0
          25846.78742858319 -31964.84308795892 0 -13559.931428149519 0 0
          -77395.36518841049 -21331.219565467356 0 27865.125207294343 0 0
          65423.22509413704 -18646.62458220082 0 -24457.614895326515 0 0
          -95843.29086382885 -7700.731254978333 0 33305.84786340803 0 0
          88756.97922288827 -14284.077045835007 0 -33150.76383672861 0 0
          -102979.25455786167 -211.63781336855504 0 37333.44086448834 0 0
          100403.03340593385 -5570.884881366161 0 -37938.92657113802 0 0
          <InformationKey name="L2_NORM_RANGE" location="vtkDataArray" length="2">
            <Value index="0">
              29178.993889
            </Value>
            <Value index="1">
              546162.52266
            </Value>
          </InformationKey>
        </DataArray>
        <DataArray type="Float64" Name="Press" format="ascii" RangeMin="-4406.574775868609" RangeMax="11774.031962573545">
          -1213.4982993295735 477.6091557423451 1852.6602211768168 5057.614003193569 4308.696150737388 2553.221148110921
          11774.031962573545 4550.360520205413 9903.191335838133 -1256.6950516908385 8788.356820069348 -4406.574775868609
          6461.502254440227
        </DataArray>
        <DataArray type="Float64" Name="Dev strain" NumberOfComponents="6" format="ascii" RangeMin="0.0009165862128521776" RangeMax="0.01600464318536431">
          0.010138380579143609 -0.0003562072718035952 0 0.012378810892116664 0 0
          -0.000617249945299874 0.001665488234913848 0 0.0018142048712103522 0 0
          -0.0007644388236589774 0.00008361608302773965 0 0.0004987704092392355 0 0
          -0.00023134844143132607 -0.0010006915212852985 0 0.00008599830339710486 0 0
          0.0006539365682862408 -0.0012648839201701808 0 0.0006278526991626819 0 0
          -0.0010085068420546276 -0.00047366958900410354 0 0.0007904024057602518 0 0
          0.0007767357191688155 -0.0016881019885542923 0 -0.00017362687149261721 0 0
          -0.0018120443931697056 -0.00021763978094611295 0 0.0011874627104038397 0 0
          0.0015997743437247626 -0.0017650325703797486 0 -0.0006349503437092183 0 0
          -0.002263509715552416 0.0005352876784691651 0 0.0013376508552510767 0 0
          0.002164264273402708 -0.0016435013772159556 0 -0.0010716298842057455 0 0
          -0.002448965701412295 0.0010459135335827265 0 0.0013519305630266666 0 0
          0.002426425927191528 -0.0013328664707813612 0 -0.0013494020605129087 0 0
          <InformationKey name="L2_NORM_RANGE" location="vtkDataArray" length="2">
            <Value index="0">
              0.00091658621285
            </Value>
            <Value index="1">
              0.016004643185
            </Value>
          </InformationKey>
        </DataArray>
        <DataArray type="Float64" Name="J2 Stresses" format="ascii" RangeMin="379656304.9226665" RangeMax="132808421934.8458">
          132808421934.8458 2582298675.9718175 5130017871.565834 509361153.73709506 379656304.9226665 1510852626.062765
          890871742.0921297 3416648041.1033473 2463491226.6058526 4899938708.21007 4315661394.651423 5650832281.624022
          5415742475.079801
        </DataArray>
      </PointData>
      <CellData>
        <DataArray type="UInt8" Name="vtkGhostType" format="ascii" RangeMin="0" RangeMax="0">
          0 0 0 0 0 0
          0 0 0 0 0
        </DataArray>
        <DataArray type="Float64" Name="Gauss Stress" NumberOfComponents="6" format="ascii" RangeMin="13648.8177499795" RangeMax="133661.65325049087">
          -43678.56015475375 -9600.721811286172 0 -13237.97590558089 0 0
          98997.57099942697 57679.47176430353 0 68833.10993162217 0 0
          -916.3120936490996 -13154.699206247547 0 10512.037445555663 0 0
          -13388.063896998014 -22293.8207815301 0 -3493.1442123627185 0 0
          -28423.035572021552 -16402.582667123555 0 7613.170294717622 0 0
          5429.679454683679 -12193.972498689254 0 2848.831636434754 0 0
          -31539.524717916553 -11493.906199431267 0 12237.78605845862 0 0
          13367.410384308947 -15238.36780567 0 -3384.1403720605667 0 0
          -35646.826402097446 -6357.1197072239975 0 12496.174963722586 0 0
          25257.255519137718 -7732.193259599173 0 -8100.84362288237 0 0
          32341.347456533804 -3074.4384806429184 0 -11252.083181126105 0 0
          <InformationKey name="L2_NORM_RANGE" location="vtkDataArray" length="2">
            <Value index="0">
              13648.81775
            </Value>
            <Value index="1">
              133661.65325
            </Value>
          </InformationKey>
        </DataArray>
        <DataArray type="Float64" Name="Gauss Strain" NumberOfComponents="6" format="ascii" RangeMin="0.0011862967755395383" RangeMax="0.008935579751623615">
          -0.002777014232079334 0.0008741827332921932 0 -0.001418354561312238 0 0
          0.005011273936948229 0.0005843347331850034 0 0.007374976064102374 0 0
          0.00040435982210533397 -0.0009068959399587855 0 0.0011262897263095355 0 0
          -0.00016008239330235474 -0.0011142706309307925 0 -0.0003742654513245768 0 0
          -0.001444410302747127 -0.00015650463436519863 0 0.0008156968172911736 0 0
          0.0008233332645734503 -0.0010649151590022207 0 0.00030523196104658074 0 0
          -0.001842326544157208 0.0003054182971090716 0 0.001311191363406281 0 0
          0.0014990424490817105 -0.0015658623569874625 0 -0.00036258646843506073 0 0
          -0.0023191618963203896 0.0008190209638446234 0 0.0013388758889702772 0 0
          0.0020802394392098076 -0.0014543443585120022 0 -0.0008679475310231105 0 0
          0.002419897621203948 -0.0013746508720649873 0 -0.0012055803408349394 0 0
          <InformationKey name="L2_NORM_RANGE" location="vtkDataArray" length="2">
            <Value index="0">
              0.0011862967755
            </Value>
            <Value index="1">
              0.0089355797516
            </Value>
          </InformationKey>
        </DataArray>
      </CellData>
      <Points>
        <DataArray type="Float32" Name="Points" NumberOfComponents="3" format="ascii" RangeMin="0" RangeMax="0.6020797527609908">
          0 0.05000000074505806 0 0 0 0
          0.10000000149011612 0.05000000074505806 0 0.10000000149011612 0 0
          0.20000000298023224 0.05000000074505806 0 0.20000000298023224 0 0
          0.30000001192092896 0.05000000074505806 0 0.30000001192092896 0 0
          0.4000000059604645 0.05000000074505806 0 0.4000000059604645 0 0
          0.5 0.05000000074505806 0 0.5 0 0
          0.6000000238418579 0.05000000074505806 0
          <InformationKey name="L2_NORM_RANGE" location="vtkDataArray" length="2">
            <Value index="0">
              0
            </Value>
            <Value index="1">
              0.60207975276
            </Value>
          </InformationKey>
        </DataArray>
      </Points>
      <Cells>
        <DataArray type="Int64" Name="connectivity" format="ascii" RangeMin="0" RangeMax="12">
          3 2 1 2 0 1
          5 4 3 4 2 3
          7 6 5 6 4 5
          9 8 7 8 6 7
          11 10 9 10 8 9
          12 10 11
        </DataArray>
        <DataArray type="Int64" Name="offsets" format="ascii" RangeMin="3" RangeMax="33">
          3 6 9 12 15 18
          21 24 27 30 33
        </DataArray>
        <DataArray type="UInt8" Name="types" format="ascii" RangeMin="5" RangeMax="5">
          5 5 5 5 5 5
          5 5 5 5 5
        </DataArray>
      </Cells>
    </Piece>
  </UnstructuredGrid>
</VTKFile>
