<?xml version="1.0"?>
<VTKFile type="UnstructuredGrid" version="0.1" byte_order="LittleEndian" header_type="UInt32" compressor="vtkZLibDataCompressor">
  <UnstructuredGrid>
    <Piece NumberOfPoints="13" NumberOfCells="11">
      <PointData>
        <DataArray type="Float64" Name="Disp" NumberOfComponents="3" format="ascii" RangeMin="0.00427459819576037" RangeMax="0.006327854513187076">
          0.0002615329000009136 0.005757430847193555 0 -0.000024366603497456652 0.006327663015488627 0
          0.00011140511682296638 0.006326873765139282 0 0.00011310402172949752 0.006311282567747164 0
          -0.000024053638569670217 0.0063020651795649 0 0.00020480556982848793 0.005821218348327749 0
          -0.0001176996271012075 0.0058107371269872695 0 0.0002445913423884587 0.005067923633268747 0
          -0.00015248269610515145 0.005055685386779355 0 0.00023875325308845335 0.004272024717702589 0
          -0.00014729911205104538 0.00427205953923711 0 -0.0001738187952919857 0.005750314397500347 0
          0.00037894806728138635 0.0046168365459851365 0
          <InformationKey name="L2_NORM_RANGE" location="vtkDataArray" length="2">
            <Value index="0">
              0.0042745981958
            </Value>
            <Value index="1">
              0.0063278545132
            </Value>
          </InformationKey>
        </DataArray>
        <DataArray type="Float64" Name="Nodal Stress" NumberOfComponents="6" format="ascii" RangeMin="1155.310759906554" RangeMax="6854.15393672366">
          -5985.556770207129 -2059.729368483393 0 2463.7555352136746 0 0
          5106.326178747951 -532.2558855575644 0 -2072.5782726826624 0 0
          -5222.983545329756 346.47484786543623 0 2018.278009755333 0 0
          6194.114757476109 1508.0424630947332 0 -2517.5735319994737 0 0
          -3530.5296648954 2027.8096879716084 0 1224.6521393982982 0 0
          5612.886768753632 2630.695912344236 0 -2261.50089415995 0 0
          -1527.530935441916 2813.109157516222 0 368.8819952581665 0 0
          4193.004211935849 2910.5997977338025 0 -1434.791997836406 0 0
          -229.01335815321872 2463.841984726982 0 -193.72175899776363 0 0
          2446.8799901227853 1732.648507772981 0 -549.7151516062788 0 0
          -468.54166611264606 1026.7362169866067 0 -247.03117171781565 0 0
          2491.792755039482 -2862.6092369999783 0 -923.5042765868792 0 0
          -4725.823808147801 -3765.4293883163327 0 2128.546264783338 0 0
          <InformationKey name="L2_NORM_RANGE" location="vtkDataArray" length="2">
            <Value index="0">
              1155.3107599
            </Value>
            <Value index="1">
              6854.1539367
            </Value>
          </InformationKey>
        </DataArray>
        <DataArray type="Float64" Name="Nodal Strain" NumberOfComponents="6" format="ascii" RangeMin="0.00011718619593070987" RangeMax="0.0004951197036548732">
          -0.00035397800614038813 0.00006664635833001223 0 0.0002639738073443223 0 0
          0.00038374672296619523 -0.0002203870696379671 0 -0.00022206195778742813 0 0
          -0.00038544435494731967 0.00021128333003787956 0 0.00021624407247378564 0 0
          0.0003885781089949102 -0.00011350106540309437 0 -0.00026974002128565784 0 0
          -0.000324602464920086 0.0002709338943156649 0 0.00013121272922124623 0 0
          0.00030696705804153675 -0.000012553390859469949 0 -0.00024230366723142322 0 0
          -0.00020957753672857339 0.0002554910446597986 0 0.000039523070920517825 0 0
          0.0001955503080763534 0.000058149835126134216 0 -0.00015372771405390063 0 0
          -0.00010435245360833638 0.00018416776170025653 0 -0.000020755902749760386 0 0
          0.00011289683830259254 0.00003637203662225633 0 -0.000058898051957815584 0 0
          -0.00007013641247185354 0.00009007193214592356 0 -0.000026467625541194533 0 0
          0.0002802212409671051 -0.00029346468675140857 0 -0.00009894688677716563 0 0
          -0.00020307922242783103 -0.00010017982030303096 0 0.00022805852836964334 0 0
          <InformationKey name="L2_NORM_RANGE" location="vtkDataArray" length="2">
            <Value index="0">
              0.00011718619593
            </Value>
            <Value index="1">
              0.00049511970365
            </Value>
          </InformationKey>
        </DataArray>
        <DataArray type="Float64" Name="Sld_traction" NumberOfComponents="3" format="ascii" RangeMin="858.3773925406182" RangeMax="6828.427193248345">
          -6314.533491228987 2237.511846544031 0 -6362.369403110378 -273.38298861919395 0
          -6381.865757709924 -52.062049341468196 0 -6620.432512007931 1672.5104745387473 0
          -4882.9152200146955 -1834.844000556036 0 -5253.344069972288 2725.7277999229123 0
          -2639.7332113757243 -2684.0429129351805 0 -2901.538143890545 2818.2007193523054 0
          -601.3666623230229 -2461.2180888093967 0 45.04714899873421 1084.9236175033418 0
          299.7599620498739 -804.3355724924073 0 -4060.931365841626 -2628.493580689462 0
          -4581.227663606898 4138.98186022891 0
          <InformationKey name="L2_NORM_RANGE" location="vtkDataArray" length="2">
            <Value index="0">
              858.37739254
            </Value>
            <Value index="1">
              6828.4271932
            </Value>
          </InformationKey>
        </DataArray>
        <DataArray type="Float64" Name="Velocity" NumberOfComponents="3" format="ascii" RangeMin="4.925576457169391" RangeMax="16.37779131828341">
          -0.5639260713164502 -6.988013349070826 0 0.46364904678106633 -9.04736915100852 0
          -0.543758334375456 -9.051110456410631 0 0.43413534071768844 -11.006981258924593 0
          -0.5143810848618887 -11.00643524489859 0 0.4100858494378698 -12.850103283334244 0
          -0.48947277697488245 -12.848087568651358 0 0.3982865767278942 -14.618148916392855 0
          -0.4787586622059251 -14.614844717449888 0 0.3996862853001103 -16.370795312802947 0
          -0.47962725457200506 -16.370766816551725 0 0.48213241560235687 -6.980448460619225 0
          -0.548663355895216 -4.894923079816389 0
          <InformationKey name="L2_NORM_RANGE" location="vtkDataArray" length="2">
            <Value index="0">
              4.9255764572
            </Value>
            <Value index="1">
              16.377791318
            </Value>
          </InformationKey>
        </DataArray>
        <DataArray type="Float64" Name="Acceleration" NumberOfComponents="3" format="ascii" RangeMin="90.11278736568634" RangeMax="840.4855330242702">
          -1.6893710469444159 -689.5295963233912 0 -49.26724465064126 -593.4519142790523 0
          35.77061527099863 -592.7924059586549 0 -82.24064728058988 -353.52042884040566 0
          68.22566513677089 -351.13728662216454 0 -103.7112232057973 -1.752268914518936 0
          90.10932554446686 0.7898713405957096 0 -112.86227592644673 410.92026773287944 0
          98.0616438643367 413.7742461940361 0 -111.47960042461091 833.0595596428029 0
          96.78893997795694 833.0468701741993 0 -11.783907155318275 -688.5484589483094 0
          -34.71864277041368 -638.1321936941094 0
          <InformationKey name="L2_NORM_RANGE" location="vtkDataArray" length="2">
            <Value index="0">
              90.112787366
            </Value>
            <Value index="1">
              840.48553302
            </Value>
          </InformationKey>
        </DataArray>
        <DataArray type="Float64" Name="Sigma" NumberOfComponents="6" format="ascii" RangeMin="1229.041442339159" RangeMax="18296.310916626095">
          -16728.370841780183 -2679.4916387510166 0 6810.908891243415 0 0
          15139.781724039063 -1487.6218956586379 0 -6775.193789474805 0 0
          -15629.61104373535 1323.3974749787892 0 6615.923471466551 0 0
          16899.60036494466 1367.5024983412793 0 -6876.65889658952 0 0
          -11628.822023428436 3756.7513522020395 0 5016.591769149922 0 0
          14218.411495047352 3128.3709930996197 0 -5440.765696214697 0 0
          -6144.3951752301 4533.505023779242 0 2615.200772021936 0 0
          9614.645473597451 3773.74892569484 0 -2880.3427383854146 0 0
          -2433.162477922189 4063.418167589619 0 361.0044110166788 0 0
          5802.608079715863 2200.213209612423 0 -447.09221358691514 0 0
          -530.9136625131167 1012.549215981205 0 -451.0184421505131 0 0
          8986.452366186095 -5383.788264177104 0 -4196.782364173523 0 0
          -12489.856212351524 -4630.9226284340275 0 4027.6419109337107 0 0
          <InformationKey name="L2_NORM_RANGE" location="vtkDataArray" length="2">
            <Value index="0">
              1229.0414423
            </Value>
            <Value index="1">
              18296.310917
            </Value>
          </InformationKey>
        </DataArray>
        <DataArray type="Float64" Name="Press" format="ascii" RangeMin="-1761.9066966924765" RangeMax="2303.9000163141973">
          210.37473104662882 1390.7863799576664 -1130.8313990612332 459.4298806103486 -1745.5264521190668 -304.2021459726783
          -1761.9066966924765 -542.9898936167589 -1056.7788984085655 -1038.2138689378585 -1043.3960869358 2303.9000163141973
          889.7531040698382
        </DataArray>
        <DataArray type="Float64" Name="Dev strain" NumberOfComponents="6" format="ascii" RangeMin="0.00013419926162052453" RangeMax="0.0004897206814220959">
          -0.00037900938377084077 0.00004161498069955953 0 0.0002639738073443223 0 0
          0.00035616596451190554 -0.00024796782809225685 0 -0.00022206195778742813 0 0
          -0.00037169522520236783 0.0002250324597828314 0 0.00021624407247378564 0 0
          0.00039426130002084337 -0.00010781787437716127 0 -0.00026974002128565784 0 0
          -0.0002857469847439171 0.00030978937449183385 0 0.00013121272922124623 0 0
          0.0003335255080012557 0.000014005059100248996 0 -0.00024230366723142322 0 0
          -0.00016473191288970024 0.00030033666849867173 0 0.000039523070920517825 0 0
          0.000226019732382345 0.0000886192594321258 0 -0.00015372771405390063 0 0
          -0.00006772035926551226 0.00022079985604308064 0 -0.000020755902749760386 0 0
          0.0001479539778254547 0.0000714291761451185 0 -0.000058898051957815584 0 0
          -0.00003279904692526402 0.0001274092976925131 0 -0.000026467625541194533 0 0
          0.00022251897278604266 -0.00035116695493247097 0 -0.00009894688677716563 0 0
          -0.00026014987448869353 -0.00015725047236389333 0 0.00022805852836964334 0 0
          <InformationKey name="L2_NORM_RANGE" location="vtkDataArray" length="2">
            <Value index="0">
              0.00013419926162
            </Value>
            <Value index="1">
              0.00048972068142
            </Value>
          </InformationKey>
        </DataArray>
        <DataArray type="Float64" Name="J2 Stresses" format="ascii" RangeMin="704417.0247035909" RangeMax="155555387.18391463">
          155106153.21233365 127188817.4992296 133960671.97269268 155555387.18391463 80962889.43199873 113375448.09675755
          30862948.704507306 55415387.84121784 11248404.470526282 19305572.209130913 704417.0247035909 59273996.65467085
          92776451.13855657
        </DataArray>
      </PointData>
      <CellData>
        <DataArray type="UInt8" Name="vtkGhostType" format="ascii" RangeMin="0" RangeMax="1">
          1 1 0 0 0 0
          0 0 0 0 0
        </DataArray>
        <DataArray type="Float64" Name="Gauss Stress" NumberOfComponents="6" format="ascii" RangeMin="1394.4221328847573" RangeMax="6815.497476120479">
          -5609.248945504984 -3096.7248933104947 0 2213.922812667868 0 0
          3767.6414585878247 -1881.946890422755 0 -1387.0224208016389 0 0
          -5582.623483177805 -791.1287824959342 0 2217.212857745054 0 0
          -4258.586890929692 1343.574451650719 0 1585.2854480089843 0 0
          5709.7186355850545 640.8876463894043 0 -2345.309738199259 0 0
          -2455.480332798469 2535.66402476556 0 730.3422816523869 0 0
          5966.297039694061 2220.7753753871807 0 -2433.610941218099 0 0
          -774.8625560908793 3002.9988761153 0 31.954148217733405 0 0
          5026.521019044264 2942.175402097263 0 -1901.9692208593922 0 0
          -99.95230500055573 1379.2639129670072 0 -179.0354149069165 0 0
          3448.7028048093152 2466.4658806445664 0 -988.8101803185504 0 0
          <InformationKey name="L2_NORM_RANGE" location="vtkDataArray" length="2">
            <Value index="0">
              1394.4221329
            </Value>
            <Value index="1">
              6815.4974761
            </Value>
          </InformationKey>
        </DataArray>
        <DataArray type="Float64" Name="Gauss Strain" NumberOfComponents="6" format="ascii" RangeMin="0.00011819845060644451" RangeMax="0.00048614491699874385">
          -0.00029006332134640984 -0.000020864315754143137 0 0.00023720601564298585 0 0
          0.0003363296359856573 -0.0002689834014083334 0 -0.00014860954508588985 0 0
          -0.00037050422085213125 0.00014287021136378335 0 0.00023755852047268436 0 0
          -0.00035216957976821797 0.00024806199265111186 0 0.00016985201228667692 0 0
          0.0003849482008850253 -0.00015814083367165162 0 -0.00025128318623563486 0 0
          -0.0002659508817986607 0.0002688145850831996 0 0.00007825095874847004 0 0
          0.00034685066800003376 -0.00005445522460427498 0 -0.0002607440294162248 0 0
          -0.00016259728529632351 0.00024217358244005285 0 0.0000034236587376142857 0 0
          0.0002539595227139739 0.00003063677804108082 0 -0.00020378241652064914 0 0
          -0.000056398875820289974 0.0001020885761048061 0 -0.000019182365882883914 0 0
          0.00015824784746335945 0.00005300817701713638 0 -0.00010594394789127323 0 0
          <InformationKey name="L2_NORM_RANGE" location="vtkDataArray" length="2">
            <Value index="0">
              0.00011819845061
            </Value>
            <Value index="1">
              0.000486144917
            </Value>
          </InformationKey>
        </DataArray>
      </CellData>
      <Points>
        <DataArray type="Float32" Name="Points" NumberOfComponents="3" format="ascii" RangeMin="0.4000000059604645" RangeMax="1.0012492197622458">
          0.5 0 0 0.6000000238418579 0.05000000074505806 0
          0.6000000238418579 0 0 0.699999988079071 0.05000000074505806 0
          0.699999988079071 0 0 0.800000011920929 0.05000000074505806 0
          0.800000011920929 0 0 0.8999999761581421 0.05000000074505806 0
          0.8999999761581421 0 0 1 0.05000000074505806 0
          1 0 0 0.5 0.05000000074505806 0
          0.4000000059604645 0 0
          <InformationKey name="L2_NORM_RANGE" location="vtkDataArray" length="2">
            <Value index="0">
              0.40000000596
            </Value>
            <Value index="1">
              1.0012492198
            </Value>
          </InformationKey>
        </DataArray>
      </Points>
      <Cells>
        <DataArray type="Int64" Name="connectivity" format="ascii" RangeMin="0" RangeMax="12">
          0 11 12 1 11 0
          2 1 0 4 3 2
          3 1 2 6 5 4
          5 3 4 8 7 6
          7 5 6 10 9 8
          9 7 8
        </DataArray>
        <DataArray type="Int64" Name="offsets" format="ascii" RangeMin="3" RangeMax="33">
          3 6 9 12 15 18
          21 24 27 30 33
        </DataArray>
        <DataArray type="UInt8" Name="types" format="ascii" RangeMin="5" RangeMax="5">
          5 5 5 5 5 5
          5 5 5 5 5
        </DataArray>
      </Cells>
    </Piece>
  </UnstructuredGrid>
</VTKFile>
