<?xml version="1.0"?>
<VTKFile type="UnstructuredGrid" version="0.1" byte_order="LittleEndian" header_type="UInt32" compressor="vtkZLibDataCompressor">
  <UnstructuredGrid>
    <Piece NumberOfPoints="13" NumberOfCells="11">
      <PointData>
        <DataArray type="Float64" Name="Disp" NumberOfComponents="3" format="ascii" RangeMin="0.0011431695091970759" RangeMax="0.007617038703383356">
          -0.00012689268283679647 -0.007615981673814774 0 -0.00035372046083860737 -0.007154677049604026 0
          0.00021502378596465954 -0.00714939765443272 0 -0.0006566322072864034 -0.005376708215735092 0
          0.0005131851965317658 -0.005355083044532835 0 -0.0008545853098008684 -0.0025688853201161353 0
          0.000714960754621822 -0.0025455945592980315 0 -0.0009391817564582293 0.0008013804410313194 0
          0.0007885157638522163 0.0008276952439844263 0 -0.0009264652316678149 0.0042596248098372615 0
          0.0007768640863878679 0.004259510641205618 0 -0.000011853932229956288 -0.007605715890616718 0
          -0.00042230434471557745 -0.006739128448552229 0
          <InformationKey name="L2_NORM_RANGE" location="vtkDataArray" length="2">
            <Value index="0">
              0.0011431695092
            </Value>
            <Value index="1">
              0.0076170387034
            </Value>
          </InformationKey>
        </DataArray>
        <DataArray type="Float64" Name="Nodal Stress" NumberOfComponents="6" format="ascii" RangeMin="2475.9964211252227" RangeMax="15903.692264073172">
          13874.020226936213 3168.032548303534 0 -5445.555284981699 0 0
          -12878.658627843723 133.19546399571317 0 5099.800566003035 0 0
          11684.917952283313 -1571.4114460993915 0 -4355.867876562558 0 0
          -14322.182466419797 -3863.3238835283228 0 5733.868292861096 0 0
          7734.493904346749 -4836.795434486531 0 -2584.134713259434 0 0
          -12503.999936982429 -5943.576191343775 0 4971.158660108623 0 0
          3323.536185016926 -6226.301747318116 0 -747.6142802292518 0 0
          -9127.15696438494 -6321.385172307139 0 3094.6094784665293 0 0
          514.0112855107031 -5311.25926162928 0 432.61514401098276 0 0
          -5261.359927292136 -3708.936498342627 0 1174.771161407696 0 0
          1029.1212774106596 -2187.7889356942696 0 533.8981613185207 0 0
          -8363.628181790325 4785.012325269184 0 3042.706441402263 0 0
          12189.183818998676 6752.746135095867 0 -5078.427337845668 0 0
          <InformationKey name="L2_NORM_RANGE" location="vtkDataArray" length="2">
            <Value index="0">
              2475.9964211
            </Value>
            <Value index="1">
              15903.692264
            </Value>
          </InformationKey>
        </DataArray>
        <DataArray type="Float64" Name="Nodal Strain" NumberOfComponents="6" format="ascii" RangeMin="0.0002520451589543319" RangeMax="0.0011721593262045335">
          0.0008778574251988891 -0.0002692126832260408 0 -0.0005834523519623249 0 0
          -0.0009246611685601127 0.00046946605556554086 0 0.0005464072035003252 0 0
          0.0008907588339523576 -0.0005295621730172175 0 -0.00046670012963170263 0 0
          -0.0008850371803325455 0.00023555481069154104 0 0.0006143430313779745 0 0
          0.000725206544399287 -0.0006217173133328505 0 -0.00027687157642065365 0 0
          -0.0006808722743793244 0.000022030269796245533 0 0.0005326241421544953 0 0
          0.00045976336133399904 -0.0005634335599876128 0 -0.00008010153002456272 0 0
          -0.00042617602701652656 -0.00012555762072247647 0 0.000331565301264271 0 0
          0.00022640292259466733 -0.0003977332074560451 0 0.00004635162257260529 0 0
          -0.0002433494055800589 -0.0000770183239068971 0 0.00012586833872225314 0 0
          0.0001516439818041282 -0.0001930249695999714 0 0.00005720337442698436 0 0
          -0.0007682953103160656 0.0006404876011545961 0 0.0003260042615788138 0 0
          0.0006294864822464816 0.00004701101611403797 0 -0.0005441172147691787 0 0
          <InformationKey name="L2_NORM_RANGE" location="vtkDataArray" length="2">
            <Value index="0">
              0.00025204515895
            </Value>
            <Value index="1">
              0.0011721593262
            </Value>
          </InformationKey>
        </DataArray>
        <DataArray type="Float64" Name="Sld_traction" NumberOfComponents="3" format="ascii" RangeMin="1835.1839013493661" RangeMax="15439.995567938522">
          14790.111696618063 -3567.785881253761 0 15050.112124738496 -396.4993267804868 0
          14220.280149120284 974.7663629521131 0 14859.9264350726 -4192.379930563512 0
          10614.60753726515 4450.246530014207 0 11472.969432708851 -6126.547826828505 0
          5637.908382510811 5975.688804905869 0 6233.513631750459 -6114.49008104643 0
          1254.8616769195191 5320.068195577255 0 -110.98705710427001 -2329.542578113107 0
          -649.1860018157769 1716.524828488748 0 11211.738504524115 4294.277450090563 0
          11995.783638366602 -7479.4245932306285 0
          <InformationKey name="L2_NORM_RANGE" location="vtkDataArray" length="2">
            <Value index="0">
              1835.1839013
            </Value>
            <Value index="1">
              15439.995568
            </Value>
          </InformationKey>
        </DataArray>
        <DataArray type="Float64" Name="Velocity" NumberOfComponents="3" format="ascii" RangeMin="2.639416126791583" RangeMax="19.663074076744497">
          0.5642063116905983 4.532979163998845 0 -0.6509192962185224 6.970766676498991 0
          0.681910202441543 6.976942173905606 0 -0.7428225209837016 9.838396370777406 0
          0.7719837925327333 9.846611302969327 0 -0.7978593711018841 13.001288315252362 0
          0.8276476223775382 13.008626549205022 0 -0.8197872243021387 16.31344048033956 0
          0.8462205040518255 16.320645231618897 0 -0.8160984091393997 19.645096049230776 0
          0.8424063142963164 19.645020584086318 0 -0.5313597550420867 4.528991571743368 0
          0.42714705770316674 2.6046233665278766 0
          <InformationKey name="L2_NORM_RANGE" location="vtkDataArray" length="2">
            <Value index="0">
              2.6394161268
            </Value>
            <Value index="1">
              19.663074077
            </Value>
          </InformationKey>
        </DataArray>
        <DataArray type="Float64" Name="Acceleration" NumberOfComponents="3" format="ascii" RangeMin="195.30518007422705" RangeMax="1780.297477182047">
          0.05018536350166869 1374.0187273577103 0 104.24391809697522 1163.4916632804016 0
          -75.75936004319578 1162.0271613905607 0 170.33502883627443 663.1306927127407 0
          -140.7307609450063 658.2751683650131 0 212.97846329009235 -60.1310233656186 0
          -184.09672923916787 -65.21125399244193 0 231.02454437634105 -903.6665278212458 0
          -199.70057795102684 -909.3054805751017 0 228.28021205952746 -1765.6011021866798 0
          -197.127902942721 -1765.5672821248736 0 28.269162878216548 1372.1983863491696 0
          67.80303903650042 1284.159617871419 0
          <InformationKey name="L2_NORM_RANGE" location="vtkDataArray" length="2">
            <Value index="0">
              195.30518007
            </Value>
            <Value index="1">
              1780.2974772
            </Value>
          </InformationKey>
        </DataArray>
        <DataArray type="Float64" Name="Sigma" NumberOfComponents="6" format="ascii" RangeMin="2623.6204252793023" RangeMax="42508.247406140734">
          39352.263300444945 3423.8489983226455 0 -15704.385652129446 0 0
          -37221.00203870888 2009.5676745698977 0 15842.167734094734 0 0
          35267.51340824242 -4243.165055987252 0 -14689.315060162564 0 0
          -38693.51200734156 -3733.7818365927033 0 15372.78051405334 0 0
          25570.866754107017 -8893.20070704036 0 -10860.035001942008 0 0
          -31556.224986796522 -7089.380879116687 0 11826.268820127507 0 0
          13356.189017926345 -10057.348373816523 0 -5558.190155660308 0 0
          -20909.049593996548 -8189.549757380104 0 6159.960801689725 0 0
          5256.312503365788 -8769.138761642687 0 -734.6546704816213 0 0
          -12462.680971938356 -4699.2852808805865 0 934.9697636163522 0 0
          1154.9893665543937 -2147.8032726801134 0 967.638776069676 0 0
          -27003.768818566165 9673.517365789452 0 11559.22129799871 0 0
          33025.61945815554 7819.21979625809 0 -11233.812511028034 0 0
          <InformationKey name="L2_NORM_RANGE" location="vtkDataArray" length="2">
            <Value index="0">
              2623.6204253
            </Value>
            <Value index="1">
              42508.247406
            </Value>
          </InformationKey>
        </DataArray>
        <DataArray type="Float64" Name="Press" format="ascii" RangeMin="-4603.562157474941" RangeMax="4064.2357004052683">
          541.3645243184665 -2739.898759465597 2996.9533825575772 -793.8449928219287 4064.2357004052683 775.9396982898471
          3917.9408937013186 1211.6543491310601 2301.600859303382 2237.367608425021 2236.953188689008 -4603.562157474941
          -1027.1469258702984
        </DataArray>
        <DataArray type="Float64" Name="Dev strain" NumberOfComponents="6" format="ascii" RangeMin="0.00028833714398761307" RangeMax="0.0011566436029976594">
          0.0009060387592205647 -0.00024103134920436516 0 -0.0005834523519623249 0 0
          -0.0008807321093537488 0.0005133951147719051 0 0.0005464072035003252 0 0
          0.0008445688547395777 -0.0005757521522299978 0 -0.00046670012963170263 0 0
          -0.000907047148034386 0.00021354484298970064 0 0.0006143430313779745 0 0
          0.0006321574435373037 -0.0007147664141948336 0 -0.00027687157642065365 0 0
          -0.0007434847765646263 -0.000040582232389056246 0 0.0005326241421544953 0 0
          0.0003590232719984084 -0.0006641736493232034 0 -0.00008010153002456272 0 0
          -0.0004938019701936417 -0.0001931835638995915 0 0.000331565301264271 0 0
          0.00014645487749549238 -0.0004776812525552201 0 0.00004635162257260529 0 0
          -0.0003192479756252682 -0.00015291689395210655 0 0.00012586833872225314 0 0
          0.00007117188497282087 -0.00027349706643127876 0 0.00005720337442698436 0 0
          -0.0006618612379241815 0.0007469216735464801 0 0.0003260042615788138 0 0
          0.0007247000080485299 0.0001422245419160863 0 -0.0005441172147691787 0 0
          <InformationKey name="L2_NORM_RANGE" location="vtkDataArray" length="2">
            <Value index="0">
              0.00028833714399
            </Value>
            <Value index="1">
              0.001156643603
            </Value>
          </InformationKey>
        </DataArray>
        <DataArray type="Float64" Name="J2 Stresses" format="ascii" RangeMin="3207610.867732968" RangeMax="841818616.5931329">
          841818616.5931329 757464247.1309217 684844970.0806347 814645094.3160918 395964212.74685085 557992486.8847333
          147492390.14906284 261614819.34599432 52398237.248207 88919391.69442688 3207610.867732968 444794133.570425
          607465505.2917805
        </DataArray>
      </PointData>
      <CellData>
        <DataArray type="UInt8" Name="vtkGhostType" format="ascii" RangeMin="0" RangeMax="1">
          1 1 0 0 0 0
          0 0 0 0 0
        </DataArray>
        <DataArray type="Float64" Name="Gauss Stress" NumberOfComponents="6" format="ascii" RangeMin="2982.1707659296376" RangeMax="15504.539182924378">
          13428.256460335851 5275.747200447805 0 -5126.32562171959 0 0
          -10558.201316484061 2768.2792153533073 0 3899.001126654667 0 0
          12732.397939129645 662.890254771912 0 -4850.510992732426 0 0
          9470.737415049598 -3534.267836493134 0 -3392.1898493504104 0 0
          -13727.930335845993 -2168.056529246669 0 5508.544395995173 0 0
          5376.315692544423 -5760.604555859045 0 -1530.6521124916026 0 0
          -13544.179944719299 -5223.344338958854 0 5446.338110746281 0 0
          1711.5493431437826 -6528.280263567851 0 -44.29467481740198 0 0
          -11067.85020724817 -6476.914689730362 0 4142.679822052309 0 0
          241.51418479974518 -2946.768552928658 0 389.317956401469 0 0
          -7454.931748569885 -5302.450327681303 0 2120.091964941485 0 0
          <InformationKey name="L2_NORM_RANGE" location="vtkDataArray" length="2">
            <Value index="0">
              2982.1707659
            </Value>
            <Value index="1">
              15504.539183
            </Value>
          </InformationKey>
        </DataArray>
        <DataArray type="Float64" Name="Gauss Strain" NumberOfComponents="6" format="ascii" RangeMin="0.00025446642232026807" RangeMax="0.0011298228947255625">
          0.0007707416328651394 -0.00010274150212286577 0 -0.0005492491737556704 0 0
          -0.0008530243517257656 0.0005748128481139526 0 0.0004177501207130002 0 0
          0.0008857823436959781 -0.0004073791939137794 0 -0.0005196976063641885 0 0
          0.0008027050952354406 -0.0005906883245727094 0 -0.0003634489124304012 0 0
          -0.0009031358622301901 0.00033542204561973763 0 0.0005902011852851966 0 0
          0.0005897584264624248 -0.0006034830287236613 0 -0.0001639984406241004 0 0
          -0.0007808934125171337 0.00011062468810005667 0 0.0005835362261513872 0 0
          0.00035540639106626477 -0.0005274324953671244 0 -0.000004745858016150191 0 0
          -0.0005592423473130706 -0.00006735639900759142 0 0.00044385855236274733 0 0
          0.00012249274723314814 -0.00021910897466632365 0 0.00004171263818587169 0 0
          -0.000343121898909231 -0.00011249888952831157 0 0.00022715271052944482 0 0
          <InformationKey name="L2_NORM_RANGE" location="vtkDataArray" length="2">
            <Value index="0">
              0.00025446642232
            </Value>
            <Value index="1">
              0.0011298228947
            </Value>
          </InformationKey>
        </DataArray>
      </CellData>
      <Points>
        <DataArray type="Float32" Name="Points" NumberOfComponents="3" format="ascii" RangeMin="0.4000000059604645" RangeMax="1.0012492197622458">
          0.5 0 0 0.6000000238418579 0.05000000074505806 0
          0.6000000238418579 0 0 0.699999988079071 0.05000000074505806 0
          0.699999988079071 0 0 0.800000011920929 0.05000000074505806 0
          0.800000011920929 0 0 0.8999999761581421 0.05000000074505806 0
          0.8999999761581421 0 0 1 0.05000000074505806 0
          1 0 0 0.5 0.05000000074505806 0
          0.4000000059604645 0 0
          <InformationKey name="L2_NORM_RANGE" location="vtkDataArray" length="2">
            <Value index="0">
              0.40000000596
            </Value>
            <Value index="1">
              1.0012492198
            </Value>
          </InformationKey>
        </DataArray>
      </Points>
      <Cells>
        <DataArray type="Int64" Name="connectivity" format="ascii" RangeMin="0" RangeMax="12">
          0 11 12 1 11 0
          2 1 0 4 3 2
          3 1 2 6 5 4
          5 3 4 8 7 6
          7 5 6 10 9 8
          9 7 8
        </DataArray>
        <DataArray type="Int64" Name="offsets" format="ascii" RangeMin="3" RangeMax="33">
          3 6 9 12 15 18
          21 24 27 30 33
        </DataArray>
        <DataArray type="UInt8" Name="types" format="ascii" RangeMin="5" RangeMax="5">
          5 5 5 5 5 5
          5 5 5 5 5
        </DataArray>
      </Cells>
    </Piece>
  </UnstructuredGrid>
</VTKFile>
