<?xml version="1.0"?>
<VTKFile type="UnstructuredGrid" version="0.1" byte_order="LittleEndian" header_type="UInt32" compressor="vtkZLibDataCompressor">
  <UnstructuredGrid>
    <Piece NumberOfPoints="13" NumberOfCells="11">
      <PointData>
        <DataArray type="Float64" Name="Disp" NumberOfComponents="3" format="ascii" RangeMin="0.013053406625147953" RangeMax="0.03861333050564154">
          0.0013788816130585677 0.018169665688847772 0 -0.0010516475639468562 0.023039494246253855 0
          0.0012689865844813665 0.023047556237935023 0 -0.0009262107996440245 0.027432891245618214 0
          0.001144721511030465 0.027427698508278794 0 -0.0008327402057787482 0.03136084325785689 0
          0.0010484850119894247 0.03135180602886225 0 -0.000789121076249454 0.03500691649575084 0
          0.0010094553578785187 0.03499422955235045 0 -0.0007947768095218759 0.038600072790759755 0
          0.001013636584276604 0.03860002375145543 0 -0.0011574687605347134 0.01814961535131942 0
          0.0013951349721710938 0.012978637175407964 0
          <InformationKey name="L2_NORM_RANGE" location="vtkDataArray" length="2">
            <Value index="0">
              0.013053406625
            </Value>
            <Value index="1">
              0.038613330506
            </Value>
          </InformationKey>
        </DataArray>
        <DataArray type="Float64" Name="Nodal Stress" NumberOfComponents="6" format="ascii" RangeMin="1219.5924890531846" RangeMax="8260.786450539406">
          -3734.9186131044803 -5307.119841873222 0 2221.1854258230223 0 0
          641.8782273077592 -3056.4778410282474 0 -577.897631694675 0 0
          -4292.059437960897 -1666.584939434795 0 2067.2244493565427 0 0
          4010.8187041561196 58.9640409146991 0 -1840.0350644985951 0 0
          -3297.5554222651963 955.4805509798383 0 1392.7262579893766 0 0
          4793.995297575771 2044.4375246263494 0 -2088.533930742958 0 0
          -1475.9902028638621 2498.0068571542247 0 491.9162757525083 0 0
          4095.9574002463446 2871.2408515831885 0 -1466.1135559711606 0 0
          -179.30830094130485 2524.924678820701 0 -163.12559788428777 0 0
          2543.3462730585265 1837.4726881796498 0 -587.5177537714281 0 0
          -431.24639123692924 1113.0953369063209 0 -249.9023016249993 0 0
          -4895.268386248048 -6441.633413180998 0 1668.0225352812222 0 0
          150.5079039598765 -7351.434241104225 0 993.2352756032828 0 0
          <InformationKey name="L2_NORM_RANGE" location="vtkDataArray" length="2">
            <Value index="0">
              1219.5924891
            </Value>
            <Value index="1">
              8260.7864505
            </Value>
          </InformationKey>
        </DataArray>
        <DataArray type="Float64" Name="Nodal Strain" NumberOfComponents="6" format="ascii" RangeMin="0.00012125502627575271" RangeMax="0.0006061561610904835">
          -0.00007723990658341928 -0.0002456900382372131 0 0.00023798415276675243 0 0
          0.00015500836770156304 -0.00024124406819158058 0 -0.00006191760339585806 0 0
          -0.00024705478344596427 0.00003424605568183235 0 0.00022148833385962952 0 0
          0.00028438119169276924 -0.00013903180794024 0 -0.0001971466140534209 0 0
          -0.0002696639784110797 0.00018601844729374545 0 0.00014922067049886177 0 0
          0.000269412609661614 -0.00002518286601153826 0 -0.00022377149257960265 0 0
          -0.00019464240224578393 0.00023114299704186825 0 0.0000527053152591973 0 0
          0.00019002406960391075 0.0000588044393900012 0 -0.00015708359528262438 0 0
          -0.00010298361716797539 0.00018675563066366816 0 -0.000017477742630459405 0 0
          0.00011604356635490728 0.000040414253689313334 0 -0.00006294833076122445 0 0
          -0.00007055671854929214 0.00009490846660891328 0 -0.00002677524660267849 0 0
          -0.00011960369140411068 -0.00028528565857549826 0 0.00017871670020870237 0 0
          0.000273301787465142 -0.0005304777280774403 0 0.00010641806524320886 0 0
          <InformationKey name="L2_NORM_RANGE" location="vtkDataArray" length="2">
            <Value index="0">
              0.00012125502628
            </Value>
            <Value index="1">
              0.00060615616109
            </Value>
          </InformationKey>
        </DataArray>
        <DataArray type="Float64" Name="Sld_traction" NumberOfComponents="3" format="ascii" RangeMin="916.5281753528716" RangeMax="7967.087424580846">
          -3612.662792719797 5453.436852751987 0 -3270.54236551518 -2717.0864086276697 0
          -5439.66163348965 2068.787808864692 0 -5371.447731475443 289.7892526120607 0
          -4798.9665628006815 -684.799920706232 0 -5031.171279076853 2193.9583637860237 0
          -2831.8685249439727 -2299.181295108699 0 -3023.763456435922 2794.4081150485063 0
          -714.2232847912759 -2488.24466780739 0 14.531362992885688 1133.7024801216226 0
          301.1359979350819 -865.644850364921 0 1922.8469601554825 -6159.982950371263 0
          529.8447225852059 7949.449452689341 0
          <InformationKey name="L2_NORM_RANGE" location="vtkDataArray" length="2">
            <Value index="0">
              916.52817535
            </Value>
            <Value index="1">
              7967.0874246
            </Value>
          </InformationKey>
        </DataArray>
        <DataArray type="Float64" Name="Velocity" NumberOfComponents="3" format="ascii" RangeMin="3.4308038404741414" RangeMax="18.064880079889427">
          -0.5533946472662954 -5.3516616058541295 0 0.5690808187127601 -7.6028448958858625 0
          -0.6178347592874887 -7.608027155055016 0 0.6141805107876914 -10.079458861648522 0
          -0.6619017745556184 -10.084286739103213 0 0.6387722813716659 -12.692843952705513 0
          -0.6865751432534459 -12.6965775652722 0 0.6477227943885879 -15.369211083515971 0
          -0.6938980821423533 -15.372373759123072 0 0.6459918493390615 -18.051682179104418 0
          -0.6918899375761001 -18.051625428616305 0 0.5029237040555192 -5.346396389593789 0
          -0.46392406551009313 -3.3992924930421484 0
          <InformationKey name="L2_NORM_RANGE" location="vtkDataArray" length="2">
            <Value index="0">
              3.4308038405
            </Value>
            <Value index="1">
              18.06488008
            </Value>
          </InformationKey>
        </DataArray>
        <DataArray type="Float64" Name="Acceleration" NumberOfComponents="3" format="ascii" RangeMin="189.0397631946885" RangeMax="1006.9721702484742">
          -8.8923507125578 -1006.9329062821053 0 -60.629471647169794 -902.2708820813568 0
          41.58434322888479 -901.4300436267149 0 -105.19721858855428 -603.5094746535106 0
          85.4552699320925 -600.3067954415746 0 -134.2733012784738 -153.3966448595893 0
          115.09528876205468 -149.96368418214843 0 -146.68380623348094 379.2737668084592 0
          125.88538217855921 383.1399166186893 0 -144.81309059987643 924.8197423618694 0
          124.16828559298301 924.8030422243028 0 -10.141170109230188 -1005.5285024574332 0
          -53.01218315335109 -913.4076701552112 0
          <InformationKey name="L2_NORM_RANGE" location="vtkDataArray" length="2">
            <Value index="0">
              189.03976319
            </Value>
            <Value index="1">
              1006.9721702
            </Value>
          </InformationKey>
        </DataArray>
        <DataArray type="Float64" Name="Sigma" NumberOfComponents="6" format="ascii" RangeMin="1321.6361777881116" RangeMax="14458.94798415127">
          -9074.489748407674 -8673.750666550704 0 4527.08843183305 0 0
          4238.493684890008 -4495.490443563128 0 -3950.8329530542123 0 0
          -12173.751111019506 -2063.4162967141892 0 5767.985827598653 0 0
          11835.867176487576 -516.8906156128784 0 -5732.791078874139 0 0
          -10695.968960535669 1920.46089519586 0 5038.938058710245 0 0
          12398.411854943903 2373.1574370290464 0 -5346.689120301886 0 0
          -6021.298324974642 3962.2438253019036 0 2870.061314364451 0 0
          9423.756318370211 3733.4033305505995 0 -3067.4801143794352 0 0
          -2464.5179837361675 4136.978790558994 0 472.027833495786 0 0
          6057.054947736851 2357.750859468095 0 -525.9711607959058 0 0
          -516.8784850616587 1120.7086282116393 0 -472.83293959993864 0 0
          -9806.129031880613 -10451.887081417995 0 1912.8686979999077 0 0
          2353.666135951787 -10268.033558739213 0 -2200.3627986120714 0 0
          <InformationKey name="L2_NORM_RANGE" location="vtkDataArray" length="2">
            <Value index="0">
              1321.6361778
            </Value>
            <Value index="1">
              14458.947984
            </Value>
          </InformationKey>
        </DataArray>
        <DataArray type="Float64" Name="Press" format="ascii" RangeMin="-1510.0390894693016" RangeMax="3322.8591651983033">
          2725.227279471833 2090.633253878318 229.18905319139517 962.8288388057892 -1047.755387213965 -13.317624443518591
          -1510.0390894693016 -454.9506213694795 -1023.4154712191046 -1064.9528184870655 -1097.6986345594567 3322.8591651983033
          3175.733234065569
        </DataArray>
        <DataArray type="Float64" Name="Dev strain" NumberOfComponents="6" format="ascii" RangeMin="0.0001396115787522732" RangeMax="0.0006842012573060048">
          -0.00016826154587580385 -0.0003367116775295976 0 0.00023798415276675243 0 0
          0.00008733479569977595 -0.0003089176401933677 0 -0.00006191760339585806 0 0
          -0.0002743152905792216 0.000006985548548575038 0 0.00022148833385962952 0 0
          0.00026587775123376815 -0.00015753524839924121 0 -0.0001971466140534209 0 0
          -0.00025279385956930236 0.00020288856613552274 0 0.00014922067049886177 0 0
          0.0002833638491931359 -0.000011231626480016421 0 -0.00022377149257960265 0 0
          -0.00015872590853484674 0.0002670594907528054 0 0.0000527053152591973 0 0
          0.00021643741273642345 0.00008521778252251394 0 -0.00015708359528262438 0 0
          -0.00006790017243268826 0.0002218390753989553 0 -0.000017477742630459405 0 0
          0.0001511296889991725 0.00007550037633357856 0 -0.00006294833076122445 0 0
          -0.000032308811774068155 0.00013315637338413722 0 -0.00002677524660267849 0 0
          -0.00022515858326234293 -0.00039084055043373054 0 0.00017871670020870237 0 0
          0.00014326280530299566 -0.0006605167102395865 0 0.00010641806524320886 0 0
          <InformationKey name="L2_NORM_RANGE" location="vtkDataArray" length="2">
            <Value index="0">
              0.00013961157875
            </Value>
            <Value index="1">
              0.00068420125731
            </Value>
          </InformationKey>
        </DataArray>
        <DataArray type="Float64" Name="J2 Stresses" format="ascii" RangeMin="817468.3460265049" RangeMax="103615821.74024908">
          83913789.82713154 22989401.778244715 84546366.5901419 78393687.25248705 65393685.217239134 86823017.51015852
          28037017.811795596 53725100.3513227 11649923.771745654 21192613.293110255 817468.3460265049 103615821.74024908
          56696527.83283943
        </DataArray>
      </PointData>
      <CellData>
        <DataArray type="UInt8" Name="vtkGhostType" format="ascii" RangeMin="0" RangeMax="1">
          1 1 0 0 0 0
          0 0 0 0 0
        </DataArray>
        <DataArray type="Float64" Name="Gauss Stress" NumberOfComponents="6" format="ascii" RangeMin="1487.3172661453273" RangeMax="7288.749518576773">
          -2434.3776552002637 -6723.283875990735 0 1413.1981104069628 0 0
          -2167.80179894994 -5160.802830994457 0 829.7080589262475 0 0
          -3988.232529331876 -3395.869273428825 0 2114.7471021258307 0 0
          -3629.863463428128 -171.8611707826625 0 1691.377602478253 0 0
          2394.420298744528 -1264.3820700048973 0 -1305.2127347765672 0 0
          -2296.655843897732 1894.916685466675 0 854.1034175909372 0 0
          4480.021966014707 1226.1611812534447 0 -2013.5140468219274 0 0
          -683.4883907994952 2948.0735881178707 0 91.53634449360061 0 0
          4607.5208376857245 2696.8324191997503 0 -1848.035973438957 0 0
          -36.80281510886721 1476.4571179910333 0 -175.59208896668622 0 0
          3490.9914570984156 2561.6046898340123 0 -1040.4744805598516 0 0
          <InformationKey name="L2_NORM_RANGE" location="vtkDataArray" length="2">
            <Value index="0">
              1487.3172661
            </Value>
            <Value index="1">
              7288.7495186
            </Value>
          </InformationKey>
        </DataArray>
        <DataArray type="Float64" Name="Gauss Strain" NumberOfComponents="6" format="ascii" RangeMin="0.00012173593350170935" RangeMax="0.0004266052622417982">
          0.00006623316305679299 -0.00039329250345647166 0 0.00015141408325788883 0 0
          0.00002947140118194917 -0.0002912072808228206 0 0.00008889729202781225 0 0
          -0.00016359270661553318 -0.00010012521491163479 0 0.00022658004665633902 0 0
          -0.00025313806271691405 0.00011736218292367155 0 0.0001812190288369557 0 0
          0.00021618652383906988 -0.0001758280156697973 0 -0.0001398442215832037 0 0
          -0.00023172244190221926 0.0002173746148153958 0 0.00009151108045617181 0 0
          0.00027621009824199894 -0.00007241784298242203 0 -0.0002157336478737779 0 0
          -0.00015410894177560216 0.00023498698453697274 0 0.000009807465481457195 0 0
          0.00023279318772041795 0.000028076571454063465 0 -0.00019800385429703113 0 0
          -0.00005535938386459889 0.00010677560896753339 0 -0.00001881343810357352 0 0
          0.00015787065087010066 0.00005829349723462896 0 -0.00011147940863141268 0 0
          <InformationKey name="L2_NORM_RANGE" location="vtkDataArray" length="2">
            <Value index="0">
              0.0001217359335
            </Value>
            <Value index="1">
              0.00042660526224
            </Value>
          </InformationKey>
        </DataArray>
      </CellData>
      <Points>
        <DataArray type="Float32" Name="Points" NumberOfComponents="3" format="ascii" RangeMin="0.4000000059604645" RangeMax="1.0012492197622458">
          0.5 0 0 0.6000000238418579 0.05000000074505806 0
          0.6000000238418579 0 0 0.699999988079071 0.05000000074505806 0
          0.699999988079071 0 0 0.800000011920929 0.05000000074505806 0
          0.800000011920929 0 0 0.8999999761581421 0.05000000074505806 0
          0.8999999761581421 0 0 1 0.05000000074505806 0
          1 0 0 0.5 0.05000000074505806 0
          0.4000000059604645 0 0
          <InformationKey name="L2_NORM_RANGE" location="vtkDataArray" length="2">
            <Value index="0">
              0.40000000596
            </Value>
            <Value index="1">
              1.0012492198
            </Value>
          </InformationKey>
        </DataArray>
      </Points>
      <Cells>
        <DataArray type="Int64" Name="connectivity" format="ascii" RangeMin="0" RangeMax="12">
          0 11 12 1 11 0
          2 1 0 4 3 2
          3 1 2 6 5 4
          5 3 4 8 7 6
          7 5 6 10 9 8
          9 7 8
        </DataArray>
        <DataArray type="Int64" Name="offsets" format="ascii" RangeMin="3" RangeMax="33">
          3 6 9 12 15 18
          21 24 27 30 33
        </DataArray>
        <DataArray type="UInt8" Name="types" format="ascii" RangeMin="5" RangeMax="5">
          5 5 5 5 5 5
          5 5 5 5 5
        </DataArray>
      </Cells>
    </Piece>
  </UnstructuredGrid>
</VTKFile>
