<?xml version="1.0"?>
<VTKFile type="UnstructuredGrid" version="0.1" byte_order="LittleEndian" header_type="UInt32" compressor="vtkZLibDataCompressor">
  <UnstructuredGrid>
    <Piece NumberOfPoints="13" NumberOfCells="11">
      <PointData>
        <DataArray type="Float64" Name="Disp" NumberOfComponents="3" format="ascii" RangeMin="0.0004718230583639851" RangeMax="0.011849247887534503">
          -0.00030142284338880836 -0.001398117391010296 0 0.0004248812733826002 -0.0028562400023332177 0
          -0.0004213725231520586 -0.002860584073927577 0 0.0005240559117856898 -0.004762844899969087 0
          -0.0005188104926490427 -0.004770877590257202 0 0.0005860012125723954 -0.006996896438358914 0
          -0.0005817324762363026 -0.007004684175265662 0 0.0006115592064576105 -0.009402930605886586 0
          -0.0006036920985895667 -0.009411106315392855 0 0.0006074887178927877 -0.011833665237696809 0
          -0.000599716747981196 -0.011833605390242526 0 0.0003039331527427815 -0.0013974244178658445 0
          -0.00017765398802476 -0.00043709959842448145 0
          <InformationKey name="L2_NORM_RANGE" location="vtkDataArray" length="2">
            <Value index="0">
              0.00047182305836
            </Value>
            <Value index="1">
              0.011849247888
            </Value>
          </InformationKey>
        </DataArray>
        <DataArray type="Float64" Name="Nodal Stress" NumberOfComponents="6" format="ascii" RangeMin="763.8592809501723" RangeMax="5834.039214890668">
          -5060.296779255304 -12.670990508140402 0 1788.9689573929572 0 0
          5410.548485001632 720.9748258313396 0 -2059.6538429663706 0 0
          -3971.624759651901 1102.1425912046939 0 1359.061568856586 0 0
          5173.914515203184 1654.0172357115075 0 -2012.7274444842637 0 0
          -2514.3356395577343 1847.505339804707 0 765.1811103624284 0 0
          4190.047745555101 2050.845913618947 0 -1620.7596203312116 0 0
          -1066.6945856669638 2059.0383147542825 0 199.36308177464363 0 0
          2908.8868725476077 2007.19087121392 0 -967.6526438252589 0 0
          -177.9689241856294 1658.5280363777956 0 -145.6171327535495 0 0
          1631.7176351255125 1139.7365546772492 0 -359.64937358945355 0 0
          -336.4222675702458 664.967901119927 0 -167.68646175755273 0 0
          4878.922404274309 -419.1301706378031 0 -1745.3606775095443 0 0
          -5327.4551875755205 -1033.4642351110558 0 1943.461793499367 0 0
          <InformationKey name="L2_NORM_RANGE" location="vtkDataArray" length="2">
            <Value index="0">
              763.85928095
            </Value>
            <Value index="1">
              5834.0392149
            </Value>
          </InformationKey>
        </DataArray>
        <DataArray type="Float64" Name="Nodal Strain" NumberOfComponents="6" format="ascii" RangeMin="0.00007840534456794279" RangeMax="0.000456910590163472">
          -0.00036099723457151667 0.00017981981422282223 0 0.00019167524543495967 0 0
          0.00036071864800614017 -0.00014173567261924826 0 -0.00022067719746068256 0 0
          -0.00032304971823244634 0.00022056821221647457 0 0.00014561373952034847 0 0
          0.00031049327838195937 -0.00006663857299214885 0 -0.0002156493690518854 0 0
          -0.0002455777363900063 0.00022176236854168385 0 0.00008198369039597446 0 0
          0.00022604462776754482 -0.000003155568511328753 0 -0.00017365281646405836 0 0
          -0.00014972955307457895 0.00018517040054198322 0 0.000021360330190140385 0 0
          0.0001360922454957606 0.00003948195963857975 0 -0.00010367706898127772 0 0
          -0.00007194521016960908 0.00012482232131932934 0 -0.000015601835652166024 0 0
          0.00007584638269906346 0.000023134124079606662 0 -0.00003853386145601288 0 0
          -0.00004777901558072923 0.000059512788207503574 0 -0.00001796640661688065 0 0
          0.00036346339211380075 -0.0002041850980553541 0 -0.00018700292973316548 0 0
          -0.00034362307642999947 0.00011644738276262172 0 0.0002082280493035036 0 0
          <InformationKey name="L2_NORM_RANGE" location="vtkDataArray" length="2">
            <Value index="0">
              7.8405344568e-05
            </Value>
            <Value index="1">
              0.00045691059016
            </Value>
          </InformationKey>
        </DataArray>
        <DataArray type="Float64" Name="Sld_traction" NumberOfComponents="3" format="ascii" RangeMin="562.1286975578511" RangeMax="5744.727055352854">
          -5479.15862014577 147.76114304179205 0 -5679.476889773601 863.3835758402249 0
          -4768.88557718829 -947.1541960242586 0 -5063.876297140363 1737.9604103869237 0
          -3375.026976915879 -1748.9574226726268 0 -3687.736918061832 2092.4100890370987 0
          -1722.4771758827108 -2000.7647994475456 0 -1931.5476393545632 1937.3181339525777 0
          -362.7116920355519 -1671.3706050620185 0 43.917496488462206 720.9085107114288 0
          204.38419445036027 -523.656159781362 0 -5348.757746604731 -279.47523459508005 0
          -5329.430358549321 1192.4152321416427 0
          <InformationKey name="L2_NORM_RANGE" location="vtkDataArray" length="2">
            <Value index="0">
              562.12869756
            </Value>
            <Value index="1">
              5744.7270554
            </Value>
          </InformationKey>
        </DataArray>
        <DataArray type="Float64" Name="Velocity" NumberOfComponents="3" format="ascii" RangeMin="5.34251904984289" RangeMax="15.78023139474189">
          -0.5637835081232636 -7.4347896648312926 0 0.4295494335686438 -9.425033335134984 0
          -0.5185291929113736 -9.428323835398164 0 0.377979647233176 -11.219244802109344 0
          -0.46744311620356976 -11.21710117741927 0 0.33957877980548923 -12.822193245505291 0
          -0.427907999572593 -12.818476448482185 0 0.32166609959201503 -14.309370021824522 0
          -0.4118821814271829 -14.304158353199453 0 0.3239903680551829 -15.774830095766214 0
          -0.4136026782112685 -15.774810163554235 0 0.47313857249622066 -7.426583488667097 0
          -0.570713880874202 -5.311948367982476 0
          <InformationKey name="L2_NORM_RANGE" location="vtkDataArray" length="2">
            <Value index="0">
              5.3425190498
            </Value>
            <Value index="1">
              15.780231395
            </Value>
          </InformationKey>
        </DataArray>
        <DataArray type="Float64" Name="Acceleration" NumberOfComponents="3" format="ascii" RangeMin="82.80760566292264" RangeMax="533.8119661956712">
          1.9406558534560645 -335.06977826604634 0 -28.80233980201865 -273.067733626649 0
          21.96138880086187 -272.69476531245164 0 -46.36690132299259 -134.29241758331773 0
          39.248461565032585 -133.01504984702478 0 -57.78041338792457 63.97699329516399 0
          50.87985567957435 65.33253279685232 0 -62.637425317484826 294.5893544750579 0
          55.09851944301977 296.10603055536194 0 -61.90164099155197 530.2107148070863 0
          54.41923728370887 530.2037741441745 0 -8.760935135179125 -334.5807094939373 0
          -15.877398821860652 -318.026129186459 0
          <InformationKey name="L2_NORM_RANGE" location="vtkDataArray" length="2">
            <Value index="0">
              82.807605663
            </Value>
            <Value index="1">
              533.8119662
            </Value>
          </InformationKey>
        </DataArray>
        <DataArray type="Float64" Name="Sigma" NumberOfComponents="6" format="ascii" RangeMin="801.7599745181761" RangeMax="16137.043982950623">
          -14728.584628232664 744.1952855159459 0 5638.890939505182 0 0
          15038.057001877436 275.5778364245566 0 -5846.801430871369 0 0
          -12172.911808934292 2360.6219139549016 0 4888.418102888765 0 0
          13732.372902534402 1745.0240090057957 0 -5193.903990442749 0 0
          -8352.762815774538 3358.1192613838007 0 3420.750112069492 0 0
          10504.806338151038 2463.7799107803926 0 -3760.8403901998086 0 0
          -4254.465227067554 3345.5509812410223 0 1678.743310328543 0 0
          6656.5535729769 2597.842476561715 0 -1889.1559571290056 0 0
          -1650.327527395409 2746.962998221404 0 199.13970191260015 0 0
          3858.4753281316175 1436.8028501383358 0 -271.82161741154783 0 0
          -369.07403063575396 645.8972829328261 0 -299.03196576563164 0 0
          14222.225658231027 -1503.061638842199 0 -5495.751624713379 0 0
          -14920.505662424735 -743.6764777874317 0 5430.969859965121 0 0
          <InformationKey name="L2_NORM_RANGE" location="vtkDataArray" length="2">
            <Value index="0">
              801.75997452
            </Value>
            <Value index="1">
              16137.043983
            </Value>
          </InformationKey>
        </DataArray>
        <DataArray type="Float64" Name="Press" format="ascii" RangeMin="-1493.5069583386487" RangeMax="1137.4201390264702">
          -937.0793787159471 650.2052426677072 -1357.8226723798016 97.78662948222701 -1493.5069583386487 -333.04308150320645
          -1313.0548989609704 -409.1398979358916 -736.9708337014912 -698.4411902033506 -690.1383929204208 1137.4201390264702
          -374.15324923841627
        </DataArray>
        <DataArray type="Float64" Name="Dev strain" NumberOfComponents="6" format="ascii" RangeMin="0.00008945066293951152" RangeMax="0.0004510696399901619">
          -0.0003497496112663811 0.0001910674375279578 0 0.00019167524543495967 0 0
          0.0003590917607373204 -0.00014336255988806808 0 -0.00022067719746068256 0 0
          -0.00029602132946151313 0.0002475966009874077 0 0.00014561373952034847 0 0
          0.00032477535374915884 -0.00005235649762494934 0 -0.0002156493690518854 0 0
          -0.00020955859286198654 0.00025778151206970354 0 0.00008198369039597446 0 0
          0.00024962419762490233 0.000020424001346028814 0 -0.00017365281646405836 0 0
          -0.00011522606157254276 0.0002196738920440194 0 0.000021360330190140385 0 0
          0.00015867074289054286 0.00006206045703336199 0 -0.00010367706898127772 0 0
          -0.00004623038734113044 0.00015053714414780801 0 -0.000015601835652166024 0 0
          0.00009980613590920941 0.00004709387728975264 0 -0.00003853386145601288 0 0
          -0.000022638936922285634 0.00008465286686594719 0 -0.00001796640661688065 0 0
          0.0003445750483566596 -0.00022307344181249524 0 -0.00018700292973316548 0 0
          -0.0003512842211177795 0.0001087862380748417 0 0.0002082280493035036 0 0
          <InformationKey name="L2_NORM_RANGE" location="vtkDataArray" length="2">
            <Value index="0">
              8.945066294e-05
            </Value>
            <Value index="1">
              0.00045106963999
            </Value>
          </InformationKey>
        </DataArray>
        <DataArray type="Float64" Name="J2 Stresses" format="ascii" RangeMin="299054.4992322788" RangeMax="121655822.51083158">
          116691788.64390622 121655822.51083158 82850316.75153066 102555746.82861818 43448188.64743721 61746563.9355512
          15351137.643698081 26421473.059058912 5144607.485857746 8494588.891906075 299054.4992322788 109816269.96203694
          118961130.36799385
        </DataArray>
      </PointData>
      <CellData>
        <DataArray type="UInt8" Name="vtkGhostType" format="ascii" RangeMin="0" RangeMax="1">
          1 1 0 0 0 0
          0 0 0 0 0
        </DataArray>
        <DataArray type="Float64" Name="Gauss Stress" NumberOfComponents="6" format="ascii" RangeMin="914.844592217546" RangeMax="5846.938317059131">
          -5200.22570711809 -558.785106680526 0 1858.0363915856424 0 0
          5127.414678284678 122.41916202551143 0 -1901.2207053598563 0 0
          -4502.712081239189 578.5660758224543 0 1560.16920384086 0 0
          -3182.281574470218 1570.0740610360915 0 1038.4214081718362 0 0
          5329.2290984158935 1257.130986385129 0 -2050.7624394751183 0 0
          -1747.3422144979602 2009.2817382007966 0 446.2176773994087 0 0
          4718.5510048504275 1946.053256936787 0 -1844.6647561910227 0 0
          -569.1349373614728 2077.0636084752628 0 -3.757648295954141 0 0
          3617.218935220105 2117.31183006102 0 -1323.751012333424 0 0
          -95.49221557493638 901.3709048224342 0 -123.90462708819314 0 0
          2340.0498172907915 1645.6854676935736 0 -653.945957542651 0 0
          <InformationKey name="L2_NORM_RANGE" location="vtkDataArray" length="2">
            <Value index="0">
              914.84459222
            </Value>
            <Value index="1">
              5846.9383171
            </Value>
          </InformationKey>
        </DataArray>
        <DataArray type="Float64" Name="Gauss Strain" NumberOfComponents="6" format="ascii" RangeMin="0.0000793364043563325" RangeMax="0.0004503924730389899">
          -0.000351488082412702 0.00014580912477703706 0 0.0001990753276698902 0 0
          0.00036187179266228026 -0.00017437772693691615 0 -0.00020370221843141314 0 0
          -0.0003422853656536011 0.0002021372940315749 0 0.00016716098612580647 0 0
          -0.0002833799003563045 0.00022580106059080004 0 0.00011125943658983961 0 0
          0.00033576168608738077 -0.0001005345402016299 0 -0.0002197245470866198 0 0
          -0.0001965702202570256 0.00020592520324641265 0 0.000047809036864222384 0 0
          0.00026753745545585964 -0.000029515874677744734 0 -0.0001976426524490381 0 0
          -0.00011483333868565029 0.00016868793408257137 0 -4.026051745665199e-7 0 0
          0.00018275450144211397 0.000022050168746497726 0 -0.00014183046560715254 0 0
          -0.000039012690570439515 0.00006779407232927875 0 -0.000013275495759449264 0 0
          0.00010837193453171468 0.000033975754217726995 0 -0.00007006563830814118 0 0
          <InformationKey name="L2_NORM_RANGE" location="vtkDataArray" length="2">
            <Value index="0">
              7.9336404356e-05
            </Value>
            <Value index="1">
              0.00045039247304
            </Value>
          </InformationKey>
        </DataArray>
      </CellData>
      <Points>
        <DataArray type="Float32" Name="Points" NumberOfComponents="3" format="ascii" RangeMin="0.4000000059604645" RangeMax="1.0012492197622458">
          0.5 0 0 0.6000000238418579 0.05000000074505806 0
          0.6000000238418579 0 0 0.699999988079071 0.05000000074505806 0
          0.699999988079071 0 0 0.800000011920929 0.05000000074505806 0
          0.800000011920929 0 0 0.8999999761581421 0.05000000074505806 0
          0.8999999761581421 0 0 1 0.05000000074505806 0
          1 0 0 0.5 0.05000000074505806 0
          0.4000000059604645 0 0
          <InformationKey name="L2_NORM_RANGE" location="vtkDataArray" length="2">
            <Value index="0">
              0.40000000596
            </Value>
            <Value index="1">
              1.0012492198
            </Value>
          </InformationKey>
        </DataArray>
      </Points>
      <Cells>
        <DataArray type="Int64" Name="connectivity" format="ascii" RangeMin="0" RangeMax="12">
          0 11 12 1 11 0
          2 1 0 4 3 2
          3 1 2 6 5 4
          5 3 4 8 7 6
          7 5 6 10 9 8
          9 7 8
        </DataArray>
        <DataArray type="Int64" Name="offsets" format="ascii" RangeMin="3" RangeMax="33">
          3 6 9 12 15 18
          21 24 27 30 33
        </DataArray>
        <DataArray type="UInt8" Name="types" format="ascii" RangeMin="5" RangeMax="5">
          5 5 5 5 5 5
          5 5 5 5 5
        </DataArray>
      </Cells>
    </Piece>
  </UnstructuredGrid>
</VTKFile>
