<?xml version="1.0"?>
<VTKFile type="UnstructuredGrid" version="0.1" byte_order="LittleEndian" header_type="UInt32" compressor="vtkZLibDataCompressor">
  <UnstructuredGrid>
    <Piece NumberOfPoints="35" NumberOfCells="51">
      <PointData>
        <DataArray type="Float64" Name="nsi_SBC" NumberOfComponents="3" format="ascii" RangeMin="0" RangeMax="0">
          0 0 0 0 0 0
          0 0 0 0 0 0
          0 0 0 0 0 0
          0 0 0 0 0 0
          0 0 0 0 0 0
          0 0 0 0 0 0
          0 0 0 0 0 0
          0 0 0 0 0 0
          0 0 0 0 0 0
          0 0 0 0 0 0
          0 0 0 0 0 0
          0 0 0 0 0 0
          0 0 0 0 0 0
          0 0 0 0 0 0
          0 0 0 0 0 0
          0 0 0 0 0 0
          0 0 0 0 0 0
          0 0 0
          <InformationKey name="L2_NORM_RANGE" location="vtkDataArray" length="2">
            <Value index="0">
              0
            </Value>
            <Value index="1">
              0
            </Value>
          </InformationKey>
        </DataArray>
        <DataArray type="Float64" Name="nsi_SFIXNO" NumberOfComponents="3" format="ascii" RangeMin="0" RangeMax="1.7320508075688772">
          0 0 0 0 0 0
          0 0 0 -1 -1 -1
          -1 -1 -1 0 0 0
          0 0 0 -1 -1 -1
          -1 -1 -1 -1 -1 -1
          -1 -1 -1 -1 -1 -1
          0 0 0 0 0 0
          -1 -1 -1 -1 -1 -1
          -1 -1 -1 -1 -1 -1
          -1 -1 -1 -1 -1 -1
          0 0 0 0 0 0
          -1 -1 -1 0 0 0
          0 0 0 0 0 0
          -1 -1 -1 -1 -1 -1
          0 0 0 -1 -1 -1
          0 0 0 -1 -1 -1
          0 0 0 0 0 0
          0 0 0
          <InformationKey name="L2_NORM_RANGE" location="vtkDataArray" length="2">
            <Value index="0">
              0
            </Value>
            <Value index="1">
              1.7320508076
            </Value>
          </InformationKey>
        </DataArray>
        <DataArray type="Float64" Name="nsi_UBC" NumberOfComponents="3" format="ascii" RangeMin="0" RangeMax="0">
          0 0 0 0 0 0
          0 0 0 0 0 0
          0 0 0 0 0 0
          0 0 0 0 0 0
          0 0 0 0 0 0
          0 0 0 0 0 0
          0 0 0 0 0 0
          0 0 0 0 0 0
          0 0 0 0 0 0
          0 0 0 0 0 0
          0 0 0 0 0 0
          0 0 0 0 0 0
          0 0 0 0 0 0
          0 0 0 0 0 0
          0 0 0 0 0 0
          0 0 0 0 0 0
          0 0 0 0 0 0
          0 0 0
          <InformationKey name="L2_NORM_RANGE" location="vtkDataArray" length="2">
            <Value index="0">
              0
            </Value>
            <Value index="1">
              0
            </Value>
          </InformationKey>
        </DataArray>
        <DataArray type="Float64" Name="nsi_UFIXNO" NumberOfComponents="3" format="ascii" RangeMin="1" RangeMax="1.4142135623730951">
          1 1 0 1 0 0
          0 1 0 -1 -1 0
          -1 -1 0 1 0 0
          0 1 0 -1 -1 0
          -1 -1 0 -1 -1 0
          -1 -1 0 -1 -1 0
          1 0 0 0 1 0
          -1 -1 0 -1 -1 0
          -1 -1 0 -1 -1 0
          -1 -1 0 -1 -1 0
          1 1 0 1 1 0
          -1 -1 0 0 1 0
          1 0 0 0 1 0
          -1 -1 0 -1 -1 0
          1 0 0 -1 -1 0
          0 1 0 -1 -1 0
          1 0 0 0 1 0
          1 1 0
          <InformationKey name="L2_NORM_RANGE" location="vtkDataArray" length="2">
            <Value index="0">
              1
            </Value>
            <Value index="1">
              1.4142135624
            </Value>
          </InformationKey>
        </DataArray>
        <DataArray type="Float64" Name="lev_BC" format="ascii" RangeMin="-1" RangeMax="1">
          -1 0 -1 -1 0 1
          -1 -1 -1 0 -1 -1
          1 -1 -1 -1 1 -1
          0 -1 1 -1 -1 1
          -1 1 -1 0 -1 -1
          1 -1 -1 0 -1
        </DataArray>
        <DataArray type="Float64" Name="lev_FIXNO" format="ascii" RangeMin="0" RangeMax="0">
          0 0 0 0 0 0
          0 0 0 0 0 0
          0 0 0 0 0 0
          0 0 0 0 0 0
          0 0 0 0 0 0
          0 0 0 0 0
        </DataArray>
        <DataArray type="Float64" Name="Velocity" NumberOfComponents="3" format="ascii" RangeMin="0" RangeMax="0.9407101942759883">
          0 0 0 0 -0.8110263138780245 0
          -0.8241120474288941 0 0 -0.7958631400811829 -0.05374778212957658 0
          0.17837715117461533 -0.707269197996234 0 0 -0.71795867134195 0
          -0.7509661894754143 0 0 -0.5873884212393414 0.06647270648857287 0
          -0.7216999016352433 0.15546581538948345 0 0.39387032498867736 -0.45008922120385825 0
          -0.494049942929647 0.40594724410958927 0 -0.15792571267523875 0.21060009423269985 0
          0 -0.5179654935703035 0 -0.4973260970750036 0 0
          -0.4012271898681961 0.3553363343628168 0 -0.2813389545421475 0.6578591392584813 0
          0.3846730009030358 -0.23470090362538926 0 -0.2712607158084096 0.6101595123163885 0
          0.6896450808320513 -0.07652205684069473 0 -0.1576480362690903 0.8069299506903558 0
          0 0 0 0 0 0
          0.07977790252156332 0.671989782274774 0 0.34833728902575356 0 0
          0 0.5278710457975047 0 0.6552717167502047 0 0
          0.0003411574752913548 0.940710132413989 0 0.9180577130687564 0.02680841799633993 0
          0 0.8916813698668007 0 0.18770632655456868 0.8241001074891818 0
          0.7563247497620569 0 0 0.40067198217089867 0.606030892159342 0
          0 0.9079955513705571 0 0.8418112691322068 0 0
          0 0 0
          <InformationKey name="L2_NORM_RANGE" location="vtkDataArray" length="2">
            <Value index="0">
              0
            </Value>
            <Value index="1">
              0.94071019428
            </Value>
          </InformationKey>
        </DataArray>
        <DataArray type="Float64" Name="Pressure" format="ascii" RangeMin="-6.892783929280722" RangeMax="465.18002000846855">
          0 -4.589540987076592 11.863133215152757 18.21757585646501 -6.892783929280722 71.62714949431088
          23.623299000772985 28.672021887434244 29.849953085761435 36.72939711445581 40.18903670945022 41.826370283214004
          235.44049125401787 34.88059537340068 41.18424605800225 50.60168371238403 236.64282088198553 47.972311148774544
          74.9687818214362 56.44802881748345 465.18002000846855 39.56542535236218 62.835439380946 439.4371572828278
          46.94022843166432 350.97724669381404 69.81470249629476 121.74314565382589 59.10056246174831 79.69272659805202
          262.70243810855084 96.82160707548682 84.50088921630885 150.25896017964595 109.77257460326237
        </DataArray>
        <DataArray type="Float64" Name="Sigma" NumberOfComponents="6" format="ascii" RangeMin="0.3684636580001291" RangeMax="36.32386311173551">
          -24.800304082921322 21.99049934904385 0 3.8415426123685465 0 0
          -9.195044242353871 8.09212970231424 0 2.174803828280495 0 0
          -20.587890051035203 13.895313551483481 0 -2.701760151111783 0 0
          -9.051304331196626 8.777761523725687 0 0.20401903616892209 0 0
          -0.5193259468174485 0.6649597328290835 0 0.09694619728126636 0 0
          0.19177385815785983 0.15739379082896138 0 0.2724251258650242 0 0
          1.1747638450206461 -7.969482664129398 0 -2.3780979676832663 0 0
          -6.720589786551242 6.681903888387327 0 -1.1391885401775381 0 0
          6.043418942842715 -7.267749850164955 0 2.6253000268294673 0 0
          -0.013796609803213305 0.40268155987370285 0 0.10101146561491459 0 0
          4.385865647571467 -6.48255561305921 0 0.9816211054857183 0 0
          -4.527658550255424 4.425145178585483 0 -0.659841415154818 0 0
          1.1030816206894425 -0.5623159000781142 0 0.32793102955943526 0 0
          14.143080159152385 -14.858263878059985 0 -0.5685991255044802 0 0
          14.703100537349382 -15.207849601720817 0 0.37101209150757597 0 0
          -3.8529387589622237 2.4154767948913904 0 -0.13937261699513778 0 0
          1.1423369519738127 -0.405366848513395 0 0.31022300941594416 0 0
          10.997541918476523 -11.36723619971208 0 0.14566348961684167 0 0
          0.455096198410733 0.8851805013503498 0 0.20919376477172968 0 0
          4.983441157998815 -6.238375642464497 0 0.030729954030810233 0 0
          1.7257058376752425 -1.4069196660116812 0 -0.004743386553567911 0 0
          18.166145075011848 -17.327584363769134 0 -0.48101831487058844 0 0
          -4.784231045329634 6.093692362833062 0 -0.6794002844846871 0 0
          1.3239056303496661 -0.985663984050267 0 0.0851394898247553 0 0
          16.26314805913215 -14.929320397572104 0 0.9204587641153178 0 0
          0.9325958921666606 0.46600912825116336 0 0.2560580940372569 0 0
          -1.5709368238774537 -0.3049770067061842 0 -2.092328858678863 0 0
          0.17273186488853642 1.32876496396996 0 0.178508736657672 0 0
          8.331554912302828 -8.847980875621506 0 2.0318829311502133 0 0
          -9.538681829356698 8.957489841080715 0 -1.2151347016780967 0 0
          0.23522628316468186 1.2610780094091338 0 0.2166137342181973 0 0
          -7.158281369875748 9.676961752741722 0 -1.3046802742107548 0 0
          -13.82108232133426 20.81048929079295 0 2.1414961205952165 0 0
          -0.807869188922809 2.418348198282362 0 -0.0071720079773967375 0 0
          -20.890300184906657 28.826718300895106 0 -7.213785521169018 0 0
          <InformationKey name="L2_NORM_RANGE" location="vtkDataArray" length="2">
            <Value index="0">
              0.368463658
            </Value>
            <Value index="1">
              36.323863112
            </Value>
          </InformationKey>
        </DataArray>
        <DataArray type="Float64" Name="LEVEL" format="ascii" RangeMin="-0.937102797995516" RangeMax="0.630237504474318">
          -0.22504107497208037 -0.09207182350979132 -0.4164488534369221 -0.340351790327608 -0.048216322692661975 0.11403425281861876
          -0.5717907732587957 -0.3652991383299916 -0.5508958192131863 -0.005374916323538207 -0.46617720315210553 -0.20017306811712715
          0.3239038356220733 -0.7712081934882402 -0.6520864945603971 -0.24356071498935533 0.21729120573140068 -0.41757936169291177
          0.05969813406380285 -0.2554601139507884 0.630237504474318 -0.937102797995516 -0.0797758120026823 0.4609553054257716
          -0.6199815393127843 0.3264780289486822 -0.18107286184136567 0.09915924443356369 -0.3167145529208886 -0.046437615829925644
          0.20153116118251235 0.00254188533199505 -0.19704608202277463 0.08282966309863268 -0.08791475239133686
        </DataArray>
      </PointData>
      <CellData>
        <DataArray type="UInt8" Name="vtkGhostType" format="ascii" RangeMin="0" RangeMax="0">
          0 0 0 0 0 0
          0 0 0 0 0 0
          0 0 0 0 0 0
          0 0 0 0 0 0
          0 0 0 0 0 0
          0 0 0 0 0 0
          0 0 0 0 0 0
          0 0 0 0 0 0
          0 0 0
        </DataArray>
      </CellData>
      <Points>
        <DataArray type="Float32" Name="Points" NumberOfComponents="3" format="ascii" RangeMin="0" RangeMax="1.4142135623730951">
          0 1 0 0 0.7799999713897705 0
          0.25 1 0 0.3173084855079651 0.8117569088935852 0
          0.1888372004032135 0.6106976866722107 0 0 0.5199999809265137 0
          0.5 1 0 0.43114039301872253 0.6648067235946655 0
          0.5338732004165649 0.815037190914154 0 0.37767431139945984 0.4413954019546509 0
          0.6174687743186951 0.6476302742958069 0 0.5365368127822876 0.5048667788505554 0
          0 0.25999999046325684 0 0.75 1 0
          0.782043993473053 0.8033316731452942 0 0.6966695785522461 0.4923292100429535 0
          0.32800689339637756 0.19591359794139862 0 0.7909218072891235 0.6301581263542175 0
          0.5597307085990906 0.27817249298095703 0 0.8505734801292419 0.47420310974121094 0
          0 0 0 1 1 0
          0.7649514079093933 0.327553391456604 0 0.23776529729366302 0 0
          1 0.7271645069122314 0 0.4648641049861908 0 0
          0.9007874131202698 0.35183119773864746 0 0.7203437089920044 0.13417460024356842 0
          1 0.4593985974788666 0 0.855294406414032 0.23049800097942352 0
          0.6747748255729675 0 0 0.8903893828392029 0.11795260012149811 0
          1 0.22097820043563843 0 0.8700000047683716 0 0
          1 0 0
          <InformationKey name="L2_NORM_RANGE" location="vtkDataArray" length="2">
            <Value index="0">
              0
            </Value>
            <Value index="1">
              1.4142135624
            </Value>
          </InformationKey>
        </DataArray>
      </Points>
      <Cells>
        <DataArray type="Int64" Name="connectivity" format="ascii" RangeMin="0" RangeMax="34">
          30 33 27 30 27 25
          23 25 16 27 18 25
          20 23 12 18 9 16
          18 16 25 23 16 12
          16 9 12 9 4 12
          4 1 5 4 5 12
          33 34 31 31 34 32
          33 31 27 31 32 29
          29 32 26 31 29 27
          26 32 28 29 26 22
          26 28 19 22 26 19
          29 22 27 22 19 15
          15 19 17 22 15 18
          28 24 17 28 17 19
          15 17 10 10 17 14
          15 10 11 14 17 24
          10 14 8 11 10 7
          15 11 18 8 14 13
          10 8 7 7 8 3
          11 7 9 11 9 18
          18 27 22 3 8 6
          6 8 13 7 3 4
          14 24 21 14 21 13
          0 1 2 9 7 4
          3 6 2 3 2 1
          1 4 3
        </DataArray>
        <DataArray type="Int64" Name="offsets" format="ascii" RangeMin="3" RangeMax="153">
          3 6 9 12 15 18
          21 24 27 30 33 36
          39 42 45 48 51 54
          57 60 63 66 69 72
          75 78 81 84 87 90
          93 96 99 102 105 108
          111 114 117 120 123 126
          129 132 135 138 141 144
          147 150 153
        </DataArray>
        <DataArray type="UInt8" Name="types" format="ascii" RangeMin="5" RangeMax="5">
          5 5 5 5 5 5
          5 5 5 5 5 5
          5 5 5 5 5 5
          5 5 5 5 5 5
          5 5 5 5 5 5
          5 5 5 5 5 5
          5 5 5 5 5 5
          5 5 5 5 5 5
          5 5 5
        </DataArray>
      </Cells>
    </Piece>
  </UnstructuredGrid>
</VTKFile>
