<?xml version="1.0"?>
<VTKFile type="UnstructuredGrid" version="0.1" byte_order="LittleEndian" header_type="UInt32" compressor="vtkZLibDataCompressor">
  <UnstructuredGrid>
    <Piece NumberOfPoints="35" NumberOfCells="51">
      <PointData>
        <DataArray type="Float64" Name="nsi_SBC" NumberOfComponents="3" format="ascii" RangeMin="0" RangeMax="0">
          0 0 0 0 0 0
          0 0 0 0 0 0
          0 0 0 0 0 0
          0 0 0 0 0 0
          0 0 0 0 0 0
          0 0 0 0 0 0
          0 0 0 0 0 0
          0 0 0 0 0 0
          0 0 0 0 0 0
          0 0 0 0 0 0
          0 0 0 0 0 0
          0 0 0 0 0 0
          0 0 0 0 0 0
          0 0 0 0 0 0
          0 0 0 0 0 0
          0 0 0 0 0 0
          0 0 0 0 0 0
          0 0 0
          <InformationKey name="L2_NORM_RANGE" location="vtkDataArray" length="2">
            <Value index="0">
              0
            </Value>
            <Value index="1">
              0
            </Value>
          </InformationKey>
        </DataArray>
        <DataArray type="Float64" Name="nsi_SFIXNO" NumberOfComponents="3" format="ascii" RangeMin="0" RangeMax="1.7320508075688772">
          0 0 0 0 0 0
          0 0 0 -1 -1 -1
          -1 -1 -1 0 0 0
          0 0 0 -1 -1 -1
          -1 -1 -1 -1 -1 -1
          -1 -1 -1 -1 -1 -1
          0 0 0 0 0 0
          -1 -1 -1 -1 -1 -1
          -1 -1 -1 -1 -1 -1
          -1 -1 -1 -1 -1 -1
          0 0 0 0 0 0
          -1 -1 -1 0 0 0
          0 0 0 0 0 0
          -1 -1 -1 -1 -1 -1
          0 0 0 -1 -1 -1
          0 0 0 -1 -1 -1
          0 0 0 0 0 0
          0 0 0
          <InformationKey name="L2_NORM_RANGE" location="vtkDataArray" length="2">
            <Value index="0">
              0
            </Value>
            <Value index="1">
              1.7320508076
            </Value>
          </InformationKey>
        </DataArray>
        <DataArray type="Float64" Name="nsi_UBC" NumberOfComponents="3" format="ascii" RangeMin="0" RangeMax="0">
          0 0 0 0 0 0
          0 0 0 0 0 0
          0 0 0 0 0 0
          0 0 0 0 0 0
          0 0 0 0 0 0
          0 0 0 0 0 0
          0 0 0 0 0 0
          0 0 0 0 0 0
          0 0 0 0 0 0
          0 0 0 0 0 0
          0 0 0 0 0 0
          0 0 0 0 0 0
          0 0 0 0 0 0
          0 0 0 0 0 0
          0 0 0 0 0 0
          0 0 0 0 0 0
          0 0 0 0 0 0
          0 0 0
          <InformationKey name="L2_NORM_RANGE" location="vtkDataArray" length="2">
            <Value index="0">
              0
            </Value>
            <Value index="1">
              0
            </Value>
          </InformationKey>
        </DataArray>
        <DataArray type="Float64" Name="nsi_UFIXNO" NumberOfComponents="3" format="ascii" RangeMin="1" RangeMax="1.4142135623730951">
          1 1 0 1 0 0
          0 1 0 -1 -1 0
          -1 -1 0 1 0 0
          0 1 0 -1 -1 0
          -1 -1 0 -1 -1 0
          -1 -1 0 -1 -1 0
          1 0 0 0 1 0
          -1 -1 0 -1 -1 0
          -1 -1 0 -1 -1 0
          -1 -1 0 -1 -1 0
          1 1 0 1 1 0
          -1 -1 0 0 1 0
          1 0 0 0 1 0
          -1 -1 0 -1 -1 0
          1 0 0 -1 -1 0
          0 1 0 -1 -1 0
          1 0 0 0 1 0
          1 1 0
          <InformationKey name="L2_NORM_RANGE" location="vtkDataArray" length="2">
            <Value index="0">
              1
            </Value>
            <Value index="1">
              1.4142135624
            </Value>
          </InformationKey>
        </DataArray>
        <DataArray type="Float64" Name="lev_BC" format="ascii" RangeMin="-1" RangeMax="1">
          -1 0 -1 -1 0 1
          -1 -1 -1 0 -1 -1
          1 -1 -1 -1 1 -1
          0 -1 1 -1 -1 1
          -1 1 -1 0 -1 -1
          1 -1 -1 0 -1
        </DataArray>
        <DataArray type="Float64" Name="lev_FIXNO" format="ascii" RangeMin="0" RangeMax="0">
          0 0 0 0 0 0
          0 0 0 0 0 0
          0 0 0 0 0 0
          0 0 0 0 0 0
          0 0 0 0 0 0
          0 0 0 0 0
        </DataArray>
        <DataArray type="Float64" Name="Velocity" NumberOfComponents="3" format="ascii" RangeMin="0" RangeMax="1.53662269482626">
          0 0 0 0 -0.9126396722676628 0
          -0.9289395543083159 0 0 -0.9678985395458017 -0.15094339737713486 0
          0.09015802144931369 -1.0136192096507792 0 0 -0.9835050912085692 0
          -0.9718411652472516 0 0 -0.7737239647209342 0.054604046652077416 0
          -0.9236650947306073 0.17325316215373177 0 0.4354304178502716 -0.6536815225259384 0
          -0.6608991193966256 0.4616630865941962 0 -0.233079863629711 0.2012856423281152 0
          0 -0.7753650895636715 0 -0.6545214067460106 0 0
          -0.538455913744758 0.45928702159685764 0 -0.39041344328130867 0.7357898656112967 0
          0.5934880499981612 -0.36240935261812646 0 -0.40357551736661645 0.8035533702351595 0
          0.8785022361710006 -0.2435801099179189 0 -0.2943619330363752 1.138783412738361 0
          0 0 0 0 0 0
          0.16819160008849993 0.6787702733506213 0 0.5039939356218124 0 0
          0 0.7058977969536845 0 0.9281080994728085 0 0
          -0.11614034632898837 1.353901086678122 0 1.2118147343262557 -0.09056404670988655 0
          0 1.2334585348151736 0 0.36578644965026885 0.8701506795946834 0
          1.0983021126377674 0 0 0.7651605874516102 0.6222599974349774 0
          0 1.53662269482626 0 1.1686226081705096 0 0
          0 0 0
          <InformationKey name="L2_NORM_RANGE" location="vtkDataArray" length="2">
            <Value index="0">
              0
            </Value>
            <Value index="1">
              1.5366226948
            </Value>
          </InformationKey>
        </DataArray>
        <DataArray type="Float64" Name="Pressure" format="ascii" RangeMin="-3.843555289241965" RangeMax="494.3315777575931">
          0 -3.843555289241965 10.812936291878724 15.729727893189432 -0.5152839368504993 57.22929197375329
          26.06191555564925 30.17674340516883 33.30443711813717 39.555533109744545 45.659597156820666 47.83334057633854
          249.5506202738821 40.19001818257526 47.90329820138248 57.27394613860772 266.9801849533807 56.3413664266896
          112.60796672269043 68.56664563611417 494.3315777575931 46.34627869001818 76.3210879535229 476.50233478652603
          55.64918903050483 406.95962648213265 92.22065180845581 194.34625956065253 73.41770883660496 107.4637525162733
          338.18161954746034 154.80149946437774 126.11511206745408 254.2437442823129 191.6939441225358
        </DataArray>
        <DataArray type="Float64" Name="Sigma" NumberOfComponents="6" format="ascii" RangeMin="0.9532350993768159" RangeMax="39.82453489896959">
          -29.29138346510926 26.803388727334628 0 3.0962537606858804 0 0
          -14.062221482764361 14.326836779826856 0 2.699991858140237 0 0
          -24.005954399787107 19.226233579262114 0 -2.4946525200721004 0 0
          -12.977922004664688 12.827292604847434 0 1.002652858409045 0 0
          -1.1338301399712636 1.7820982251675765 0 0.27866421317501855 0 0
          -0.6110630711315077 1.376051785221005 0 0.5200517871124943 0 0
          0.34025705448961985 -6.919171607515558 0 -2.428204703448051 0 0
          -8.74595626131008 9.917500660357486 0 0.15604696049073558 0 0
          6.463743119509008 -7.206764437056107 0 4.112695433157491 0 0
          -0.031203690864861015 0.9315175973405969 0 0.19989609852405787 0 0
          4.520319116473865 -6.135972931403126 0 2.361076039684713 0 0
          -4.758743466284971 5.789978002401631 0 -0.7049507086194622 0 0
          1.4549800924918734 -0.5772250711860243 0 0.46063725401760514 0 0
          17.439510098679044 -19.23793806936937 0 -1.079989799962996 0 0
          18.894513799708157 -19.49966697466995 0 1.773725604078281 0 0
          -4.499549739874651 5.7472543417830515 0 -0.06541419005187867 0 0
          2.148787237239696 -0.7335666877068355 0 0.40290096472000536 0 0
          14.1294564224657 -14.930891861886376 0 2.4894600534951965 0 0
          0.6122753343634091 1.4806616570886502 0 -0.07928526721100052 0 0
          6.054176682653751 -8.16744061964335 0 3.9346203760865746 0 0
          4.199598697685625 -2.1857078211220844 0 0.08219275593452613 0 0
          24.573477141423936 -22.708674554966905 0 -1.0030575520788165 0 0
          -2.705222354821646 6.178975189161589 0 -0.9252673866119432 0 0
          3.5064242393061975 -1.7825874365109886 0 0.3169102869855313 0 0
          21.892359641528365 -21.163674681066183 0 1.3130520825964482 0 0
          2.5521218775452574 -0.42817880919800155 0 0.31743216879653197 0 0
          -3.326530167609018 -1.3932302265900296 0 2.601069237384136 0 0
          -0.1954207163705416 2.998562600629708 0 -0.40343861920297935 0 0
          17.00452854205202 -15.686962837731153 0 4.918988457698804 0 0
          -3.677553367140445 6.597601591662716 0 -0.9608180469374002 0 0
          0.5329650920148067 1.8811379854867138 0 -0.021396680530799215 0 0
          -2.401501666525463 6.2952647335227425 0 -0.7424395723490627 0 0
          -22.58364286041529 26.572305964614014 0 9.914212782721787 0 0
          -1.8670793417059501 5.363653793862834 0 -0.5685608779239896 0 0
          -11.26178017254275 20.734028534614446 0 -3.054668227271523 0 0
          <InformationKey name="L2_NORM_RANGE" location="vtkDataArray" length="2">
            <Value index="0">
              0.95323509938
            </Value>
            <Value index="1">
              39.824534899
            </Value>
          </InformationKey>
        </DataArray>
        <DataArray type="Float64" Name="LEVEL" format="ascii" RangeMin="-0.9394549786159616" RangeMax="0.6047409423641477">
          -0.24613101201255494 -0.1499457088749792 -0.4676851372979301 -0.4402247186649042 -0.15324554602299734 0.04587998379627603
          -0.6583896397602778 -0.40343512933550285 -0.5905131294737778 -0.057942562559597705 -0.38240907299106286 -0.1835122916098047
          0.2639559363066563 -0.8176525708418132 -0.5995408924739353 -0.16753804932901772 0.21061744899142212 -0.316207650220958
          0.06309507940282374 -0.16004705506911976 0.6047409423641477 -0.9394549786159616 -0.01829247395361315 0.47268730944702025
          -0.5238281265905822 0.3702358660392469 -0.08809599166368748 0.14785059044319618 -0.22136914519592582 0.04058001560780311
          0.27041774083410686 0.08509741211064696 -0.09948639953378263 0.1580692432002873 -0.01844748829484938
        </DataArray>
      </PointData>
      <CellData>
        <DataArray type="UInt8" Name="vtkGhostType" format="ascii" RangeMin="0" RangeMax="0">
          0 0 0 0 0 0
          0 0 0 0 0 0
          0 0 0 0 0 0
          0 0 0 0 0 0
          0 0 0 0 0 0
          0 0 0 0 0 0
          0 0 0 0 0 0
          0 0 0 0 0 0
          0 0 0
        </DataArray>
      </CellData>
      <Points>
        <DataArray type="Float32" Name="Points" NumberOfComponents="3" format="ascii" RangeMin="0" RangeMax="1.4142135623730951">
          0 1 0 0 0.7799999713897705 0
          0.25 1 0 0.3173084855079651 0.8117569088935852 0
          0.1888372004032135 0.6106976866722107 0 0 0.5199999809265137 0
          0.5 1 0 0.43114039301872253 0.6648067235946655 0
          0.5338732004165649 0.815037190914154 0 0.37767431139945984 0.4413954019546509 0
          0.6174687743186951 0.6476302742958069 0 0.5365368127822876 0.5048667788505554 0
          0 0.25999999046325684 0 0.75 1 0
          0.782043993473053 0.8033316731452942 0 0.6966695785522461 0.4923292100429535 0
          0.32800689339637756 0.19591359794139862 0 0.7909218072891235 0.6301581263542175 0
          0.5597307085990906 0.27817249298095703 0 0.8505734801292419 0.47420310974121094 0
          0 0 0 1 1 0
          0.7649514079093933 0.327553391456604 0 0.23776529729366302 0 0
          1 0.7271645069122314 0 0.4648641049861908 0 0
          0.9007874131202698 0.35183119773864746 0 0.7203437089920044 0.13417460024356842 0
          1 0.4593985974788666 0 0.855294406414032 0.23049800097942352 0
          0.6747748255729675 0 0 0.8903893828392029 0.11795260012149811 0
          1 0.22097820043563843 0 0.8700000047683716 0 0
          1 0 0
          <InformationKey name="L2_NORM_RANGE" location="vtkDataArray" length="2">
            <Value index="0">
              0
            </Value>
            <Value index="1">
              1.4142135624
            </Value>
          </InformationKey>
        </DataArray>
      </Points>
      <Cells>
        <DataArray type="Int64" Name="connectivity" format="ascii" RangeMin="0" RangeMax="34">
          30 33 27 30 27 25
          23 25 16 27 18 25
          20 23 12 18 9 16
          18 16 25 23 16 12
          16 9 12 9 4 12
          4 1 5 4 5 12
          33 34 31 31 34 32
          33 31 27 31 32 29
          29 32 26 31 29 27
          26 32 28 29 26 22
          26 28 19 22 26 19
          29 22 27 22 19 15
          15 19 17 22 15 18
          28 24 17 28 17 19
          15 17 10 10 17 14
          15 10 11 14 17 24
          10 14 8 11 10 7
          15 11 18 8 14 13
          10 8 7 7 8 3
          11 7 9 11 9 18
          18 27 22 3 8 6
          6 8 13 7 3 4
          14 24 21 14 21 13
          0 1 2 9 7 4
          3 6 2 3 2 1
          1 4 3
        </DataArray>
        <DataArray type="Int64" Name="offsets" format="ascii" RangeMin="3" RangeMax="153">
          3 6 9 12 15 18
          21 24 27 30 33 36
          39 42 45 48 51 54
          57 60 63 66 69 72
          75 78 81 84 87 90
          93 96 99 102 105 108
          111 114 117 120 123 126
          129 132 135 138 141 144
          147 150 153
        </DataArray>
        <DataArray type="UInt8" Name="types" format="ascii" RangeMin="5" RangeMax="5">
          5 5 5 5 5 5
          5 5 5 5 5 5
          5 5 5 5 5 5
          5 5 5 5 5 5
          5 5 5 5 5 5
          5 5 5 5 5 5
          5 5 5 5 5 5
          5 5 5 5 5 5
          5 5 5
        </DataArray>
      </Cells>
    </Piece>
  </UnstructuredGrid>
</VTKFile>
