<?xml version="1.0"?>
<VTKFile type="UnstructuredGrid" version="0.1" byte_order="LittleEndian" header_type="UInt32" compressor="vtkZLibDataCompressor">
  <UnstructuredGrid>
    <Piece NumberOfPoints="126" NumberOfCells="100">
      <PointData>
        <DataArray type="Float64" Name="Velocity" NumberOfComponents="3" format="ascii" RangeMin="0" RangeMax="0.5067128537584886">
          0 0 0 0 0 0
          0 0 0 0 0 0
          -0.10720116544903516 0.04199759871287275 0 -0.1275505345372495 -0.03686400442214266 0
          0 0 0 -0.1816498673059639 0.25439045818399775 0
          0 0 0 0 0 0
          -0.04339503240892617 0.337315353988835 0 -0.022964866497920282 0.061917062450424123 0
          -0.07213639930919287 -0.3059566475825402 0 0.032518725280668986 0.10064963961137986 0
          0 0 0 0 0 0
          0.048397069811995 -0.493753980420754 0 0 0 0
          -0.04023052104507057 0.3222825437528967 0 -0.005594188918283575 0.04970869882690085 0
          0 0 0 0.00023479563235819894 -0.07144937777834241 0
          0.0527541561597847 -0.4437979834740264 0 0 0 0
          0 0 0 -0.02998505250155285 0.3516355103246652 0
          0.012900349913073665 -0.021787281364543512 0 0.031279738448867965 -0.0315825246076982 0
          0.05007172497320596 -0.44827429087269643 0 0 0 0
          0 0 0 -0.03199112096349706 0.336993427137943 0
          0.0026537979682980705 -0.02214572181404989 0 0.01941571743799675 -0.03733033760225747 0
          0.05055763986704121 -0.44203877734730146 0 0 0 0
          0 0 0 -0.03213735711193354 0.34219265289163187 0
          0.0041833050276148444 -0.020165772603382717 0 0.020543960709354003 -0.04505700726903186 0
          0.049760667386861294 -0.44119501495902197 0 0 0 0
          0 0 0 -0.03173109378465128 0.3424757937884769 0
          0.003891523978135542 -0.02005048576285389 0 0.01985776566293148 -0.052258682081124795 0
          0.049696090037410774 -0.44172714143786984 0 0 0 0
          0 0 0 -0.03191580401848373 0.34354499431030266 0
          0.003930630565525273 -0.018789705955553418 0 0.019821688477674862 -0.057947661897608714 0
          0.04964217805024922 -0.44286879623162345 0 0 0 0
          0 0 0 -0.03172797401000009 0.3445739328900024 0
          0.004182375980409681 -0.01826415721233274 0 0.019830982021434948 -0.06156705370168164 0
          0.049656313737949834 -0.44418168096661265 0 0 0 0
          0 0 0 -0.03172684041092874 0.3449664765120261 0
          0.004360183928575349 -0.01783471443290067 0 0.019876489620668614 -0.06333464374225464 0
          0.04973461394138079 -0.4456028092784854 0 0 0 0
          0 0 0 -0.03167835777399262 0.34518879618564996 0
          0.004566497357827934 -0.017785999072748464 0 0.01982060991808195 -0.06341536637199105 0
          0.0496308708438912 -0.447006938984065 0 0 0 0
          0 0 0 -0.03166926471761375 0.3448919553678199 0
          0.004814075512908385 -0.018128813849584452 0 0.02011589326239737 -0.06220282199794854 0
          0.050129779814957975 -0.44896513441953795 0 0 0 0
          0 0 0 -0.03171059378266662 0.3442182123181121 0
          0.0048525824550390995 -0.018808413693796208 0 0.019602769163817323 -0.05948988396036857 0
          0.048968908974623505 -0.4499275607008499 0 0 0 0
          0 0 0 -0.031911058466201535 0.3432294648443923 0
          0.005054242215963949 -0.020621223921803707 0 0.0205209702450367 -0.05722207245601877 0
          0.05141132240120458 -0.45658567778121906 0 0 0 0
          0 0 0 -0.03278407045387665 0.34333578205776416 0
          0.0035210478080041603 -0.026765726116286095 0 0.019900561757281922 -0.05924862259072728 0
          0.045993073392372325 -0.45383260281960636 0 0 0 0
          0 0 0 -0.03163971698818022 0.34508773960066763 0
          0.003250495133967647 -0.03960926171744414 0 0.012191229422162117 -0.08913720658987048 0
          0.048995696179925 -0.5043385152057257 0 0 0 0
          0 0 0 -0.03283051630122894 0.3509126059413331 0
          0.021573643846302542 -0.05067498193349337 0 0.05043005143796163 -0.10062003925692142 0
          0.06170078157315334 -0.43113624923032057 0 0 0 0
          0 0 0 -0.02861665695721708 0.3864354457277766 0
          0.020510051379434166 -0.08372383479533094 0 0.03884519723587597 -0.09510448278458158 0
          0.05580842526508059 -0.4011195377926693 0 0 0 0
          0 0 0 0.10026428586140154 0.25424697394245366 0
          0.19557086644759175 -0.1331798915843838 0 0.15972279523944707 -0.029965854837870617 0
          0.12022785980191973 -0.05687602721697728 0 0 0 0
          0 0 0 0 0 0
          0 0 0 0 0 0
          0 0 0 0 0 0
          <InformationKey name="L2_NORM_RANGE" location="vtkDataArray" length="2">
            <Value index="0">
              0
            </Value>
            <Value index="1">
              0.50671285376
            </Value>
          </InformationKey>
        </DataArray>
        <DataArray type="Float64" Name="Pressure" format="ascii" RangeMin="-21.8260534751669" RangeMax="21.54608985697425">
          20.970825133585237 21.031458367734018 21.097903983400954 18.818482327299876 18.818693400149442 18.8382757701509
          21.189481034083286 18.858701132394728 16.56717594645508 21.388591560558993 16.57126391958512 16.59280107156728
          18.878041292896754 16.60015604811126 21.54608985697425 18.869082317800576 16.59105167460804 14.376372707763267
          14.371341883557506 14.385438638134943 16.60273060732065 14.399202967334247 14.406110728446592 14.413181617261714
          12.22998346690595 12.232210970320011 12.243738115339681 12.251175106706413 12.250887648466389 12.258902424194858
          10.11907917752535 10.11857031011165 10.12899287691124 10.135704890934704 10.135660741492472 10.144094628051235
          8.034470152647799 8.034137936286427 8.04468222114248 8.05170610080657 8.052086300190581 8.061012342540309
          5.976433490985812 5.9759297099268025 5.9859819445081826 5.992696609558578 5.993002628338715 6.002241638048247
          3.934794011711446 3.9342068218877984 3.9441076094748553 3.9506284911801686 3.9507821853076734 3.9602447914070495
          1.9022747518012295 1.9016670426303506 1.9113260728932033 1.917612329636441 1.91763855791109 1.9272464789687973
          -0.12959692555683944 -0.13017520547681727 -0.12060832865981297 -0.11444367279490564 -0.11453429187974962 -0.10491447531650522
          -2.168659145946094 -2.169141701805046 -2.159565422606647 -2.153403408415926 -2.1534140806227526 -2.1437733160723553
          -4.222378592158137 -4.222697533268288 -4.212968120759427 -4.206686275946922 -4.206814705165513 -4.197417407349462
          -6.2975449361331926 -6.297619321957896 -6.287588467228758 -6.280954869748683 -6.280413935109337 -6.271113088578005
          -8.400074590871014 -8.399815824649409 -8.389247741293246 -8.382304940844676 -8.382639610336781 -8.373781098577481
          -10.534977874109615 -10.534347627272126 -10.523207941381514 -10.515117712972426 -10.512413533093863 -10.504406291788072
          -12.704480528695768 -12.70483562265585 -12.69430603993645 -12.688572678434241 -12.692480794324553 -12.68634971626578
          -14.90917643677571 -14.905076811657082 -14.89719991893368 -14.894551001697806 -14.897235767382966 -14.884201977258186
          -17.14256151304359 -17.145819741371923 -17.12217965530843 -17.10542362950389 -17.110209214525625 -17.11519249250327
          -19.377814370562476 -19.371437400638484 -19.365653207681376 -19.35827806209771 -19.36358952135639 -19.35725225632727
          -21.421319833998297 -21.481958675370663 -21.584453267113673 -21.64313560314548 -21.706957119962397 -21.8260534751669
        </DataArray>
        <DataArray type="Float64" Name="Temperature" format="ascii" RangeMin="300.0000001859073" RangeMax="600.0000003723377">
          600.0000003722881 470.9206720698262 446.9349959177451 600.0000003722422 468.9414705826949 453.4299608798517
          455.707788872462 449.20572815283634 600.0000003722374 388.30839200657834 476.29230751628813 458.25699706511017
          426.8953920713028 449.7441179044589 300.00000018615555 300.0000001860363 430.0039004847357 600.0000003721955
          477.79216768155874 454.0748080748693 300.0000001859901 447.93194417824947 432.9807177101871 300.0000001860355
          600.0000003721754 481.4512645670681 452.2770944692255 448.8177227782914 432.9458492862836 300.00000018606715
          600.000000372232 478.57367049047747 453.25550186358896 448.76609191762714 433.3935707001483 300.00000018609495
          600.0000003721282 481.51253406409273 453.4498044701339 448.8611686783628 433.8458462962645 300.00000018599553
          600.0000003721808 480.8701524251133 453.8686407812456 448.829739903896 434.1616965800614 300.0000001861707
          600.0000003723377 481.85646574822135 454.1028905990163 448.8062198287419 434.3621229444123 300.00000018611104
          600.0000003721105 481.84855300227053 454.25056819198585 448.7568698530838 434.44782289605325 300.00000018615543
          600.0000003723294 482.0126084425015 454.2974406010459 448.68892142647667 434.37599823916025 300.00000018609006
          600.0000003722907 481.8666016333239 454.22950759691054 448.5924349174854 434.2942307324549 300.00000018608944
          600.0000003723175 481.5888391999384 454.06186457036847 448.47769271494485 433.7766538052285 300.00000018605573
          600.0000003720754 481.12834653618063 453.7885120359422 448.32451439160315 433.9222478927211 300.00000018611314
          600.0000003722299 480.50630120394493 453.419859975732 448.1515791846698 432.1548724319006 300.000000186103
          600.0000003719772 479.7410191577965 452.8505627187476 447.8983094873357 434.00362772140926 300.0000001860146
          600.0000003720131 478.92476396834746 451.83145849010975 446.51189655797685 427.69532091421655 300.0000001859073
          600.0000003721996 477.97618987314064 451.2516822393817 446.86422543530165 433.5779940682386 300.0000001861102
          600.0000003720189 479.2162788981567 449.8244705923583 446.0816012869931 431.7983118827428 300.000000186086
          600.0000003721166 472.85888083755765 449.64943944082916 445.45360847178233 434.9129145461512 300.0000001859951
          600.0000003719863 507.53001830281994 449.1991976501664 448.13849954957385 442.1387841590951 300.00000018606204
        </DataArray>
        <DataArray type="Float64" Name="Density" format="ascii" RangeMin="0.6014994813994688" RangeMax="1.2029989627999864">
          0.6014994813995186 0.7663704535997297 0.8074992836991065 0.6014994813995647 0.7696049756810747 0.7959326030492991
          0.7919541817720532 0.8034173797108191 0.6014994813995694 0.9294151156473802 0.7577273102427763 0.7875486711059752
          0.8454054453775001 0.8024556068575637 1.202998962798991 1.2029989627994693 0.8392939893261584 0.6014994813996114
          0.7553486923297086 0.7948022718849798 1.2029989627996547 0.8057020575429786 0.8335236981735713 1.2029989627994726
          0.6014994813996316 0.7496079367205971 0.7979614565428741 0.8041119384269966 0.83359082817999 1.2029989627993456
          0.6014994813995749 0.7541152205338955 0.7962389592178807 0.8042044520821036 0.832729679124238 1.2029989627992341
          0.6014994813996789 0.7495125537388482 0.7958977719383108 0.8040341073082433 0.8318615751300549 1.2029989627996327
          0.6014994813996262 0.7505138076122239 0.79516330637522 0.8040904088506224 0.8312564003376809 1.2029989627989301
          0.6014994813994688 0.7489775788382154 0.7947531199098341 0.8041325478986375 0.830872836280498 1.2029989627991695
          0.6014994813996966 0.7489898782822362 0.7944947443876625 0.804220978682277 0.8307089368243692 1.2029989627989917
          0.6014994813994772 0.7487349557717916 0.794412771919128 0.8043427680725124 0.8308462956669554 1.2029989627992537
          0.6014994813995159 0.7489618243728555 0.7945315815631898 0.8045157719390131 0.8310027247080171 1.202998962799256
          0.6014994813994892 0.749393797545648 0.7948249285482808 0.8047216058369983 0.8319942668599474 1.2029989627993913
          0.6014994813997319 0.7501110497061573 0.7953037141562925 0.8049965537873824 0.8317151075251338 1.202998962799161
          0.6014994813995769 0.7510821151759732 0.795950334162598 0.8053071903043018 0.835116556786047 1.2029989627992017
          0.6014994813998302 0.7522802400703933 0.796950956397037 0.8057625613205103 0.831559152992396 1.2029989627995563
          0.6014994813997943 0.7535623885331066 0.798748476411237 0.8082644423266372 0.8438242632446952 1.2029989627999864
          0.6014994813996074 0.7550578809363463 0.7997747227725366 0.8076271684359625 0.8323754756954804 1.202998962799173
          0.6014994813997885 0.7531039844753288 0.8023122632443405 0.8090441031919006 0.8358061602650418 1.2029989627992699
          0.6014994813996906 0.7632291655903635 0.8026245724056645 0.8101846796163147 0.8298205847491452 1.2029989627996345
          0.6014994813998211 0.7110903317019367 0.8034290598726953 0.8053306944758915 0.8162588354469701 1.202998962799366
        </DataArray>
        <DataArray type="Float64" Name="stream" format="ascii" RangeMin="-0.06925067468924997" RangeMax="0.09201551491128762">
          -0.008620236609259879 0 0.0004445642985712317 0.0008451226534741361 -0.008618298771955066 -0.021998924679339588
          -0.0015219759246546533 -0.035223836557728705 0.011378006377359525 -0.0050514663824999615 -0.02189243342343152 -0.05741608904518272
          -0.026440977562662525 -0.06925067468924997 -0.0050514663824999615 -0.00044838959345423063 -0.03429741023592248 0.014888458667597918
          -0.01988227829628957 -0.057579216076100594 0.007314799106349346 -0.05550548601061131 -0.01634569848816462 0.017674449482793682
          0.010145756697703383 -0.02377983324955537 -0.05715544742079268 -0.05329608485645157 -0.014706579439817775 0.02724417221459511
          -0.002833108060906104 -0.03336666180673733 -0.06412012261987261 -0.05855795729181451 -0.013399546038874227 0.03283892197668678
          0.001503443099759364 -0.03289861197510062 -0.06485876876355265 -0.058258421629593306 -0.010249087073006282 0.0373250957094672
          0.004624162538452738 -0.030480023291789497 -0.0629720342050736 -0.05575255648688418 -0.006568528537943772 0.04144756642100918
          0.007914858329716092 -0.02747561610215806 -0.06035383925182072 -0.05271956247921185 -0.0027451435552668484 0.04548217599144453
          0.011364029361669317 -0.02420818874196605 -0.05730516512456313 -0.049388527334756835 0.001102395455366792 0.049494812718341955
          0.015018048949957483 -0.020669035015066325 -0.05389847450417201 -0.045850905396667654 0.00497015924162055 0.053506325018526826
          0.018768595839105603 -0.016975429352581135 -0.05025020527071666 -0.042201267544664425 0.008786804447541055 0.057515731288165485
          0.02268944978618753 -0.01307521127441473 -0.0463083785253693 -0.03834080787572645 0.01271501890650129 0.06154566047144028
          0.02602267646916789 -0.009531353016313797 -0.0425768415571386 -0.03477456575894318 0.01626657187048155 0.06554112353720586
          0.02882756345717578 -0.0064533596212998255 -0.03906581783372663 -0.031164961239243796 0.0203188548861211 0.06965613913384666
          0.023146154694842644 -0.01006127355099894 -0.04120071510028096 -0.031332428546620314 0.02214026010604668 0.07353785293208427
          0.023840513669031088 -0.010659812972175522 -0.04212667417518234 -0.03037102466963942 0.02643535622738004 0.07804635608433289
          0.037248488748999 -0.0020862561231038542 -0.034658962467607045 -0.02053246139874715 0.03344632692671247 0.0814568362385066
          0.06747852603373822 0.017754643751446003 -0.014289357365358264 0.006137753341269495 0.04978767411109273 0.0853576576972865
          0.08944578724622168 0.057379819827544226 0.04355804417246151 0.05790509621489825 0.07329658112767878 0.08668887673451248
          0.08668887673451248 0.08206077686716852 0.08468054709824618 0.08826926599865009 0.09201551491128762 0.08668887673451248
        </DataArray>
      </PointData>
      <CellData>
        <DataArray type="UInt8" Name="vtkGhostType" format="ascii" RangeMin="0" RangeMax="0">
          0 0 0 0 0 0
          0 0 0 0 0 0
          0 0 0 0 0 0
          0 0 0 0 0 0
          0 0 0 0 0 0
          0 0 0 0 0 0
          0 0 0 0 0 0
          0 0 0 0 0 0
          0 0 0 0 0 0
          0 0 0 0 0 0
          0 0 0 0 0 0
          0 0 0 0 0 0
          0 0 0 0 0 0
          0 0 0 0 0 0
          0 0 0 0 0 0
          0 0 0 0 0 0
          0 0 0 0
        </DataArray>
      </CellData>
      <Points>
        <DataArray type="Float32" Name="Points" NumberOfComponents="3" format="ascii" RangeMin="0.10000000149011612" RangeMax="8.0156097709407">
          -0.5 0 0 -0.30000001192092896 0 0
          -0.10000000149011612 0 0 -0.5 0.4000000059604645 0
          -0.30000001192092896 0.4000000059604645 0 -0.10000000149011612 0.4000000059604645 0
          0.10000000149011612 0 0 0.10000000149011612 0.4000000059604645 0
          -0.5 0.800000011920929 0 0.30000001192092896 0 0
          -0.30000001192092896 0.800000011920929 0 -0.10000000149011612 0.800000011920929 0
          0.30000001192092896 0.4000000059604645 0 0.10000000149011612 0.800000011920929 0
          0.5 0 0 0.5 0.4000000059604645 0
          0.30000001192092896 0.800000011920929 0 -0.5 1.2000000476837158 0
          -0.30000001192092896 1.2000000476837158 0 -0.10000000149011612 1.2000000476837158 0
          0.5 0.800000011920929 0 0.10000000149011612 1.2000000476837158 0
          0.30000001192092896 1.2000000476837158 0 0.5 1.2000000476837158 0
          -0.5 1.600000023841858 0 -0.30000001192092896 1.600000023841858 0
          -0.10000000149011612 1.600000023841858 0 0.10000000149011612 1.600000023841858 0
          0.30000001192092896 1.600000023841858 0 0.5 1.600000023841858 0
          -0.5 2 0 -0.30000001192092896 2 0
          -0.10000000149011612 2 0 0.10000000149011612 2 0
          0.30000001192092896 2 0 0.5 2 0
          -0.5 2.4000000953674316 0 -0.30000001192092896 2.4000000953674316 0
          -0.10000000149011612 2.4000000953674316 0 0.10000000149011612 2.4000000953674316 0
          0.30000001192092896 2.4000000953674316 0 0.5 2.4000000953674316 0
          -0.5 2.799999952316284 0 -0.30000001192092896 2.799999952316284 0
          -0.10000000149011612 2.799999952316284 0 0.10000000149011612 2.799999952316284 0
          0.30000001192092896 2.799999952316284 0 0.5 2.799999952316284 0
          -0.5 3.200000047683716 0 -0.30000001192092896 3.200000047683716 0
          -0.10000000149011612 3.200000047683716 0 0.10000000149011612 3.200000047683716 0
          0.30000001192092896 3.200000047683716 0 0.5 3.200000047683716 0
          -0.5 3.5999999046325684 0 -0.30000001192092896 3.5999999046325684 0
          -0.10000000149011612 3.5999999046325684 0 0.10000000149011612 3.5999999046325684 0
          0.30000001192092896 3.5999999046325684 0 0.5 3.5999999046325684 0
          -0.5 4 0 -0.30000001192092896 4 0
          -0.10000000149011612 4 0 0.10000000149011612 4 0
          0.30000001192092896 4 0 0.5 4 0
          -0.5 4.400000095367432 0 -0.30000001192092896 4.400000095367432 0
          -0.10000000149011612 4.400000095367432 0 0.10000000149011612 4.400000095367432 0
          0.30000001192092896 4.400000095367432 0 0.5 4.400000095367432 0
          -0.5 4.800000190734863 0 -0.30000001192092896 4.800000190734863 0
          -0.10000000149011612 4.800000190734863 0 0.10000000149011612 4.800000190734863 0
          0.30000001192092896 4.800000190734863 0 0.5 4.800000190734863 0
          -0.5 5.199999809265137 0 -0.30000001192092896 5.199999809265137 0
          -0.10000000149011612 5.199999809265137 0 0.10000000149011612 5.199999809265137 0
          0.30000001192092896 5.199999809265137 0 0.5 5.199999809265137 0
          -0.5 5.599999904632568 0 -0.30000001192092896 5.599999904632568 0
          -0.10000000149011612 5.599999904632568 0 0.10000000149011612 5.599999904632568 0
          0.30000001192092896 5.599999904632568 0 0.5 5.599999904632568 0
          -0.5 6 0 -0.30000001192092896 6 0
          -0.10000000149011612 6 0 0.10000000149011612 6 0
          0.30000001192092896 6 0 0.5 6 0
          -0.5 6.400000095367432 0 -0.30000001192092896 6.400000095367432 0
          -0.10000000149011612 6.400000095367432 0 0.10000000149011612 6.400000095367432 0
          0.30000001192092896 6.400000095367432 0 0.5 6.400000095367432 0
          -0.5 6.800000190734863 0 -0.30000001192092896 6.800000190734863 0
          -0.10000000149011612 6.800000190734863 0 0.10000000149011612 6.800000190734863 0
          0.30000001192092896 6.800000190734863 0 0.5 6.800000190734863 0
          -0.5 7.199999809265137 0 -0.30000001192092896 7.199999809265137 0
          -0.10000000149011612 7.199999809265137 0 0.10000000149011612 7.199999809265137 0
          0.30000001192092896 7.199999809265137 0 0.5 7.199999809265137 0
          -0.5 7.599999904632568 0 -0.30000001192092896 7.599999904632568 0
          -0.10000000149011612 7.599999904632568 0 0.10000000149011612 7.599999904632568 0
          0.30000001192092896 7.599999904632568 0 0.5 7.599999904632568 0
          -0.5 8 0 -0.30000001192092896 8 0
          -0.10000000149011612 8 0 0.10000000149011612 8 0
          0.30000001192092896 8 0 0.5 8 0
          <InformationKey name="L2_NORM_RANGE" location="vtkDataArray" length="2">
            <Value index="0">
              0.10000000149
            </Value>
            <Value index="1">
              8.0156097709
            </Value>
          </InformationKey>
        </DataArray>
      </Points>
      <Cells>
        <DataArray type="Int64" Name="connectivity" format="ascii" RangeMin="0" RangeMax="125">
          15 12 9 14 20 16
          12 15 23 22 16 20
          29 28 22 23 35 34
          28 29 41 40 34 35
          47 46 40 41 53 52
          46 47 59 58 52 53
          65 64 58 59 71 70
          64 65 77 76 70 71
          83 82 76 77 89 88
          82 83 95 94 88 89
          101 100 94 95 107 106
          100 101 113 112 106 107
          119 118 112 113 125 124
          118 119 12 7 6 9
          16 13 7 12 22 21
          13 16 28 27 21 22
          34 33 27 28 40 39
          33 34 46 45 39 40
          52 51 45 46 58 57
          51 52 64 63 57 58
          70 69 63 64 76 75
          69 70 82 81 75 76
          88 87 81 82 94 93
          87 88 100 99 93 94
          106 105 99 100 112 111
          105 106 118 117 111 112
          124 123 117 118 7 5
          2 6 13 11 5 7
          21 19 11 13 27 26
          19 21 33 32 26 27
          39 38 32 33 45 44
          38 39 51 50 44 45
          57 56 50 51 63 62
          56 57 69 68 62 63
          75 74 68 69 81 80
          74 75 87 86 80 81
          93 92 86 87 99 98
          92 93 105 104 98 99
          111 110 104 105 117 116
          110 111 123 122 116 117
          5 4 1 2 11 10
          4 5 19 18 10 11
          26 25 18 19 32 31
          25 26 38 37 31 32
          44 43 37 38 50 49
          43 44 56 55 49 50
          62 61 55 56 68 67
          61 62 74 73 67 68
          80 79 73 74 86 85
          79 80 92 91 85 86
          98 97 91 92 104 103
          97 98 110 109 103 104
          116 115 109 110 122 121
          115 116 4 3 0 1
          10 8 3 4 18 17
          8 10 25 24 17 18
          31 30 24 25 37 36
          30 31 43 42 36 37
          49 48 42 43 55 54
          48 49 61 60 54 55
          67 66 60 61 73 72
          66 67 79 78 72 73
          85 84 78 79 91 90
          84 85 97 96 90 91
          103 102 96 97 109 108
          102 103 115 114 108 109
          121 120 114 115
        </DataArray>
        <DataArray type="Int64" Name="offsets" format="ascii" RangeMin="4" RangeMax="400">
          4 8 12 16 20 24
          28 32 36 40 44 48
          52 56 60 64 68 72
          76 80 84 88 92 96
          100 104 108 112 116 120
          124 128 132 136 140 144
          148 152 156 160 164 168
          172 176 180 184 188 192
          196 200 204 208 212 216
          220 224 228 232 236 240
          244 248 252 256 260 264
          268 272 276 280 284 288
          292 296 300 304 308 312
          316 320 324 328 332 336
          340 344 348 352 356 360
          364 368 372 376 380 384
          388 392 396 400
        </DataArray>
        <DataArray type="UInt8" Name="types" format="ascii" RangeMin="9" RangeMax="9">
          9 9 9 9 9 9
          9 9 9 9 9 9
          9 9 9 9 9 9
          9 9 9 9 9 9
          9 9 9 9 9 9
          9 9 9 9 9 9
          9 9 9 9 9 9
          9 9 9 9 9 9
          9 9 9 9 9 9
          9 9 9 9 9 9
          9 9 9 9 9 9
          9 9 9 9 9 9
          9 9 9 9 9 9
          9 9 9 9 9 9
          9 9 9 9 9 9
          9 9 9 9 9 9
          9 9 9 9
        </DataArray>
      </Cells>
    </Piece>
  </UnstructuredGrid>
</VTKFile>
