<?xml version="1.0"?>
<VTKFile type="UnstructuredGrid" version="0.1" byte_order="LittleEndian" header_type="UInt32" compressor="vtkZLibDataCompressor">
  <UnstructuredGrid>
    <Piece NumberOfPoints="126" NumberOfCells="100">
      <PointData>
        <DataArray type="Float64" Name="Velocity" NumberOfComponents="3" format="ascii" RangeMin="0" RangeMax="0.21288138552563984">
          0 0 0 0 0 0
          0 0 0 0 0 0
          0.004790287397830925 0.03627344334262661 0 -0.030030566878204254 0.04968641017773546 0
          0 0 0 -0.05696940231584806 -0.021198856549415668 0
          0 0 0 0 0 0
          0.040761681987765266 0.12685609887525362 0 -0.006231432297422309 0.10243240937859463 0
          -0.025779331982330324 -0.1324563114820359 0 -0.02391951734215352 -0.05906960827720625 0
          0 0 0 0 0 0
          -0.05601734004532649 -0.14556829148975942 0 0 0 0
          0.04357742078872675 0.1668037977121013 0 0.00514037404573656 0.024309029709206287 0
          0 0 0 -0.000028203993879435593 -0.04262632340155553 0
          -0.05437214303314991 -0.20582068497917985 0 0 0 0
          0 0 0 0.0407401019256452 0.14630873354188878 0
          -0.007017939453221048 0.03703642341749941 0 -0.01576823472342885 -0.04865576291830823 0
          -0.051483050366355025 -0.1869090922982487 0 0 0 0
          0 0 0 0.0431948317819552 0.15029158911988894 0
          0.005510259722149285 0.03160311778191449 0 -0.006867999701374703 -0.043305200032779066 0
          -0.052491804864905 -0.186593386010652 0 0 0 0
          0 0 0 0.04309796562818671 0.14267056276535844 0
          0.0023556976876228774 0.027605540751271952 0 -0.008522905023089144 -0.04139315939858202 0
          -0.052214992715340997 -0.18670835004180403 0 0 0 0
          0 0 0 0.04297809260783548 0.13845789056177232 0
          0.0028728593921452878 0.02647558145724274 0 -0.00791815596107469 -0.04113661717359836 0
          -0.05227069917395563 -0.18657025767372343 0 0 0 0
          0 0 0 0.04307544802644314 0.13513296604155917 0
          0.002541274859743472 0.024620416490482182 0 -0.008056372410428569 -0.042348420590006694 0
          -0.05231627128120723 -0.18601206262168501 0 0 0 0
          0 0 0 0.04289632361049053 0.13289676725512303 0
          0.0021606003086008753 0.023766468740790008 0 -0.008160090957857396 -0.04501653500461597 0
          -0.052385439089111384 -0.18521802797558032 0 0 0 0
          0 0 0 0.04283506085108916 0.1325604264559014 0
          0.0018575184904517008 0.02328008701090253 0 -0.008295694354942292 -0.048484435980404965 0
          -0.05246668020568006 -0.18417798765297966 0 0 0 0
          0 0 0 0.04271710874821739 0.13361101680288334 0
          0.001552986666768395 0.023443104265493335 0 -0.008328035405242736 -0.05238639643317589 0
          -0.05238300415701927 -0.18301301489602906 0 0 0 0
          0 0 0 0.04261212358370154 0.1363511731586024 0
          0.0012470517231300089 0.024200463065776046 0 -0.008656768327256568 -0.05629288245902202 0
          -0.05273238173023064 -0.18126352861053782 0 0 0 0
          0 0 0 0.04252699829485924 0.14056780533817437 0
          0.0011522161777677061 0.025370384769001757 0 -0.008291250349266557 -0.06051931021581136 0
          -0.05169461811784125 -0.18013222389977382 0 0 0 0
          0 0 0 0.04260838461385943 0.14613343681600893 0
          0.0010350583072434427 0.027285052352604033 0 -0.008827424747405662 -0.06411388150083452 0
          -0.05344842548491983 -0.1743823752671852 0 0 0 0
          0 0 0 0.04323778661393464 0.15172290237895358 0
          0.003170223300812331 0.03173352768487336 0 -0.008432544408125494 -0.06440680252152994 0
          -0.04834960608676211 -0.1734159700025354 0 0 0 0
          0 0 0 0.04266437025618396 0.15687405245877706 0
          0.003342928319818317 0.03862413012685992 0 0.0027077387026641867 -0.0488801952990327 0
          -0.04875194610103712 -0.12886299416984381 0 0 0 0
          0 0 0 0.04316570395596678 0.15910417503852461 0
          -0.0021840520600319557 0.035745754274755424 0 -0.022322151276257803 -0.05958743613007751 0
          -0.05405155310021681 -0.1630309808354532 0 0 0 0
          0 0 0 0.043677946162105255 0.11342836818439705 0
          -0.0037457689579764673 -0.01331678469457151 0 0.0020571500505536244 -0.06952539709968948 0
          -0.0458623127654843 -0.17416820562703642 0 0 0 0
          0 0 0 0.027827758812804033 0.0553428254667854 0
          0.05183924724824157 -0.01645504261045455 0 0.034676281284039295 -0.019184516644165123 0
          -0.007950441492062726 -0.08114151939314472 0 0 0 0
          0 0 0 0 0 0
          0 0 0 0 0 0
          0 0 0 0 0 0
          <InformationKey name="L2_NORM_RANGE" location="vtkDataArray" length="2">
            <Value index="0">
              0
            </Value>
            <Value index="1">
              0.21288138553
            </Value>
          </InformationKey>
        </DataArray>
        <DataArray type="Float64" Name="Pressure" format="ascii" RangeMin="-20.752592394478157" RangeMax="21.098239696285006">
          20.79321165970255 20.87731168741381 20.913769416690158 18.702942791508278 18.68924442311986 18.646211871146463
          20.936707802598406 18.589768712023826 16.52858603933295 20.95446415265303 16.519850456594213 16.44699624864556
          18.557110571746563 16.35713125119598 21.098239696285006 18.525304686419815 16.29927837955637 14.382629095116926
          14.373317804740296 14.299663141016012 16.285305849246697 14.207080946918893 14.130098848489595 14.1049392191495
          12.273646486796991 12.25817235358113 12.183463925018145 12.091234715589053 12.020350057271955 11.99727942925088
          10.209829653380652 10.196872865782737 10.122109243792721 10.029719927914357 9.958005049721365 9.9349076251833
          8.188187309243304 8.17484561380897 8.099774350606694 8.006897376329007 7.93483512638953 7.912103319505263
          6.196958529619266 6.183572894252677 6.108797115741339 6.0161898723684 5.944391035750513 5.9221998057365965
          4.232087921055182 4.2186427257679355 4.143951525282816 4.051577387801075 3.980191810829467 3.958599696305356
          2.2860817567069347 2.272548549801172 2.1980695581411 2.1060183468881206 2.03504832307037 2.014067832333282
          0.3517605643708066 0.33814890524766383 0.263788214230388 0.17196786674945486 0.10142298045393261 0.08110502768511196
          -1.5789266827694206 -1.592634528403849 -1.6669398783740519 -1.7586359564945724 -1.828976750190776 -1.848738761933987
          -3.514330852836622 -3.5281536205570205 -3.602501931388389 -3.6941763179105607 -3.764083606972207 -3.7831556212150446
          -5.462903989659722 -5.476872158929851 -5.5513787367828655 -5.643272617691437 -5.713625610997141 -5.732260333168583
          -7.432820868657174 -7.4470280689643005 -7.52189163590586 -7.61394826850966 -7.683168110341313 -7.701187561163053
          -9.431357261978249 -9.445796755211504 -9.521332503593968 -9.61464670900763 -9.686751843308883 -9.703741366748275
          -11.465213492822585 -11.479015916255264 -11.554153102592252 -11.64632407986376 -11.713388081521188 -11.728454417166105
          -13.541106901097578 -13.557045769656185 -13.630722546667997 -13.721532694480558 -13.791333382244986 -13.81211950843712
          -15.651055643365268 -15.67498875097732 -15.769737048941721 -15.875329538264424 -15.952064490582941 -15.971503994977724
          -17.785738217741837 -17.80646434528589 -17.930914380241006 -18.07876569014232 -18.18826262729752 -18.195958905086385
          -19.80650181819594 -19.915484875104838 -20.10565389929421 -20.32931616204195 -20.568020920846052 -20.752592394478157
        </DataArray>
        <DataArray type="Float64" Name="Temperature" format="ascii" RangeMin="299.99999964253163" RangeMax="599.9999992856303">
          599.9999992851999 493.5896403321352 457.26470731135464 599.9999992851963 504.44399772145096 457.60443727029696
          433.4646363481553 439.97628562357016 599.9999992852173 397.6710059239624 497.39608147600563 455.65312451864907
          408.8043203637443 440.2435311383864 299.9999996425728 299.9999996427163 401.71177240877824 599.9999992853051
          494.3874495163584 456.4951713374892 299.99999964284456 440.05442595257335 401.6386565216197 299.99999964268216
          599.9999992852713 495.30606821209574 457.2320086625077 441.48013981921537 402.6187394599045 299.99999964270603
          599.9999992852697 498.05068112286085 456.8614323214033 441.6793398305443 403.22115536778324 299.9999996426427
          599.999999285444 496.45757678004105 457.1333376337461 441.83020946889275 403.418427104066 299.9999996427788
          599.9999992853574 497.5520470369308 457.1799931342401 441.9364313371952 403.58906898615277 299.99999964253163
          599.9999992851534 497.14332092053155 457.25471328626145 441.95007879912873 403.7080971361495 299.9999996426199
          599.9999992854453 497.3927734270122 457.2969036713509 441.9101814003759 403.78508783602376 299.9999996425553
          599.9999992851491 497.3314220780249 457.2950480099108 441.82180083048746 403.8346009905597 299.9999996426639
          599.9999992851778 497.34612277328483 457.27108082190324 441.6983715539328 403.76430452713214 299.9999996426508
          599.9999992851209 497.3017475586687 457.2063236099944 441.5379450628316 403.87938370841334 299.99999964270535
          599.9999992854686 497.2378180774284 457.1098541572954 441.3573884602746 403.3565567756133 299.99999964260763
          599.9999992852538 497.15857555216553 456.973121892412 441.12321702259595 404.2160271021436 299.99999964264094
          599.9999992855519 497.09052389655454 456.8786338783955 440.9020919272459 402.1068276650691 299.9999996428036
          599.9999992855962 497.09081181321415 456.97300549794465 441.3775478707534 406.6925066138233 299.9999996428838
          599.9999992852156 497.4455498915853 456.87649842048137 440.17096716443297 402.4811329361793 299.9999996426322
          599.9999992855944 496.9797153715782 454.97639009507157 440.1173895289945 403.196735082167 299.9999996426759
          599.9999992854204 496.6375266641734 454.6926060659745 442.8206376798173 404.2860441182459 299.99999964278413
          599.9999992856303 498.98262038901953 457.1238360458958 448.6712088033395 406.7924225754299 299.99999964267727
        </DataArray>
        <DataArray type="Float64" Name="Density" format="ascii" RangeMin="0.5948640535784516" RangeMax="1.1897281071580277">
          0.5948640535788784 0.7231076233325089 0.7805510156704265 0.594864053578882 0.707548178458464 0.7799715270490138
          0.8234084208785238 0.8112219757850456 0.5948640535788612 0.8975218872013102 0.7175738712355254 0.7833117178756669
          0.8730789131693635 0.8107295314463672 1.1897281071578645 1.1897281071572954 0.8884938312410751 0.5948640535787741
          0.7219407209290583 0.7818668282435053 1.1897281071567867 0.8110779273484341 0.8886555761668965 1.1897281071574308
          0.5948640535788076 0.7206017745966351 0.7806068362671584 0.808458636142217 0.8864923480732881 1.189728107157336
          0.5948640535788092 0.7166307471308774 0.7812400138671041 0.8080940164850235 0.8851679208065565 1.1897281071575871
          0.5948640535786364 0.718930374750335 0.7807753281999313 0.8078180805046269 0.88473507341807 1.1897281071570476
          0.5948640535787223 0.7173489363528353 0.7806956495957545 0.8076239169560367 0.8843609977314923 1.1897281071580277
          0.5948640535789245 0.7179387043986288 0.7805680758476329 0.8075989774499884 0.8841002552439476 1.1897281071576777
          0.5948640535786351 0.717578643660155 0.7804960603420737 0.8076718906793998 0.8839316816649305 1.189728107157934
          0.5948640535789288 0.7176671649476478 0.7804992275236333 0.807833454689702 0.8838233050031831 1.1897281071575032
          0.5948640535789004 0.7176459519416408 0.7805401362373271 0.8080591976521182 0.8839771810440811 1.1897281071575552
          0.5948640535789568 0.7177099889036909 0.7806506893954868 0.8083527943930799 0.8837253054238605 1.189728107157339
          0.594864053578612 0.7178022643212143 0.7808154396061203 0.8086834865669037 0.8848707817601473 1.1897281071577264
          0.594864053578825 0.7179166754303882 0.7810490696784343 0.8091127783551585 0.8829893121282063 1.1897281071575943
          0.5948640535785295 0.7180149581696583 0.7812106000498962 0.8095185717127736 0.8876209185371252 1.1897281071569492
          0.5948640535784855 0.7180145422929948 0.7810492686175168 0.8086465508812718 0.8776125104784182 1.1897281071566312
          0.5948640535788629 0.7175025121843104 0.7812142514575835 0.8108631835065704 0.8867954358961568 1.189728107157629
          0.5948640535784873 0.7181750495696991 0.784476820099471 0.8109618938349281 0.8852215324843397 1.1897281071574557
          0.5948640535786598 0.7186698800621779 0.7849664299804567 0.8060112861772016 0.8828363900133203 1.1897281071570265
          0.5948640535784516 0.7152923110705849 0.7807915570744447 0.7955010812351051 0.8773969521419397 1.1897281071574501
        </DataArray>
        <DataArray type="Float64" Name="stream" format="ascii" RangeMin="-0.10356003091839536" RangeMax="0.013266697845882788">
          0.0022927009069144233 0 -0.0002039768121036463 0.013266697845882788 0.003334818270218449 -0.006997825727996429
          0.00023384223400756653 -0.012557471118092859 0.013221346841284832 0.0021663596958852653 -0.0017025418575917668 -0.023171606629487557
          -0.0023246449906696018 -0.027976795209432588 0.0021663596958852653 0.006543672926709627 -0.009481660599881696 -0.017745711606431097
          -0.02573174839026755 -0.04230192419448309 0.005809420737901937 -0.04951799572369799 -0.02398970237699296 0.001200893429413482
          -0.028035887307637945 -0.03851344953304844 -0.05502380569584989 -0.05544724631424243 -0.02563510718927797 -0.006484875769455238
          -0.019728537259119758 -0.03562400203785741 -0.05374278630572841 -0.052692618161389045 -0.02772320554914491 -0.011806341735707618
          -0.026139646151577118 -0.03909487356675344 -0.05570340226511402 -0.05447038048520912 -0.03124040148877387 -0.01635318881703414
          -0.03163215482810819 -0.04379792731180992 -0.05964096686518656 -0.05814040659580932 -0.035208713468575924 -0.020635020137590818
          -0.03696409804896533 -0.04874753439826526 -0.06400439972384735 -0.06218783971837923 -0.039288562850687526 -0.02485749042755312
          -0.04200301560509452 -0.05363597496877319 -0.06860495835632635 -0.06643206100829374 -0.043383557472136965 -0.02906989335246314
          -0.046694899546870804 -0.058389504402099904 -0.07330822974660617 -0.07075490687041303 -0.047488324912780766 -0.033286465655796675
          -0.05093028399638777 -0.06287327240355564 -0.07797736979934032 -0.07505916353126729 -0.051544736835799874 -0.037504089315776944
          -0.05479307268068837 -0.06713537088012178 -0.08264595908570853 -0.07941706261964808 -0.055683001769814555 -0.041738432274881714
          -0.05781963681998453 -0.07083010957383568 -0.08698094637751551 -0.08346621779405802 -0.05952097284886172 -0.045942619043524174
          -0.0600331206743851 -0.07386765171547581 -0.09096845285311714 -0.08732971779792413 -0.06365999384179784 -0.05023480029331698
          -0.055951335585485235 -0.0719412103305162 -0.09066180907031654 -0.08835756712871336 -0.06607313124698225 -0.05434560100895791
          -0.0576296431198319 -0.07302523778850654 -0.09199016500802565 -0.08971595236005424 -0.06973958453526005 -0.05891098632360786
          -0.07793181200856766 -0.08754676520538462 -0.10202968130164305 -0.09755203202240366 -0.07513648418821056 -0.06268253631569727
          -0.08506205111785395 -0.09197132142846798 -0.10356003091839536 -0.09857474607129263 -0.07849331684491445 -0.06643751143643474
          -0.07441936229461696 -0.07939059604331372 -0.08641566538195561 -0.08420521158557889 -0.07664636255143036 -0.07011356251660339
          -0.07011356251660339 -0.07196930339867814 -0.07308068922445533 -0.07369175892268721 -0.07417500668322315 -0.07011356251660339
        </DataArray>
      </PointData>
      <CellData>
        <DataArray type="UInt8" Name="vtkGhostType" format="ascii" RangeMin="0" RangeMax="0">
          0 0 0 0 0 0
          0 0 0 0 0 0
          0 0 0 0 0 0
          0 0 0 0 0 0
          0 0 0 0 0 0
          0 0 0 0 0 0
          0 0 0 0 0 0
          0 0 0 0 0 0
          0 0 0 0 0 0
          0 0 0 0 0 0
          0 0 0 0 0 0
          0 0 0 0 0 0
          0 0 0 0 0 0
          0 0 0 0 0 0
          0 0 0 0 0 0
          0 0 0 0 0 0
          0 0 0 0
        </DataArray>
      </CellData>
      <Points>
        <DataArray type="Float32" Name="Points" NumberOfComponents="3" format="ascii" RangeMin="0.10000000149011612" RangeMax="8.0156097709407">
          -0.5 0 0 -0.30000001192092896 0 0
          -0.10000000149011612 0 0 -0.5 0.4000000059604645 0
          -0.30000001192092896 0.4000000059604645 0 -0.10000000149011612 0.4000000059604645 0
          0.10000000149011612 0 0 0.10000000149011612 0.4000000059604645 0
          -0.5 0.800000011920929 0 0.30000001192092896 0 0
          -0.30000001192092896 0.800000011920929 0 -0.10000000149011612 0.800000011920929 0
          0.30000001192092896 0.4000000059604645 0 0.10000000149011612 0.800000011920929 0
          0.5 0 0 0.5 0.4000000059604645 0
          0.30000001192092896 0.800000011920929 0 -0.5 1.2000000476837158 0
          -0.30000001192092896 1.2000000476837158 0 -0.10000000149011612 1.2000000476837158 0
          0.5 0.800000011920929 0 0.10000000149011612 1.2000000476837158 0
          0.30000001192092896 1.2000000476837158 0 0.5 1.2000000476837158 0
          -0.5 1.600000023841858 0 -0.30000001192092896 1.600000023841858 0
          -0.10000000149011612 1.600000023841858 0 0.10000000149011612 1.600000023841858 0
          0.30000001192092896 1.600000023841858 0 0.5 1.600000023841858 0
          -0.5 2 0 -0.30000001192092896 2 0
          -0.10000000149011612 2 0 0.10000000149011612 2 0
          0.30000001192092896 2 0 0.5 2 0
          -0.5 2.4000000953674316 0 -0.30000001192092896 2.4000000953674316 0
          -0.10000000149011612 2.4000000953674316 0 0.10000000149011612 2.4000000953674316 0
          0.30000001192092896 2.4000000953674316 0 0.5 2.4000000953674316 0
          -0.5 2.799999952316284 0 -0.30000001192092896 2.799999952316284 0
          -0.10000000149011612 2.799999952316284 0 0.10000000149011612 2.799999952316284 0
          0.30000001192092896 2.799999952316284 0 0.5 2.799999952316284 0
          -0.5 3.200000047683716 0 -0.30000001192092896 3.200000047683716 0
          -0.10000000149011612 3.200000047683716 0 0.10000000149011612 3.200000047683716 0
          0.30000001192092896 3.200000047683716 0 0.5 3.200000047683716 0
          -0.5 3.5999999046325684 0 -0.30000001192092896 3.5999999046325684 0
          -0.10000000149011612 3.5999999046325684 0 0.10000000149011612 3.5999999046325684 0
          0.30000001192092896 3.5999999046325684 0 0.5 3.5999999046325684 0
          -0.5 4 0 -0.30000001192092896 4 0
          -0.10000000149011612 4 0 0.10000000149011612 4 0
          0.30000001192092896 4 0 0.5 4 0
          -0.5 4.400000095367432 0 -0.30000001192092896 4.400000095367432 0
          -0.10000000149011612 4.400000095367432 0 0.10000000149011612 4.400000095367432 0
          0.30000001192092896 4.400000095367432 0 0.5 4.400000095367432 0
          -0.5 4.800000190734863 0 -0.30000001192092896 4.800000190734863 0
          -0.10000000149011612 4.800000190734863 0 0.10000000149011612 4.800000190734863 0
          0.30000001192092896 4.800000190734863 0 0.5 4.800000190734863 0
          -0.5 5.199999809265137 0 -0.30000001192092896 5.199999809265137 0
          -0.10000000149011612 5.199999809265137 0 0.10000000149011612 5.199999809265137 0
          0.30000001192092896 5.199999809265137 0 0.5 5.199999809265137 0
          -0.5 5.599999904632568 0 -0.30000001192092896 5.599999904632568 0
          -0.10000000149011612 5.599999904632568 0 0.10000000149011612 5.599999904632568 0
          0.30000001192092896 5.599999904632568 0 0.5 5.599999904632568 0
          -0.5 6 0 -0.30000001192092896 6 0
          -0.10000000149011612 6 0 0.10000000149011612 6 0
          0.30000001192092896 6 0 0.5 6 0
          -0.5 6.400000095367432 0 -0.30000001192092896 6.400000095367432 0
          -0.10000000149011612 6.400000095367432 0 0.10000000149011612 6.400000095367432 0
          0.30000001192092896 6.400000095367432 0 0.5 6.400000095367432 0
          -0.5 6.800000190734863 0 -0.30000001192092896 6.800000190734863 0
          -0.10000000149011612 6.800000190734863 0 0.10000000149011612 6.800000190734863 0
          0.30000001192092896 6.800000190734863 0 0.5 6.800000190734863 0
          -0.5 7.199999809265137 0 -0.30000001192092896 7.199999809265137 0
          -0.10000000149011612 7.199999809265137 0 0.10000000149011612 7.199999809265137 0
          0.30000001192092896 7.199999809265137 0 0.5 7.199999809265137 0
          -0.5 7.599999904632568 0 -0.30000001192092896 7.599999904632568 0
          -0.10000000149011612 7.599999904632568 0 0.10000000149011612 7.599999904632568 0
          0.30000001192092896 7.599999904632568 0 0.5 7.599999904632568 0
          -0.5 8 0 -0.30000001192092896 8 0
          -0.10000000149011612 8 0 0.10000000149011612 8 0
          0.30000001192092896 8 0 0.5 8 0
          <InformationKey name="L2_NORM_RANGE" location="vtkDataArray" length="2">
            <Value index="0">
              0.10000000149
            </Value>
            <Value index="1">
              8.0156097709
            </Value>
          </InformationKey>
        </DataArray>
      </Points>
      <Cells>
        <DataArray type="Int64" Name="connectivity" format="ascii" RangeMin="0" RangeMax="125">
          15 12 9 14 20 16
          12 15 23 22 16 20
          29 28 22 23 35 34
          28 29 41 40 34 35
          47 46 40 41 53 52
          46 47 59 58 52 53
          65 64 58 59 71 70
          64 65 77 76 70 71
          83 82 76 77 89 88
          82 83 95 94 88 89
          101 100 94 95 107 106
          100 101 113 112 106 107
          119 118 112 113 125 124
          118 119 12 7 6 9
          16 13 7 12 22 21
          13 16 28 27 21 22
          34 33 27 28 40 39
          33 34 46 45 39 40
          52 51 45 46 58 57
          51 52 64 63 57 58
          70 69 63 64 76 75
          69 70 82 81 75 76
          88 87 81 82 94 93
          87 88 100 99 93 94
          106 105 99 100 112 111
          105 106 118 117 111 112
          124 123 117 118 7 5
          2 6 13 11 5 7
          21 19 11 13 27 26
          19 21 33 32 26 27
          39 38 32 33 45 44
          38 39 51 50 44 45
          57 56 50 51 63 62
          56 57 69 68 62 63
          75 74 68 69 81 80
          74 75 87 86 80 81
          93 92 86 87 99 98
          92 93 105 104 98 99
          111 110 104 105 117 116
          110 111 123 122 116 117
          5 4 1 2 11 10
          4 5 19 18 10 11
          26 25 18 19 32 31
          25 26 38 37 31 32
          44 43 37 38 50 49
          43 44 56 55 49 50
          62 61 55 56 68 67
          61 62 74 73 67 68
          80 79 73 74 86 85
          79 80 92 91 85 86
          98 97 91 92 104 103
          97 98 110 109 103 104
          116 115 109 110 122 121
          115 116 4 3 0 1
          10 8 3 4 18 17
          8 10 25 24 17 18
          31 30 24 25 37 36
          30 31 43 42 36 37
          49 48 42 43 55 54
          48 49 61 60 54 55
          67 66 60 61 73 72
          66 67 79 78 72 73
          85 84 78 79 91 90
          84 85 97 96 90 91
          103 102 96 97 109 108
          102 103 115 114 108 109
          121 120 114 115
        </DataArray>
        <DataArray type="Int64" Name="offsets" format="ascii" RangeMin="4" RangeMax="400">
          4 8 12 16 20 24
          28 32 36 40 44 48
          52 56 60 64 68 72
          76 80 84 88 92 96
          100 104 108 112 116 120
          124 128 132 136 140 144
          148 152 156 160 164 168
          172 176 180 184 188 192
          196 200 204 208 212 216
          220 224 228 232 236 240
          244 248 252 256 260 264
          268 272 276 280 284 288
          292 296 300 304 308 312
          316 320 324 328 332 336
          340 344 348 352 356 360
          364 368 372 376 380 384
          388 392 396 400
        </DataArray>
        <DataArray type="UInt8" Name="types" format="ascii" RangeMin="9" RangeMax="9">
          9 9 9 9 9 9
          9 9 9 9 9 9
          9 9 9 9 9 9
          9 9 9 9 9 9
          9 9 9 9 9 9
          9 9 9 9 9 9
          9 9 9 9 9 9
          9 9 9 9 9 9
          9 9 9 9 9 9
          9 9 9 9 9 9
          9 9 9 9 9 9
          9 9 9 9 9 9
          9 9 9 9 9 9
          9 9 9 9 9 9
          9 9 9 9 9 9
          9 9 9 9 9 9
          9 9 9 9
        </DataArray>
      </Cells>
    </Piece>
  </UnstructuredGrid>
</VTKFile>
