<?xml version="1.0"?>
<VTKFile type="UnstructuredGrid" version="0.1" byte_order="LittleEndian" header_type="UInt32" compressor="vtkZLibDataCompressor">
  <UnstructuredGrid>
    <Piece NumberOfPoints="126" NumberOfCells="100">
      <PointData>
        <DataArray type="Float64" Name="Velocity" NumberOfComponents="3" format="ascii" RangeMin="0" RangeMax="0.3493073212140617">
          0 0 0 0 0 0
          0 0 0 0 0 0
          -0.07587171186613025 0.014229493142678212 0 -0.0726512300976109 -0.06266811654706933 0
          0 0 0 -0.10402639290475495 0.20371884617161728 0
          0 0 0 0 0 0
          -0.03978320561320048 0.2116956139445914 0 -0.018044884153467 0.023022869640708606 0
          -0.04534010423213557 -0.16390054926208134 0 0.019088296219226343 0.08574812250686022 0
          0 0 0 0 0 0
          0.05052608872684122 -0.32393432238538344 0 0 0 0
          -0.03941821418465225 0.18325663318180874 0 -0.0032061154891791163 0.04204395913960811 0
          0 0 0 0.0029669336297960328 -0.05866820353903413 0
          0.05261109295701922 -0.27857538669179216 0 0 0 0
          0 0 0 -0.030523253488953645 0.2114906624577088 0
          0.0133393596257216 -0.025308213483016616 0 0.03144475839233713 -0.012139622109506212 0
          0.05163376553349859 -0.28456982085594595 0 0 0 0
          0 0 0 -0.03265794486573394 0.19579810242023948 0
          0.002176674829118777 -0.023898849050775113 0 0.019921845971584598 -0.017010652634238906 0
          0.051788294522416664 -0.2783017318020224 0 0 0 0
          0 0 0 -0.03282612043603057 0.20109808389328207 0
          0.0038137096754411 -0.021651865401414658 0 0.02087799620109091 -0.02521516183218317 0
          0.05105469627819802 -0.2775896114886467 0 0 0 0
          0 0 0 -0.03242213820108269 0.2011727662413288 0
          0.0034308103718549907 -0.021478740412939352 0 0.020205535182555762 -0.03309903776262568 0
          0.05097630524833193 -0.2782070079161238 0 0 0 0
          0 0 0 -0.032609685080931906 0.2021924955726742 0
          0.0034852244340690883 -0.020178439415856418 0 0.020155450479618465 -0.03937578659339443 0
          0.05091956018755722 -0.2794508563387423 0 0 0 0
          0 0 0 -0.032414174037417795 0.20317820972002815 0
          0.0037385214934493875 -0.019644509754359215 0 0.02016156768677013 -0.04343628731238041 0
          0.05093077043629628 -0.28086905668627665 0 0 0 0
          0 0 0 -0.03241432015789216 0.20354627751195162 0
          0.00392359655628463 -0.019207338002436018 0 0.020205917185767253 -0.045496521407285724 0
          0.051014381311402235 -0.2823991302823352 0 0 0 0
          0 0 0 -0.032365003304568145 0.20377408813863243 0
          0.0041374633894973025 -0.01916460196346973 0 0.020142774360769725 -0.0457191302261842 0
          0.0508984934161725 -0.2839042901156334 0 0 0 0
          0 0 0 -0.03235833029615726 0.20349383440374225 0
          0.004398642437425049 -0.01952465003667477 0 0.020450470037446947 -0.04451882552880397 0
          0.05143733077777365 -0.28600953436366217 0 0 0 0
          0 0 0 -0.0324027751613093 0.2028514020850612 0
          0.004430831530657854 -0.02021372788870006 0 0.01990523727443392 -0.041632819720713754 0
          0.05018702581039956 -0.2870237806307477 0 0 0 0
          0 0 0 -0.032619609637956334 0.20189417109275123 0
          0.004656475861118128 -0.02197989636437606 0 0.020806507377624316 -0.039006549174606026 0
          0.05279138375700222 -0.2942146729010276 0 0 0 0
          0 0 0 -0.03348852828008433 0.20206426549148096 0
          0.0029089378381055332 -0.027801861043398372 0 0.020120848794455026 -0.04004184416434283 0
          0.04693540700036335 -0.29123143540006297 0 0 0 0
          0 0 0 -0.03257935764645235 0.20385666217459825 0
          0.00282807998141308 -0.0393617281978555 0 0.01095515074592672 -0.06697389091508427 0
          0.04995521806785697 -0.3457167639000697 0 0 0 0
          0 0 0 -0.032452771577678265 0.20894275345134655 0
          0.018984436169665837 -0.044507353854720606 0 0.04867651686936429 -0.0706030957607893 0
          0.0611400849516056 -0.2729225790033731 0 0 0 0
          0 0 0 -0.03424807998641327 0.24327627350356715 0
          0.02215697626388356 -0.06306426149742624 0 0.029242589238919765 -0.062481883824383216 0
          0.05145473850412208 -0.2709743696026007 0 0 0 0
          0 0 0 0.07648101174188367 0.1509926205994544 0
          0.12614821471272006 -0.0967659216574209 0 0.10578099527050287 -0.01431912990567593 0
          0.08915456025849762 -0.03728904091499555 0 0 0 0
          0 0 0 0 0 0
          0 0 0 0 0 0
          0 0 0 0 0 0
          <InformationKey name="L2_NORM_RANGE" location="vtkDataArray" length="2">
            <Value index="0">
              0
            </Value>
            <Value index="1">
              0.34930732121
            </Value>
          </InformationKey>
        </DataArray>
        <DataArray type="Float64" Name="Pressure" format="ascii" RangeMin="-21.330258771470525" RangeMax="21.530122325247007">
          20.992578770356076 21.060886340841293 21.136964170253748 18.86638600173532 18.869240094611655 18.890716643302838
          21.211419351963556 18.92078422827771 16.64773962419808 21.375716347336038 16.652286293212896 16.670068338062805
          18.938480754291106 16.675627769344118 21.530122325247007 18.92799307688098 16.664530216290828 14.475930982321273
          14.470133328955285 14.481154975069614 16.67312722988929 14.49036117339405 14.493448831179819 14.500042876218217
          12.352690167837693 12.354141096501536 12.361935109661573 12.364696869435093 12.36027261249842 12.367135853840082
          10.268675139887876 10.267026968955662 10.273822258137685 10.275841695691028 10.271690437649184 10.27910363937987
          8.215042472796597 8.213606804587997 8.220466418841056 8.222814994448811 8.219107493355537 8.227082012856869
          6.191648404697787 6.190003535660196 6.196354963300422 6.1983774036293084 6.194600608297449 6.202932777084541
          4.187271738442632 4.185536829159844 4.191725371580631 4.193549382252158 4.189623026103504 4.19822446024024
          2.19370953189717 2.19194820616444 2.197882812678415 2.1994646335071764 2.19541661170085 2.2042007489467323
          0.20144201886725455 0.19970989335853062 0.20554933819708765 0.20700833746933256 0.20285026853534305 0.21167449018616935
          -1.7983905816591061 -1.8000221294998937 -1.7941707912650742 -1.792710030047573 -1.7967735521452255 -1.7879041719334765
          -3.8142646479224993 -3.81572254983881 -3.8097064148591073 -3.8081158504450343 -3.812288288382888 -3.8036542284452537
          -5.85393061372379 -5.855125788876052 -5.848787155912461 -5.846818392204199 -5.8502845521844336 -5.841742139797432
          -7.92419777665792 -7.925036626177928 -7.918115440664039 -7.915812650640888 -7.9201526240692175 -7.912070083741369
          -10.030949481216311 -10.031352437727605 -10.023792863661342 -10.020212208541977 -10.02139293566563 -10.014201896820381
          -12.177145207615354 -12.178592200195737 -12.171570793574034 -12.170295353047138 -12.177926423240294 -12.172929231184042
          -14.364283928809186 -14.361145965182047 -14.357014587734696 -14.358890338093431 -14.365451604313932 -14.353334579402741
          -16.586901662602315 -16.59032387601782 -16.57153007761835 -16.56049438125342 -16.56733747985993 -16.573981749867883
          -18.823732201214995 -18.817182127994784 -18.814792439298074 -18.821033832396665 -18.830846758430653 -18.824466595821747
          -20.8952593173984 -20.96560384846505 -21.059868958656622 -21.115663920654853 -21.19941907291654 -21.330258771470525
        </DataArray>
        <DataArray type="Float64" Name="Temperature" format="ascii" RangeMin="300.0000001829841" RangeMax="600.000000366513">
          600.0000003664614 474.8242374358036 447.9979404900366 600.0000003664113 475.87609797930355 454.03535977874446
          459.2530026202698 450.1698297250031 600.0000003664056 411.23377867550323 481.7133129653814 459.27701913251474
          422.7010953338992 448.52133633754556 300.0000001832416 300.000000183118 427.74283331841144 600.0000003663652
          481.7753724580261 455.0654349048256 300.0000001830736 447.13614541544155 429.4610962352014 300.00000018311505
          600.000000366341 485.51509861425586 453.20367707436003 448.079041694777 429.7689654948249 300.0000001831511
          600.0000003664032 482.44018752729636 454.3013098841524 448.0991283331805 430.20975795620535 300.000000183179
          600.0000003662973 485.60130107101554 454.51594526181117 448.1998262514076 430.72326273772507 300.000000183076
          600.0000003663516 484.92620178504114 454.9820334712695 448.1730452786045 431.0762657938767 300.00000018325755
          600.000000366513 486.00117738008055 455.24254280347543 448.15004856139717 431.3036070498073 300.0000001831951
          600.0000003662786 486.00091451154873 455.4102510351259 448.097621794993 431.4052696488282 300.0000001832411
          600.0000003665044 486.18608799763996 455.46555887802043 448.0235803098636 431.33233274222493 300.00000018317394
          600.0000003664628 486.0319553140668 455.3953585132239 447.91742725035346 431.2489103164952 300.0000001831736
          600.0000003664892 485.7342977003977 455.21490685038845 447.7902894695336 430.6881991846675 300.0000001831389
          600.0000003662396 485.23578873936884 454.9180003644779 447.62190288112123 430.84347680155076 300.0000001831969
          600.0000003663994 484.55809417238777 454.51778967757394 447.43074663913166 428.93235745184097 300.0000001831871
          600.000000366137 483.72146297124004 453.9033356115243 447.1743317420398 430.8936305384463 300.0000001830982
          600.0000003661778 482.75559822726535 452.84529099158743 445.760088981908 424.1243880083877 300.0000001829841
          600.0000003663665 481.7530922507785 452.1529388182465 446.27687532277747 429.9610479641067 300.00000018319463
          600.0000003661846 481.6436585512479 450.656690598098 445.4329562216693 426.99100708319315 300.00000018317024
          600.0000003662841 474.3599693137493 448.3764986892839 444.8377723759647 429.66178991161746 300.000000183076
          600.0000003661504 489.6504952508596 445.4656399801753 447.4928639312807 436.8057052652273 300.0000001831447
        </DataArray>
        <DataArray type="Float64" Name="Density" format="ascii" RangeMin="0.6014473112543499" RangeMax="1.202894622509792">
          0.6014473112544015 0.7600041415784672 0.8055134953931196 0.6014473112544518 0.7583242539505374 0.7948023853228141
          0.7857725151803302 0.8016272152078543 0.6014473112544575 0.877526131572481 0.7491351749271297 0.7857314255667714
          0.8537200186055628 0.8045735124214202 1.2028946225087596 1.2028946225092552 0.8436573540541777 0.6014473112544981
          0.7490386757045957 0.7930032898423098 1.202894622509433 0.8070660148437775 0.8402819024506302 1.202894622509267
          0.6014473112545222 0.7432691341691103 0.7962609423264635 0.8053676994311753 0.8396799581783521 1.2028946225091224
          0.6014473112544599 0.7480064810161163 0.794337104299942 0.8053315977546991 0.8388196229844326 1.2028946225090105
          0.6014473112545661 0.7431371913072241 0.7939619956901184 0.8051506623535083 0.8378195890310834 1.2028946225094235
          0.6014473112545117 0.7441717639605181 0.793148652969471 0.8051987748364389 0.8371335088663892 1.2028946225086956
          0.6014473112543499 0.7425257463745373 0.792694779250524 0.8052400934273439 0.8366922536109809 1.202894622508946
          0.6014473112545848 0.7425261479924087 0.7924028634682936 0.8053343053406058 0.8364950833048508 1.2028946225087613
          0.6014473112543585 0.7422433423779907 0.7923066408401989 0.8054673968800106 0.8366365319260965 1.202894622509031
          0.6014473112544002 0.7424787259921218 0.7924287769449656 0.8056582865916241 0.8367983740717293 1.2028946225090322
          0.6014473112543738 0.7429337163990689 0.7927429034999763 0.8058870311827087 0.8378877983102517 1.2028946225091712
          0.6014473112546239 0.7436969723741437 0.7932602945672018 0.8061901900919426 0.8375858203819724 1.2028946225089387
          0.6014473112544638 0.7447370940927149 0.793958773822783 0.8065346194549768 0.8413177059358717 1.2028946225089778
          0.6014473112547268 0.746025170676588 0.7950335647718161 0.8069970956678733 0.837488329827725 1.2028946225093344
          0.6014473112546859 0.7475177673717277 0.7968911108313856 0.8095574186492382 0.8508550726536185 1.202894622509792
          0.6014473112544967 0.7490733173855721 0.7981113379827167 0.8086199552957878 0.8393048362910625 1.2028946225089479
          0.6014473112546791 0.7492435134690993 0.8007611880656083 0.810151969971127 0.8451428273353263 1.2028946225090456
          0.6014473112545793 0.760747976890023 0.8048334112692265 0.811235936745165 0.8398894094056624 1.2028946225094235
          0.6014473112547134 0.7369917736694348 0.8100925292220249 0.8064226629286875 0.8261530987877777 1.202894622509148
        </DataArray>
        <DataArray type="Float64" Name="stream" format="ascii" RangeMin="-0.0402673046013437" RangeMax="0.0896710694560324">
          -0.006875696529479114 0 0.0005249707483419063 -0.00036475533951151745 -0.0053382127264061194 -0.011654037109667349
          -0.0008447298115363596 -0.0189030930996729 0.0079982867980317 -0.004087772844702116 -0.012324709493926445 -0.032473739334597414
          -0.017554465084465995 -0.0402673046013437 -0.004087772844702116 -0.0026260915014799883 -0.021134785223853956 0.0165466949109471
          -0.0055842520170167834 -0.028915742770297428 0.004316277756602201 -0.02627612801584799 -0.0036967075129793895 0.014238554456401015
          0.014585506292843428 -0.0062644324339589715 -0.025535325782229834 -0.02280968474763756 -0.0021564541608554725 0.023734940193280256
          0.00188567045836051 -0.014854069135709538 -0.03144508123740235 -0.027610390261859012 -0.0006575065513650946 0.029390737902592647
          0.0061785947915391284 -0.014175584874202927 -0.03192037300597143 -0.027111618526242928 0.002613705518038012 0.03396056661635011
          0.009228110953607998 -0.011747085472482958 -0.02997706243826083 -0.024528959940520685 0.006402921741378909 0.038180576616001674
          0.012490479015974632 -0.00875839033595743 -0.027363123830502524 -0.021448823474948045 0.010326163785082616 0.042317227577609
          0.015942630456408653 -0.005489960411635054 -0.024310042596598417 -0.018072143306009602 0.014269219944152632 0.046433704577826994
          0.01963469728616333 -0.0019205917539921375 -0.020875505417901178 -0.01447812398669214 0.018232346409582698 0.05054981926385171
          0.023449449682497507 0.001828089563263166 -0.01717594600674288 -0.010762614671303277 0.022139719874409908 0.05466370203955403
          0.027473908885255548 0.005818365875280874 -0.013148987613578281 -0.006815788226151703 0.02616761427539032 0.05879973606705686
          0.030916539665451354 0.009465135803426838 -0.009321153336262787 -0.0031703642225786805 0.029792520659996952 0.06289851796431759
          0.033980629705367235 0.012759728693896305 -0.005611138377356669 0.0005732280039060318 0.03396273462429022 0.0671263059391332
          0.028593762640739324 0.009433611725514362 -0.007542407675920081 0.0004892285281166996 0.03577125760146818 0.07110253853329232
          0.030701253991675927 0.00991615364500165 -0.007548614685305602 0.0017357846669392761 0.040144809667516435 0.07575716865124905
          0.04426108693247326 0.019229245217446907 -0.000293086866200205 0.010407727530482073 0.04628083771728041 0.07923190853137335
          0.06625250355608933 0.03311137061528592 0.015015184562526087 0.03020207017218361 0.059147194025212596 0.08339824124070153
          0.08461005863140454 0.0624733515980815 0.05571240795917883 0.06575350967064204 0.0762130564625301 0.08529817039783516
          0.08529817039783516 0.0815338621721467 0.08312011064977902 0.0861039395612889 0.0896710694560324 0.08529817039783516
        </DataArray>
      </PointData>
      <CellData>
        <DataArray type="UInt8" Name="vtkGhostType" format="ascii" RangeMin="0" RangeMax="0">
          0 0 0 0 0 0
          0 0 0 0 0 0
          0 0 0 0 0 0
          0 0 0 0 0 0
          0 0 0 0 0 0
          0 0 0 0 0 0
          0 0 0 0 0 0
          0 0 0 0 0 0
          0 0 0 0 0 0
          0 0 0 0 0 0
          0 0 0 0 0 0
          0 0 0 0 0 0
          0 0 0 0 0 0
          0 0 0 0 0 0
          0 0 0 0 0 0
          0 0 0 0 0 0
          0 0 0 0
        </DataArray>
      </CellData>
      <Points>
        <DataArray type="Float32" Name="Points" NumberOfComponents="3" format="ascii" RangeMin="0.10000000149011612" RangeMax="8.0156097709407">
          -0.5 0 0 -0.30000001192092896 0 0
          -0.10000000149011612 0 0 -0.5 0.4000000059604645 0
          -0.30000001192092896 0.4000000059604645 0 -0.10000000149011612 0.4000000059604645 0
          0.10000000149011612 0 0 0.10000000149011612 0.4000000059604645 0
          -0.5 0.800000011920929 0 0.30000001192092896 0 0
          -0.30000001192092896 0.800000011920929 0 -0.10000000149011612 0.800000011920929 0
          0.30000001192092896 0.4000000059604645 0 0.10000000149011612 0.800000011920929 0
          0.5 0 0 0.5 0.4000000059604645 0
          0.30000001192092896 0.800000011920929 0 -0.5 1.2000000476837158 0
          -0.30000001192092896 1.2000000476837158 0 -0.10000000149011612 1.2000000476837158 0
          0.5 0.800000011920929 0 0.10000000149011612 1.2000000476837158 0
          0.30000001192092896 1.2000000476837158 0 0.5 1.2000000476837158 0
          -0.5 1.600000023841858 0 -0.30000001192092896 1.600000023841858 0
          -0.10000000149011612 1.600000023841858 0 0.10000000149011612 1.600000023841858 0
          0.30000001192092896 1.600000023841858 0 0.5 1.600000023841858 0
          -0.5 2 0 -0.30000001192092896 2 0
          -0.10000000149011612 2 0 0.10000000149011612 2 0
          0.30000001192092896 2 0 0.5 2 0
          -0.5 2.4000000953674316 0 -0.30000001192092896 2.4000000953674316 0
          -0.10000000149011612 2.4000000953674316 0 0.10000000149011612 2.4000000953674316 0
          0.30000001192092896 2.4000000953674316 0 0.5 2.4000000953674316 0
          -0.5 2.799999952316284 0 -0.30000001192092896 2.799999952316284 0
          -0.10000000149011612 2.799999952316284 0 0.10000000149011612 2.799999952316284 0
          0.30000001192092896 2.799999952316284 0 0.5 2.799999952316284 0
          -0.5 3.200000047683716 0 -0.30000001192092896 3.200000047683716 0
          -0.10000000149011612 3.200000047683716 0 0.10000000149011612 3.200000047683716 0
          0.30000001192092896 3.200000047683716 0 0.5 3.200000047683716 0
          -0.5 3.5999999046325684 0 -0.30000001192092896 3.5999999046325684 0
          -0.10000000149011612 3.5999999046325684 0 0.10000000149011612 3.5999999046325684 0
          0.30000001192092896 3.5999999046325684 0 0.5 3.5999999046325684 0
          -0.5 4 0 -0.30000001192092896 4 0
          -0.10000000149011612 4 0 0.10000000149011612 4 0
          0.30000001192092896 4 0 0.5 4 0
          -0.5 4.400000095367432 0 -0.30000001192092896 4.400000095367432 0
          -0.10000000149011612 4.400000095367432 0 0.10000000149011612 4.400000095367432 0
          0.30000001192092896 4.400000095367432 0 0.5 4.400000095367432 0
          -0.5 4.800000190734863 0 -0.30000001192092896 4.800000190734863 0
          -0.10000000149011612 4.800000190734863 0 0.10000000149011612 4.800000190734863 0
          0.30000001192092896 4.800000190734863 0 0.5 4.800000190734863 0
          -0.5 5.199999809265137 0 -0.30000001192092896 5.199999809265137 0
          -0.10000000149011612 5.199999809265137 0 0.10000000149011612 5.199999809265137 0
          0.30000001192092896 5.199999809265137 0 0.5 5.199999809265137 0
          -0.5 5.599999904632568 0 -0.30000001192092896 5.599999904632568 0
          -0.10000000149011612 5.599999904632568 0 0.10000000149011612 5.599999904632568 0
          0.30000001192092896 5.599999904632568 0 0.5 5.599999904632568 0
          -0.5 6 0 -0.30000001192092896 6 0
          -0.10000000149011612 6 0 0.10000000149011612 6 0
          0.30000001192092896 6 0 0.5 6 0
          -0.5 6.400000095367432 0 -0.30000001192092896 6.400000095367432 0
          -0.10000000149011612 6.400000095367432 0 0.10000000149011612 6.400000095367432 0
          0.30000001192092896 6.400000095367432 0 0.5 6.400000095367432 0
          -0.5 6.800000190734863 0 -0.30000001192092896 6.800000190734863 0
          -0.10000000149011612 6.800000190734863 0 0.10000000149011612 6.800000190734863 0
          0.30000001192092896 6.800000190734863 0 0.5 6.800000190734863 0
          -0.5 7.199999809265137 0 -0.30000001192092896 7.199999809265137 0
          -0.10000000149011612 7.199999809265137 0 0.10000000149011612 7.199999809265137 0
          0.30000001192092896 7.199999809265137 0 0.5 7.199999809265137 0
          -0.5 7.599999904632568 0 -0.30000001192092896 7.599999904632568 0
          -0.10000000149011612 7.599999904632568 0 0.10000000149011612 7.599999904632568 0
          0.30000001192092896 7.599999904632568 0 0.5 7.599999904632568 0
          -0.5 8 0 -0.30000001192092896 8 0
          -0.10000000149011612 8 0 0.10000000149011612 8 0
          0.30000001192092896 8 0 0.5 8 0
          <InformationKey name="L2_NORM_RANGE" location="vtkDataArray" length="2">
            <Value index="0">
              0.10000000149
            </Value>
            <Value index="1">
              8.0156097709
            </Value>
          </InformationKey>
        </DataArray>
      </Points>
      <Cells>
        <DataArray type="Int64" Name="connectivity" format="ascii" RangeMin="0" RangeMax="125">
          15 12 9 14 20 16
          12 15 23 22 16 20
          29 28 22 23 35 34
          28 29 41 40 34 35
          47 46 40 41 53 52
          46 47 59 58 52 53
          65 64 58 59 71 70
          64 65 77 76 70 71
          83 82 76 77 89 88
          82 83 95 94 88 89
          101 100 94 95 107 106
          100 101 113 112 106 107
          119 118 112 113 125 124
          118 119 12 7 6 9
          16 13 7 12 22 21
          13 16 28 27 21 22
          34 33 27 28 40 39
          33 34 46 45 39 40
          52 51 45 46 58 57
          51 52 64 63 57 58
          70 69 63 64 76 75
          69 70 82 81 75 76
          88 87 81 82 94 93
          87 88 100 99 93 94
          106 105 99 100 112 111
          105 106 118 117 111 112
          124 123 117 118 7 5
          2 6 13 11 5 7
          21 19 11 13 27 26
          19 21 33 32 26 27
          39 38 32 33 45 44
          38 39 51 50 44 45
          57 56 50 51 63 62
          56 57 69 68 62 63
          75 74 68 69 81 80
          74 75 87 86 80 81
          93 92 86 87 99 98
          92 93 105 104 98 99
          111 110 104 105 117 116
          110 111 123 122 116 117
          5 4 1 2 11 10
          4 5 19 18 10 11
          26 25 18 19 32 31
          25 26 38 37 31 32
          44 43 37 38 50 49
          43 44 56 55 49 50
          62 61 55 56 68 67
          61 62 74 73 67 68
          80 79 73 74 86 85
          79 80 92 91 85 86
          98 97 91 92 104 103
          97 98 110 109 103 104
          116 115 109 110 122 121
          115 116 4 3 0 1
          10 8 3 4 18 17
          8 10 25 24 17 18
          31 30 24 25 37 36
          30 31 43 42 36 37
          49 48 42 43 55 54
          48 49 61 60 54 55
          67 66 60 61 73 72
          66 67 79 78 72 73
          85 84 78 79 91 90
          84 85 97 96 90 91
          103 102 96 97 109 108
          102 103 115 114 108 109
          121 120 114 115
        </DataArray>
        <DataArray type="Int64" Name="offsets" format="ascii" RangeMin="4" RangeMax="400">
          4 8 12 16 20 24
          28 32 36 40 44 48
          52 56 60 64 68 72
          76 80 84 88 92 96
          100 104 108 112 116 120
          124 128 132 136 140 144
          148 152 156 160 164 168
          172 176 180 184 188 192
          196 200 204 208 212 216
          220 224 228 232 236 240
          244 248 252 256 260 264
          268 272 276 280 284 288
          292 296 300 304 308 312
          316 320 324 328 332 336
          340 344 348 352 356 360
          364 368 372 376 380 384
          388 392 396 400
        </DataArray>
        <DataArray type="UInt8" Name="types" format="ascii" RangeMin="9" RangeMax="9">
          9 9 9 9 9 9
          9 9 9 9 9 9
          9 9 9 9 9 9
          9 9 9 9 9 9
          9 9 9 9 9 9
          9 9 9 9 9 9
          9 9 9 9 9 9
          9 9 9 9 9 9
          9 9 9 9 9 9
          9 9 9 9 9 9
          9 9 9 9 9 9
          9 9 9 9 9 9
          9 9 9 9 9 9
          9 9 9 9 9 9
          9 9 9 9 9 9
          9 9 9 9 9 9
          9 9 9 9
        </DataArray>
      </Cells>
    </Piece>
  </UnstructuredGrid>
</VTKFile>
