<?xml version="1.0"?>
<VTKFile type="UnstructuredGrid" version="0.1" byte_order="LittleEndian" header_type="UInt32" compressor="vtkZLibDataCompressor">
  <UnstructuredGrid>
    <Piece NumberOfPoints="65" NumberOfCells="101">
      <PointData>
        <DataArray type="Float64" Name="Velocity" NumberOfComponents="3" format="ascii" RangeMin="0" RangeMax="1.604119444893082">
          -0.01023339165944541 -0.000280369741194466 0 -0.001587766429335009 0.014410404341673566 0
          0.01674652930387884 0.0028747073593822317 0 0.0045346396710613975 0.006876304433712909 0
          0.009693332966568777 -0.0014647322430395564 0 0.00013249962755650715 0.014150089063563043 0
          0.015461473933809044 -0.00023383047382625707 0 0.0055558982539403974 0.0009011890602631216 0
          0.002157948071423674 0.00924242005799475 0 0.002580287308083025 -0.007155812216940437 0
          -0.0020029492942532936 0.015562652943463927 0 -0.0124934169942636 -0.0022132649632137097 0
          -0.0013635609576115786 -0.01542461107266847 0 0.005361452978742021 0.0007097633133786529 0
          0.003321390048421885 -0.0065875924956210336 0 0.005934978297379395 0.011557418988220516 0
          -0.0006680326094426907 -0.012912967857671175 0 0.0009626935415792214 0.03175167410161192 0
          0.00762994691909652 0.0019173061500928927 0 -0.0006381598688750468 -0.01572011906800857 0
          0.006195601815272229 -0.0128200388303234 0 0.020524376990350722 0.031012030698299095 0
          -0.031131519416337874 0.01139100481122885 0 -0.0007480188433394291 -0.03161610566381694 0
          0.02144199758714077 -0.02628413219893364 0 0.0403133168458274 -0.004549928511673912 0
          0.04263745381876332 0.0027326319638737474 0 -0.02751345035564568 -0.01310357385956405 0
          0.046133122596704615 -0.01028472816592986 0 0.027598466588368877 0.17872572980421567 0
          0.01154851970561789 0.017924980327500742 0 0.16841474792864441 0.18828510499996878 0
          -0.000788803472197455 -0.17764947759858 0 0.18953359130126024 -0.18072505633229397 0
          0.13328206158752792 -0.014367916564274604 0 -0.24137610758649974 -0.046034081661493025 0
          0.24860222987558533 0.09838276812759923 0 0.25693876967709506 -0.005217800764152492 0
          0.23764905900432381 -0.07952175121320022 0 0.33263771550833576 -0.057825125357219065 0
          -0.23043071492697395 0.06521550211476655 0 0.24332755310779405 0.45994308429990266 0
          0.3075775554371074 0.03922855081936714 0 0.5964102154064406 0.06132099665637661 0
          0 0 0 0 0 0
          0.6051488180221237 1.451004284934296 0 0.12493846571675093 -0.42359402276401115 0
          0.627792024845821 -0.17582501322251715 0 0 0 0
          0.7487298128836601 0.39128544273710847 0 0 0 0
          0.9494142888943657 0.8063453907808205 0 0 0 0
          0.5538323285474225 -0.6287037055293655 0 0.8044863008140932 -0.4083816524638847 0
          0.7629914764425594 0.45574585828216174 0 0.6768906505036599 -1.4543102285086293 0
          0.766192273259579 0.06049857172666079 0 0.7612931456770007 -0.35121557593308694 0
          0.9784286707035692 -0.595597564404221 0 1 0 0
          1 0 0 1.0000000000000002 0 0
          1 0 0
          <InformationKey name="L2_NORM_RANGE" location="vtkDataArray" length="2">
            <Value index="0">
              0
            </Value>
            <Value index="1">
              1.6041194449
            </Value>
          </InformationKey>
        </DataArray>
        <DataArray type="Float64" Name="Pressure" format="ascii" RangeMin="-0.8685446343610552" RangeMax="10.860922755846213">
          -0.00016988164232898284 0.00023071155295203524 0.00019144184496527845 0.06386118016302963 0.07097613146085079 -0.00012855923331787965
          0.0001880100941831061 0.10220161154054484 0.07292410679530528 0.06219626173391948 0.00048223860598767395 -0.000191651139625421
          0.00027666211126754314 0.13426335851731722 0.09782094204795491 0.1079669706707006 -0.00022590152409126998 -0.0018529135150262737
          0.1968845166590634 0.0006823460796822885 0.10997790517203138 0.2047834308714369 0.007657960123325704 -0.002514668407725375
          0.20737850354531878 0.35079547515630816 0.3733872206974263 0.00979950076587234 0.36037244006316743 -0.03458289641396615
          0.7437185864051412 0.7684815239325864 -0.04156116130289369 0.8718882670799909 1.57842251666347 0.15443742280420533
          2.068026924671786 2.5798939291312397 2.0394662289705567 3.126245660521024 0.1781953845865176 2.0214335933686067
          3.085187244983426 3.583094756631603 3.4317350011180445 4.5690626365021805 -0.7610064874561413 1.8687296842898902
          3.5803157983117955 4.534874219194206 5.883868971390665 7.660128285800791 5.8159852002039365 7.656315121931875
          3.7141665417488614 5.939901020394575 8.607428165912687 -0.8685446343610552 9.828684041397812 8.991360842967737
          7.323871949670191 4.76867806448956 10.345752530549012 10.860922755846213 5.556417264726077
        </DataArray>
        <DataArray type="Float64" Name="Temperature" format="ascii" RangeMin="299.82906262677955" RangeMax="300.00000000000006">
          299.88532414691184 299.8853232718166 299.88532456943676 299.88532441610874 299.8853239075233 299.8853300420869
          299.88532512123163 299.8853283416519 299.88532046960205 299.88532786381626 299.8853027690473 299.8853240894502
          299.8853220841866 299.88530004373047 299.8853050067166 299.88537914147577 299.8853386727643 299.8853264611392
          299.8853259639811 299.8852535481841 299.8854460624302 299.88507280740345 299.8857544222004 299.8854929041082
          299.8848318279532 299.8857548830434 299.8856242189347 299.88543096208116 299.8863774648225 299.8835000286152
          299.8836098731493 299.88662656240996 299.88348574643334 299.8846012812778 299.8886984669679 299.8889022697523
          299.87781893880316 299.88504925620083 299.88165787663655 299.8973121075599 299.89169194756147 299.8962126954691
          299.900887523849 299.9005002478565 299.97395763633904 299.9588677871898 299.870314342063 299.8876721830141
          299.8858468602119 299.96617777993634 299.90405778520005 299.95659068513874 299.82906262677955 299.9544070037622
          299.8911532477225 299.8951536063202 299.8758792841536 299.8666323945936 299.8316881895667 299.88525742611074
          299.85447303948126 300 300 300.00000000000006 300
        </DataArray>
        <DataArray type="Float64" Name="Density" format="ascii" RangeMin="1.174775241420754" RangeMax="1.175444999689461">
          1.1752244743179625 1.1752244777473846 1.1752244726621242 1.1752244732630033 1.1752244752561054 1.1752244512152854
          1.1752244704996881 1.1752244578791415 1.1752244887290195 1.175224459751738 1.1752245580959582 1.1752244745431497
          1.1752244824016032 1.1752245687762393 1.1752245493267262 1.1752242587990944 1.1752244173924142 1.1752244652487072
          1.1752244671970264 1.1752247509882947 1.1752239965418554 1.1752254592964373 1.17522278810899 1.1752238129735757
          1.1752264036762627 1.1752227863029918 1.1752232983630089 1.1752240557187634 1.1752203464712818 1.1752316229222242
          1.17523119244598 1.1752193702871938 1.1752316788935349 1.175227307172271 1.1752112508002563 1.1752104521334057
          1.1752538873111789 1.1752255515917118 1.175238842287606 1.1751774964219228 1.1751995199915442 1.1751818045935294
          1.1751634859640079 1.175165003509344 1.1748772300210248 1.1749363338584966 1.1752832993805626 1.1752152726409684
          1.1752224258536228 1.1749077013768559 1.17515106340658 1.174945253315574 1.175444999689461 1.1749538069690901
          1.1752016310234479 1.1751859547849621 1.1752614890785247 1.175297730233824 1.1754347065657815 1.1752247357910308
          1.1753453895610961 1.1747752414207542 1.1747752414207542 1.174775241420754 1.1747752414207542
        </DataArray>
        <DataArray type="Float64" Name="stream" format="ascii" RangeMin="-1.1817519725428913" RangeMax="1.2754347004348046">
          -0.0023426124353051656 0.007937680362687131 0.0002476005829089335 0.01219985261877888 0.0038312331037698402 0.017569486240327354
          -0.009112897621990204 0.01610747215496439 0.02188781197765732 0.009163529791312967 0.029637422935673955 -0.01617041931556804
          0.0017185320952138598 0.025714309280316858 0.01920495485321845 0.03769892709038785 0.02049787234879987 0.04845119815134552
          0.03723729733171912 0.030465414817890668 0.028131246664163598 0.05538883313101014 0.06829078218290109 0.03011080308630105
          0.025457502723892623 0.047070262040957524 0.07505607986446255 0.029087367975575193 0.022267529343597003 0.1467566945707769
          0.0578298682465973 0.14479797515221335 -0.028843680853389977 -0.033639211361279155 0.03781532557288892 0.16272809935286062
          0.15143443797796438 0.0453681738626238 -0.06629510664698941 0.10124317733739104 -0.08370886001417296 0.3067349398817446
          0.020758789234852977 0.19203938204377413 0.0641894425020331 0.10029435153169797 0.7148643558297264 -0.1770987775734329
          -0.08552747839624764 0.03199512872862685 0.22108403383270617 0.11611008802396297 0.552441823826518 0.013180996243629981
          -0.3055356887666446 -0.13042556559420537 0.31537475921066405 -0.607390787220767 0.08525833567130536 -0.13728965213487604
          -0.6060556448438327 1.2754347004348046 0.47547349294484487 -0.3108305853061932 -1.1817519725428913
        </DataArray>
      </PointData>
      <CellData>
        <DataArray type="UInt8" Name="vtkGhostType" format="ascii" RangeMin="0" RangeMax="0">
          0 0 0 0 0 0
          0 0 0 0 0 0
          0 0 0 0 0 0
          0 0 0 0 0 0
          0 0 0 0 0 0
          0 0 0 0 0 0
          0 0 0 0 0 0
          0 0 0 0 0 0
          0 0 0 0 0 0
          0 0 0 0 0 0
          0 0 0 0 0 0
          0 0 0 0 0 0
          0 0 0 0 0 0
          0 0 0 0 0 0
          0 0 0 0 0 0
          0 0 0 0 0 0
          0 0 0 0 0
        </DataArray>
      </CellData>
      <Points>
        <DataArray type="Float32" Name="Points" NumberOfComponents="3" format="ascii" RangeMin="0.3386548938008204" RangeMax="7.102112369882704">
          7 1.2000000476837158 0 6.222221851348877 1.2000000476837158 0
          7 0.4000000059604645 0 5.866583824157715 0.5834335088729858 0
          6.113818168640137 -0.06796818971633911 0 5.444444179534912 1.2000000476837158 0
          7 -0.4000000059604645 0 5.374982833862305 0.05133577063679695 0
          5.044035911560059 0.717233419418335 0 5.636797904968262 -0.6446514129638672 0
          4.6666669845581055 1.2000000476837158 0 7 -1.2000000476837158 0
          6.222221851348877 -1.2000000476837158 0 4.6517181396484375 0.08554346114397049 0
          4.9071431159973145 -0.5013023018836975 0 4.20501708984375 0.6844208240509033 0
          5.444444179534912 -1.2000000476837158 0 3.8888890743255615 1.2000000476837158 0
          3.908618927001953 0.008085579611361027 0 4.6666669845581055 -1.2000000476837158 0
          4.190336227416992 -0.680732011795044 0 3.4767589569091797 0.5622708797454834 0
          3.1111109256744385 1.2000000476837158 0 3.8888890743255615 -1.2000000476837158 0
          3.455962896347046 -0.5601919889450073 0 3.1824440956115723 0.030600570142269135 0
          2.74373197555542 0.6176614165306091 0 3.1111109256744385 -1.2000000476837158 0
          2.7368290424346924 -0.6656588912010193 0 2.3333330154418945 1.2000000476837158 0
          2.4499940872192383 0.0055718207731842995 0 2.03562593460083 0.6959654092788696 0
          2.3333330154418945 -1.2000000476837158 0 2.0443150997161865 -0.5891656875610352 0
          1.7839189767837524 -0.0063413470052182674 0 1.555556058883667 1.2000000476837158 0
          1.4043580293655396 0.4893423020839691 0 1.3220579624176025 -0.01946846954524517 0
          1.4062609672546387 -0.46856579184532166 0 1.1284430027008057 0.23862800002098083 0
          1.555556058883667 -1.2000000476837158 0 1.053400993347168 0.8138331770896912 0
          1.1284430027008057 -0.23862800002098083 0 0.9798405170440674 0.4904909133911133 0
          1 0 0 0.861803412437439 0.19021129608154297 0
          0.7777777910232544 1.2000000476837158 0 1.0878779888153076 -0.8199741244316101 0
          0.9428092837333679 -0.5025230050086975 0 0.861803412437439 -0.19021129608154297 0
          0.6745458245277405 0.38610830903053284 0 0.638196587562561 0.1175571009516716 0
          0.5494737029075623 0.6893327832221985 0 0.638196587562561 -0.1175571009516716 0
          0.756988525390625 -0.7287815809249878 0 0.6448535919189453 -0.4298931956291199 0
          0.3890891969203949 0.32260850071907043 0 0.7777777910232544 -1.2000000476837158 0
          0.33861419558525085 0.005250108893960714 0 0.366202712059021 -0.29110780358314514 0
          0.30312108993530273 -0.749178409576416 0 0 1.2000000476837158 0
          0 0.4000000059604645 0 0 -0.4000000059604645 0
          0 -1.2000000476837158 0
          <InformationKey name="L2_NORM_RANGE" location="vtkDataArray" length="2">
            <Value index="0">
              0.3386548938
            </Value>
            <Value index="1">
              7.1021123699
            </Value>
          </InformationKey>
        </DataArray>
      </Points>
      <Cells>
        <DataArray type="Int64" Name="connectivity" format="ascii" RangeMin="0" RangeMax="64">
          44 49 42 53 51 58
          45 44 39 49 53 55
          51 45 50 42 49 48
          39 44 37 50 45 43
          58 51 56 55 53 59
          44 42 37 45 39 43
          51 50 56 53 58 59
          49 55 48 37 42 38
          56 50 52 48 55 54
          43 39 36 59 58 63
          42 48 38 50 43 52
          55 60 54 39 37 36
          58 56 62 37 38 34
          56 52 62 48 54 47
          43 36 41 59 63 60
          34 38 33 47 54 57
          47 57 40 57 60 64
          41 36 35 37 34 36
          48 47 38 43 41 52
          60 63 64 59 60 55
          54 60 57 41 35 46
          41 46 52 47 40 38
          62 52 61 33 38 40
          34 33 30 63 58 62
          52 46 61 35 36 31
          30 33 28 34 30 31
          36 34 31 35 31 29
          29 31 26 26 31 30
          26 30 25 29 26 22
          22 26 21 28 33 32
          28 32 27 28 27 24
          24 27 23 28 24 25
          25 24 18 18 24 20
          25 18 21 25 21 26
          21 18 15 30 28 25
          22 21 17 20 24 23
          20 23 19 20 19 14
          15 18 13 21 15 17
          17 15 10 10 15 8
          14 19 16 20 14 13
          13 14 7 7 14 9
          13 7 8 9 14 16
          9 16 12 7 9 4
          8 7 3 13 8 15
          10 8 5 5 8 3
          5 3 1 1 3 2
          18 20 13 4 9 12
          7 4 3 32 33 40
          12 11 6 0 1 2
          6 2 4 3 4 2
          6 4 12
        </DataArray>
        <DataArray type="Int64" Name="offsets" format="ascii" RangeMin="3" RangeMax="303">
          3 6 9 12 15 18
          21 24 27 30 33 36
          39 42 45 48 51 54
          57 60 63 66 69 72
          75 78 81 84 87 90
          93 96 99 102 105 108
          111 114 117 120 123 126
          129 132 135 138 141 144
          147 150 153 156 159 162
          165 168 171 174 177 180
          183 186 189 192 195 198
          201 204 207 210 213 216
          219 222 225 228 231 234
          237 240 243 246 249 252
          255 258 261 264 267 270
          273 276 279 282 285 288
          291 294 297 300 303
        </DataArray>
        <DataArray type="UInt8" Name="types" format="ascii" RangeMin="5" RangeMax="5">
          5 5 5 5 5 5
          5 5 5 5 5 5
          5 5 5 5 5 5
          5 5 5 5 5 5
          5 5 5 5 5 5
          5 5 5 5 5 5
          5 5 5 5 5 5
          5 5 5 5 5 5
          5 5 5 5 5 5
          5 5 5 5 5 5
          5 5 5 5 5 5
          5 5 5 5 5 5
          5 5 5 5 5 5
          5 5 5 5 5 5
          5 5 5 5 5 5
          5 5 5 5 5 5
          5 5 5 5 5
        </DataArray>
      </Cells>
    </Piece>
  </UnstructuredGrid>
</VTKFile>
