<?xml version="1.0"?>
<VTKFile type="UnstructuredGrid" version="0.1" byte_order="LittleEndian" header_type="UInt32" compressor="vtkZLibDataCompressor">
  <UnstructuredGrid>
    <Piece NumberOfPoints="65" NumberOfCells="101">
      <PointData>
        <DataArray type="Float64" Name="Velocity" NumberOfComponents="3" format="ascii" RangeMin="0" RangeMax="1.2752533854380086">
          -0.007648781363589657 -0.00278331493008813 0 -0.0015521416483229118 0.015197901261983903 0
          0.01606205904603656 0.002876095822977232 0 0.0050228476003145546 0.006676707205920637 0
          0.009493050652107338 -0.0016991509160081744 0 0.0002955093134553051 0.013056146136947744 0
          0.014680877845697889 0.0001823024771043383 0 0.0058568201426944045 0.0013648775185797475 0
          0.0020323906189736243 0.011391860303064601 0 0.003329465918920889 -0.006687499414864555 0
          -0.001851377223394953 0.021197761237451943 0 -0.009404186903623482 0.0007730187027681461 0
          -0.0010479135604498633 -0.016324914475337023 0 0.007930521519254292 0.0007114896845319814 0
          0.00422466925627395 -0.008905886387552955 0 0.010816677907546986 0.010972914668624198 0
          -0.0010858362432869307 -0.011610258964668056 0 -0.004391894287087219 0.02287371409258529 0
          0.011027874554439869 0.0013792632541114536 0 -0.0011163040264955432 -0.02178622598923276 0
          0.01266340462766919 -0.010412799594928307 0 0.024872595922695973 0.039043872590448364 0
          -0.02430528772385487 0.05987717682240244 0 -0.0058617754093434355 -0.021486445636457203 0
          0.025745318331004075 -0.03554663736096873 0 0.043804110951115936 0.00001719793870458355 0
          0.07909079470158172 0.015163690357992867 0 -0.020995016422848546 -0.06732358903933484 0
          0.09003146148652368 -0.021732944554719132 0 0.005824416813206352 0.10569160950701992 0
          0.05925923134703858 0.010529971473113284 0 0.12992425961245593 0.22226687682307636 0
          -0.01519266582919961 -0.09127315356553987 0 0.15016667298199632 -0.20379445237466892 0
          0.1706251465273837 -0.007518577355165101 0 -0.016219903636935335 0.38272418463339636 0
          0.42112114240366744 0.014749045903748679 0 0.16538984689028205 -0.007928079916838736 0
          0.40677936370725915 -0.012095367922529826 0 0.23600526343629713 -0.09786951509493574 0
          -0.0243848379092787 -0.3639228028246816 0 0.6091855496017339 0.4863778120517162 0
          0.21273501499359987 0.06680288640105041 0 0.8503988617141592 0.2624585167227002 0
          0 0 0 0 0 0
          0.7217906194695574 1.0459807232293319 0 0.5192839117184973 -0.4399968709539703 0
          0.8477162443374464 -0.2578867644658095 0 0 0 0
          0.9053910178980935 0.5134139156363317 0 0 0 0
          1.0176542895694571 0.612903991085121 0 0 0 0
          0.8479799843805412 -0.6258432946444068 0 0.9532461530218759 -0.5664059556025466 0
          0.8786228117064626 0.3739548743473369 0 0.7070299862719408 -1.0613104143385201 0
          0.8065074846480806 0.022372901853211107 0 0.9135539086817102 -0.27867692277653283 0
          1.0118842883795263 -0.3684316735914161 0 1 0 0
          1 0 0 1 0 0
          1 0 0
          <InformationKey name="L2_NORM_RANGE" location="vtkDataArray" length="2">
            <Value index="0">
              0
            </Value>
            <Value index="1">
              1.2752533854
            </Value>
          </InformationKey>
        </DataArray>
        <DataArray type="Float64" Name="Pressure" format="ascii" RangeMin="-0.19828381474512424" RangeMax="1.0714624450041776">
          -0.00016053257131156038 0.00019650800180540736 0.0001834887293090938 0.00029313737856656266 0.000244698358980187 0.000034424867884152316
          0.00017827936558771192 0.0014084270282319407 0.00137057142541475 0.0005420783757650414 -0.00016682873125531406 -0.00018031819791067955
          0.00023691461523009112 0.004746269237642337 0.0024053869081693082 0.005717099888534335 -0.00004552018268615837 0.0006683256500842439
          0.013300299751026113 -0.00006608854394855336 0.005973254819037951 0.017335266642402723 -0.0027212168423912646 0.0003105982392173816
          0.018554211387387064 0.03303726531523757 0.04020878350736852 -0.002062820227937711 0.04145226915790565 0.005729414435183624
          0.07592719026405893 0.0921315458818259 0.0026607762643876195 0.10433196781279079 0.15231865725538044 -0.030367765682125347
          0.21680224897879136 0.14241541380335343 0.21801277137263783 0.11399183394257202 -0.036308406552165245 0.27827007966135137
          0.11956876226580625 0.20457023470702318 0.11502731088903453 0.13741305877854382 0.23733861688976576 0.3025813905849392
          0.20422746724280966 0.18137268922708213 0.28899021840103567 1.0376206710641578 0.35494381625133353 1.0714624450041776
          0.3475534274332065 0.4046652092344927 0.6902015129960921 0.2769066934769986 0.8779864306690969 0.7380910594933248
          0.3295555654458546 -0.17841648605472457 0.6730354606937968 0.7116012266872922 -0.19828381474512424
        </DataArray>
        <DataArray type="Float64" Name="Temperature" format="ascii" RangeMin="299.4905946743144" RangeMax="300.00000000000006">
          299.5478172867418 299.5478213030523 299.5478178685514 299.5478080205323 299.5478150320465 299.5477990881979
          299.5478139263658 299.5478295250492 299.5478622209742 299.54780107133934 299.5478236720811 299.5478165497347
          299.54782315790203 299.5476761650729 299.54787928509137 299.5477090686733 299.5477855459234 299.54793263204897
          299.5484400069452 299.54790530693833 299.54763333531434 299.5475357089352 299.547962581185 299.54762818751846
          299.5478395414075 299.5461804443369 299.5499896761924 299.5489158164837 299.5490473910096 299.5440250940978
          299.5491626952852 299.5424023260051 299.5417135301414 299.54613543501625 299.5506214704736 299.5662272880578
          299.5454168929347 299.5540730835871 299.53215898955506 299.65116592375654 299.5698184603921 299.5221317536126
          299.65456107234957 299.57465210951403 299.9013736245638 299.81315577840763 299.5086630488295 299.5556277868591
          299.5831621844061 299.81411358902056 299.59204197931365 299.6623106731252 299.5295647464052 299.6540891619872
          299.5422385850209 299.56981558081355 299.64022606252837 299.4905946743144 299.63038566651085 299.6740059800916
          299.66790391349684 299.99999999999994 300 300.00000000000006 300
        </DataArray>
        <DataArray type="Float64" Name="Density" format="ascii" RangeMin="1.1687170894214067" RangeMax="1.1707049672384664">
          1.1704813274963581 1.170481311802649 1.1704813252229407 1.1704813637040183 1.170481336306567 1.1704813986070655
          1.1704813406270078 1.1704812796752462 1.1704811519161369 1.170481390857951 1.170481302545683 1.1704813303762092
          1.1704813045548348 1.170481878928706 1.1704810852382235 1.1704817503579747 1.170481451523432 1.1704808767854251
          1.1704788942258983 1.170480983558061 1.1704820462859165 1.1704824277610093 1.1704807597594546 1.1704820664009234
          1.17048124053639 1.1704877234833413 1.1704728389589667 1.1704770350136193 1.170476520890933 1.1704961456543193
          1.1704760703440307 1.170502486805966 1.1705051783752363 1.1704878993589447 1.1704703702675574 1.1704093949458347
          1.1704907070961497 1.1704568835176112 1.17054251539865 1.1700776325883975 1.1703953643540328 1.170581702172308
          1.1700643753651008 1.1703764799775165 1.1691014368788624 1.169445436495663 1.170634342450591 1.1704508088090173
          1.1703432338116642 1.1694417004899196 1.1703085452804902 1.1700341161984724 1.1705526535361148 1.170066218041451
          1.1705031266463772 1.1703953756043166 1.1701203521093873 1.1707049672384664 1.1701587809477285 1.16998845355214
          1.1700122777500785 1.1687170894214072 1.168717089421407 1.1687170894214067 1.168717089421407
        </DataArray>
        <DataArray type="Float64" Name="stream" format="ascii" RangeMin="-1.1465805889361382" RangeMax="1.2930309087648784">
          -0.0023197692372277662 0.007295269513363063 -0.0005289396165245298 0.011315255406033385 0.0029712907677944514 0.016743772995014488
          -0.00958390869834579 0.015266015767993033 0.021702321187595058 0.008025358532412331 0.030904777145871656 -0.017448142238025485
          0.0007566002127086715 0.024368319133849976 0.016695371784488044 0.0381373575966421 0.018622165361345335 0.04833621578375468
          0.03635601682209302 0.02549412507703851 0.023807937501775952 0.05740988633494996 0.08375059839196725 0.024335051535941732
          0.017540339120281946 0.04262353508888828 0.08270470203579791 0.00667524310858815 0.008553879126949259 0.1392718570864714
          0.06406882693712045 0.16188474026776048 -0.029895030949641483 -0.03293113137076887 0.05223448549924942 0.32532514845990473
          0.18461186569740692 0.0649413767834723 -0.0594790625528754 0.11136144736579896 -0.1944487213631429 0.4321830768566713
          0.05144522310520877 0.23422481766662817 0.08684446210240412 0.12137572629556997 0.8823075454046928 -0.2675095422561388
          -0.08090317850947204 0.061006561593709215 0.25823074604301616 0.12538982738712304 0.6134217340728387 0.019817955319201448
          -0.3624306359208628 -0.13772586746521834 0.33212307552384474 -0.7272760422973739 0.08924394756615757 -0.13761684160848636
          -0.6186504529800109 1.2930309087648784 0.48037023046854666 -0.30676098473405033 -1.1465805889361382
        </DataArray>
      </PointData>
      <CellData>
        <DataArray type="UInt8" Name="vtkGhostType" format="ascii" RangeMin="0" RangeMax="0">
          0 0 0 0 0 0
          0 0 0 0 0 0
          0 0 0 0 0 0
          0 0 0 0 0 0
          0 0 0 0 0 0
          0 0 0 0 0 0
          0 0 0 0 0 0
          0 0 0 0 0 0
          0 0 0 0 0 0
          0 0 0 0 0 0
          0 0 0 0 0 0
          0 0 0 0 0 0
          0 0 0 0 0 0
          0 0 0 0 0 0
          0 0 0 0 0 0
          0 0 0 0 0 0
          0 0 0 0 0
        </DataArray>
      </CellData>
      <Points>
        <DataArray type="Float32" Name="Points" NumberOfComponents="3" format="ascii" RangeMin="0.3386548938008204" RangeMax="7.102112369882704">
          7 1.2000000476837158 0 6.222221851348877 1.2000000476837158 0
          7 0.4000000059604645 0 5.866583824157715 0.5834335088729858 0
          6.113818168640137 -0.06796818971633911 0 5.444444179534912 1.2000000476837158 0
          7 -0.4000000059604645 0 5.374982833862305 0.05133577063679695 0
          5.044035911560059 0.717233419418335 0 5.636797904968262 -0.6446514129638672 0
          4.6666669845581055 1.2000000476837158 0 7 -1.2000000476837158 0
          6.222221851348877 -1.2000000476837158 0 4.6517181396484375 0.08554346114397049 0
          4.9071431159973145 -0.5013023018836975 0 4.20501708984375 0.6844208240509033 0
          5.444444179534912 -1.2000000476837158 0 3.8888890743255615 1.2000000476837158 0
          3.908618927001953 0.008085579611361027 0 4.6666669845581055 -1.2000000476837158 0
          4.190336227416992 -0.680732011795044 0 3.4767589569091797 0.5622708797454834 0
          3.1111109256744385 1.2000000476837158 0 3.8888890743255615 -1.2000000476837158 0
          3.455962896347046 -0.5601919889450073 0 3.1824440956115723 0.030600570142269135 0
          2.74373197555542 0.6176614165306091 0 3.1111109256744385 -1.2000000476837158 0
          2.7368290424346924 -0.6656588912010193 0 2.3333330154418945 1.2000000476837158 0
          2.4499940872192383 0.0055718207731842995 0 2.03562593460083 0.6959654092788696 0
          2.3333330154418945 -1.2000000476837158 0 2.0443150997161865 -0.5891656875610352 0
          1.7839189767837524 -0.0063413470052182674 0 1.555556058883667 1.2000000476837158 0
          1.4043580293655396 0.4893423020839691 0 1.3220579624176025 -0.01946846954524517 0
          1.4062609672546387 -0.46856579184532166 0 1.1284430027008057 0.23862800002098083 0
          1.555556058883667 -1.2000000476837158 0 1.053400993347168 0.8138331770896912 0
          1.1284430027008057 -0.23862800002098083 0 0.9798405170440674 0.4904909133911133 0
          1 0 0 0.861803412437439 0.19021129608154297 0
          0.7777777910232544 1.2000000476837158 0 1.0878779888153076 -0.8199741244316101 0
          0.9428092837333679 -0.5025230050086975 0 0.861803412437439 -0.19021129608154297 0
          0.6745458245277405 0.38610830903053284 0 0.638196587562561 0.1175571009516716 0
          0.5494737029075623 0.6893327832221985 0 0.638196587562561 -0.1175571009516716 0
          0.756988525390625 -0.7287815809249878 0 0.6448535919189453 -0.4298931956291199 0
          0.3890891969203949 0.32260850071907043 0 0.7777777910232544 -1.2000000476837158 0
          0.33861419558525085 0.005250108893960714 0 0.366202712059021 -0.29110780358314514 0
          0.30312108993530273 -0.749178409576416 0 0 1.2000000476837158 0
          0 0.4000000059604645 0 0 -0.4000000059604645 0
          0 -1.2000000476837158 0
          <InformationKey name="L2_NORM_RANGE" location="vtkDataArray" length="2">
            <Value index="0">
              0.3386548938
            </Value>
            <Value index="1">
              7.1021123699
            </Value>
          </InformationKey>
        </DataArray>
      </Points>
      <Cells>
        <DataArray type="Int64" Name="connectivity" format="ascii" RangeMin="0" RangeMax="64">
          44 49 42 53 51 58
          45 44 39 49 53 55
          51 45 50 42 49 48
          39 44 37 50 45 43
          58 51 56 55 53 59
          44 42 37 45 39 43
          51 50 56 53 58 59
          49 55 48 37 42 38
          56 50 52 48 55 54
          43 39 36 59 58 63
          42 48 38 50 43 52
          55 60 54 39 37 36
          58 56 62 37 38 34
          56 52 62 48 54 47
          43 36 41 59 63 60
          34 38 33 47 54 57
          47 57 40 57 60 64
          41 36 35 37 34 36
          48 47 38 43 41 52
          60 63 64 59 60 55
          54 60 57 41 35 46
          41 46 52 47 40 38
          62 52 61 33 38 40
          34 33 30 63 58 62
          52 46 61 35 36 31
          30 33 28 34 30 31
          36 34 31 35 31 29
          29 31 26 26 31 30
          26 30 25 29 26 22
          22 26 21 28 33 32
          28 32 27 28 27 24
          24 27 23 28 24 25
          25 24 18 18 24 20
          25 18 21 25 21 26
          21 18 15 30 28 25
          22 21 17 20 24 23
          20 23 19 20 19 14
          15 18 13 21 15 17
          17 15 10 10 15 8
          14 19 16 20 14 13
          13 14 7 7 14 9
          13 7 8 9 14 16
          9 16 12 7 9 4
          8 7 3 13 8 15
          10 8 5 5 8 3
          5 3 1 1 3 2
          18 20 13 4 9 12
          7 4 3 32 33 40
          12 11 6 0 1 2
          6 2 4 3 4 2
          6 4 12
        </DataArray>
        <DataArray type="Int64" Name="offsets" format="ascii" RangeMin="3" RangeMax="303">
          3 6 9 12 15 18
          21 24 27 30 33 36
          39 42 45 48 51 54
          57 60 63 66 69 72
          75 78 81 84 87 90
          93 96 99 102 105 108
          111 114 117 120 123 126
          129 132 135 138 141 144
          147 150 153 156 159 162
          165 168 171 174 177 180
          183 186 189 192 195 198
          201 204 207 210 213 216
          219 222 225 228 231 234
          237 240 243 246 249 252
          255 258 261 264 267 270
          273 276 279 282 285 288
          291 294 297 300 303
        </DataArray>
        <DataArray type="UInt8" Name="types" format="ascii" RangeMin="5" RangeMax="5">
          5 5 5 5 5 5
          5 5 5 5 5 5
          5 5 5 5 5 5
          5 5 5 5 5 5
          5 5 5 5 5 5
          5 5 5 5 5 5
          5 5 5 5 5 5
          5 5 5 5 5 5
          5 5 5 5 5 5
          5 5 5 5 5 5
          5 5 5 5 5 5
          5 5 5 5 5 5
          5 5 5 5 5 5
          5 5 5 5 5 5
          5 5 5 5 5 5
          5 5 5 5 5 5
          5 5 5 5 5
        </DataArray>
      </Cells>
    </Piece>
  </UnstructuredGrid>
</VTKFile>
