<?xml version="1.0"?>
<VTKFile type="UnstructuredGrid" version="0.1" byte_order="LittleEndian" header_type="UInt32" compressor="vtkZLibDataCompressor">
  <UnstructuredGrid>
    <Piece NumberOfPoints="51" NumberOfCells="75">
      <PointData>
        <DataArray type="Float64" Name="nsi_BC" NumberOfComponents="3" format="ascii" RangeMin="0" RangeMax="100">
          0 0 0 0 0 0
          0 0 0 0 0 0
          0 0 0 0 0 0
          0 0 0 0 0 0
          0 0 0 0 0 0
          0 0 0 0 0 0
          0 0 0 0 0 0
          0 0 0 0 0 0
          0 0 0 0 0 0
          0 0 0 0 0 0
          0 0 0 0 0 0
          0 0 0 0 0 0
          0 0 0 0 0 0
          0 0 0 0 0 0
          0 0 0 0 0 0
          0 0 0 0 0 0
          0 0 0 0 0 0
          0 0 0 0 0 0
          0 0 0 0 0 0
          0 0 0 0 0 0
          0 0 0 0 0 0
          0 0 0 0 0 0
          0 0 0 100 0 0
          0 0 0 100 0 0
          100 0 0 100 0 0
          100 0 0
          <InformationKey name="L2_NORM_RANGE" location="vtkDataArray" length="2">
            <Value index="0">
              0
            </Value>
            <Value index="1">
              100
            </Value>
          </InformationKey>
        </DataArray>
        <DataArray type="Float64" Name="nsi_FIXNO" NumberOfComponents="3" format="ascii" RangeMin="1" RangeMax="1.4142135623730951">
          0 1 0 -1 -1 0
          0 1 0 -1 -1 0
          -1 -1 0 0 1 0
          -1 -1 0 -1 -1 0
          -1 -1 0 0 1 0
          -1 -1 0 -1 -1 0
          -1 -1 0 -1 -1 0
          0 1 0 0 1 0
          -1 -1 0 0 1 0
          0 1 0 -1 -1 0
          -1 -1 0 -1 -1 0
          0 1 0 0 1 0
          -1 -1 0 -1 -1 0
          -1 -1 0 0 1 0
          -1 -1 0 0 1 0
          1 1 0 -1 -1 0
          -1 -1 0 1 1 0
          0 1 0 -1 -1 0
          1 1 0 -1 -1 0
          -1 -1 0 -1 -1 0
          0 1 0 -1 -1 0
          0 1 0 -1 -1 0
          -1 -1 0 1 1 0
          0 1 0 1 1 0
          1 1 0 1 1 0
          1 1 0
          <InformationKey name="L2_NORM_RANGE" location="vtkDataArray" length="2">
            <Value index="0">
              1
            </Value>
            <Value index="1">
              1.4142135624
            </Value>
          </InformationKey>
        </DataArray>
        <DataArray type="Float64" Name="tem_BC" format="ascii" RangeMin="0" RangeMax="1">
          0 0 0 0 0 0
          0 0 0 0 0 0
          0 0 0 0 0 0
          0 0 0 0 0 0
          0 0 0 0 0 0
          0 0 0 0 0 0
          0 0 0 0 0 0
          0 0 0 1 0 1
          1 1 1
        </DataArray>
        <DataArray type="Float64" Name="tem_FIXNO" format="ascii" RangeMin="-1" RangeMax="1">
          -1 -1 -1 -1 -1 -1
          -1 -1 -1 -1 -1 -1
          -1 -1 -1 -1 -1 -1
          -1 -1 -1 -1 -1 -1
          -1 -1 -1 -1 -1 -1
          1 -1 -1 1 -1 -1
          1 -1 -1 -1 -1 -1
          -1 -1 -1 1 -1 1
          1 1 1
        </DataArray>
        <DataArray type="Float64" Name="Velocity" NumberOfComponents="3" format="ascii" RangeMin="0" RangeMax="105.61268522502925">
          100.41538543722599 0 0 100.12480859487938 0.01760344322215701 0
          100.4794104866888 0 0 100.69314098843613 -0.13449326274937956 0
          99.93169975660612 -0.19609448182181488 0 100.89456117679187 0 0
          100.48503898277603 0.017378114997050886 0 101.64097702054121 0.31413535377974977 0
          99.82277708054896 -0.11596931880776218 0 100.86320400639504 0 0
          101.39598207360937 -0.553378959475276 0 100.59936427527063 -0.035505843776780566 0
          102.4297305198338 0.812429226242606 0 103.63429260239486 0.11078488923209218 0
          99.82604369871528 0 0 100.90131724943362 0 0
          101.5077397677969 -0.8751587473787006 0 100.15173830751371 0 0
          100.8881935817601 0 0 105.60418287943702 -1.3400891043269092 0
          101.98466537476722 4.994264143121242 0 103.43084339772004 -0.4356219084536548 0
          101.18574559076129 0 0 91.194443133099 0 0
          95.44619992915185 8.09769687833696 0 95.99171379803275 3.7802572220266306 0
          97.02862863724485 -9.210056031839066 0 102.23819846924478 0 0
          85.93047011728598 -1.7616686639977246 0 92.23541168028251 0 0
          0 0 0 85.40371167113904 -4.643012200165156 0
          82.92568564332572 4.2773450624315785 0 0 0 0
          94.75656405316452 0 0 85.68929372891411 -3.810857110235034 0
          0 0 0 90.96281987520183 -9.745253071974048 0
          88.35850662420856 11.503833218854162 0 85.45542550015938 1.59689352330013 0
          86.78036068830284 0 0 98.86939494077704 -6.746166847758371 0
          88.97088416834379 0 0 91.83975578087654 -2.8754735468408086 0
          93.92186986160227 4.065126645140644 0 100.00000000000001 0 0
          92.25359678286715 0 0 100 0 0
          100 0 0 100 0 0
          100 0 0
          <InformationKey name="L2_NORM_RANGE" location="vtkDataArray" length="2">
            <Value index="0">
              0
            </Value>
            <Value index="1">
              105.61268523
            </Value>
          </InformationKey>
        </DataArray>
        <DataArray type="Float64" Name="Pressure" format="ascii" RangeMin="-4271681.889941858" RangeMax="-148.5402590649901">
          -148.5402590649901 -923.3501521153376 -977502.0980910005 -1193233.8471211242 -5500.522652642103 -1923714.6899475665
          -993794.1609580552 -2341242.8047933644 -5833.805004107417 -2805742.2455259413 -1951644.0400545045 -1410030.252433855
          -3203291.762618991 -2846288.1644943617 -3401.0631522851763 -3562674.860100437 -2433811.036515786 -1003148.5497129814
          -1971798.3858603463 -3617804.6195482337 -3825421.4691790845 -3312104.0779801784 -2866269.2884648335 -4025410.931360546
          -4106127.8673320143 -4226310.699505384 -4096369.4955374952 -3588104.200106943 -4210808.618524172 -4230113.001520706
          -4214472.5198250115 -4241779.570234378 -4228214.302397654 -4149249.998069896 -4070571.895563719 -4193604.8222186556
          -4153555.4397009336 -4163635.4504500064 -4195121.365264224 -4142836.4511876693 -4271681.889941858 -4243243.398004562
          -4237765.823761694 -4171246.944291656 -4183082.98521583 -4242805.127084379 -4249088.545509413 -4217635.506539618
          -4162727.060963807 -4191892.352614315 -4204416.534740046
        </DataArray>
        <DataArray type="Float64" Name="DISSI_NS" format="ascii" RangeMin="-10327442.763481462" RangeMax="7485371954.849819">
          576759.2589594664 -5496437.980214023 2152070.4648856726 -521497.64890908956 -5410257.573966726 559002.236002318
          230714.67506350073 -370835.3336093178 -5130863.336878992 -1911374.8156236305 327585.44665743783 -1028622.655561665
          -62027.45340978759 -1399185.2683516955 -2730596.515665494 -4167131.6649829107 -4817855.509329688 500975.12509165687
          -718622.0252651183 -10327442.763481462 147816.31339638444 5331128.628998168 -1171761.420077086 9222467.58710174
          3696575.9125081114 14624390.426835023 9761144.718704656 -7715458.786513766 5085032.302731089 1563819.9905320115
          5325635155.492416 4023438.1750930464 6741543.370097949 5844800142.184577 9139374.883227084 3732500.3257997427
          7485371954.849819 1195268.7700051593 1672785.2647665523 10437196.298672874 547780.3373359386 -67519.40725466024
          472710.55885869 -71930.16374066708 -744340.5783475757 522675.1345637001 283848.8504894355 785687.1660570053
          508030.793994061 609761.253216977 786077.9729714668
        </DataArray>
        <DataArray type="Float64" Name="Temperature" format="ascii" RangeMin="-0.08167982324413076" RangeMax="1">
          0.00004358273580391871 -0.000025567061234339537 -0.00001827726500818395 0.00009718657570862323 -0.000012089520985076085 -0.0001930501363688191
          -0.000056439711782678146 -0.0002810494737857123 0.00005373138368281051 0.0013575096385977977 0.00019376297121270362 -0.000157276881298496
          0.0002366127196505375 -0.0007275826946142288 -0.000042929230980172673 -0.005006538672518394 0.00044145533449082094 0.00004778867165391341
          0.00008023572775594543 0.0027130171011998127 0.0024912953304541347 -0.00014431256834842243 -0.0011384290356361046 0.02336658296853703
          -0.00011139568858284213 -0.008414030884000983 -0.005000298023328064 0.004489643558567317 0.0366285172483279 -0.005375916444868333
          0 -0.04193151761227109 0.016898470749698913 0 -0.007123572300231291 0.023222476542730755
          0 -0.0785558809449614 -0.08167982324413076 -0.07416891708164194 0.05449894175880538 0.13974691567252995
          -0.005925896339699851 0.1562556738383276 0.1522385511149848 1 0.11631488276484787 1
          1 1 1
        </DataArray>
        <DataArray type="Float64" Name="DISSI_TEMPE" format="ascii" RangeMin="-0.07370860639887548" RangeMax="0.5008843312120935">
          3.956666581808888e-9 8.539114404408073e-10 3.425668429861581e-9 -2.153047975961538e-8 -1.2903459463073335e-9 -1.2952643571126715e-7
          -1.0418085295380989e-8 -2.8190515271251814e-7 5.992673796295334e-9 -0.0000020237386412883284 -5.318636951675165e-8 3.432483930544991e-9
          -0.000005130828580693109 -3.814475007432173e-7 6.512265952769588e-9 -0.00006433290333090068 1.7373930274497747e-7 1.051296908187956e-8
          -2.2501420044719916e-9 -0.000012736008703213277 0.000012185336066888027 -0.000002445183731683725 -4.6528114391676913e-7 0.00007595078866366248
          -0.0002428057379829352 0.00008315495309795246 -0.000005683482842437207 0.0000021460525572038277 -0.0007779994589338678 0.0003070788918281272
          0.00006875819490416488 -0.0026142766889751547 -0.00022991920593769185 -0.009453282627430356 0.00016003632624545875 -0.00016641827470675235
          -0.011153251521311174 0.0076690292377107165 -0.00019099670543615532 0.014507121747877539 0.037753647810189396 -0.012149167270942252
          -0.0009339354959111681 -0.06969929984280009 -0.07370860639887548 0.4540100981715715 -0.011929243786315291 0.48143687919156675
          0.5008843312120935 0.39955926335664954 0.45354277479855304
        </DataArray>
        <DataArray type="Float64" Name="CN2" format="ascii" RangeMin="1.0734988984556532e-20" RangeMax="3.0275304817629133e-10">
          1.2027583552405804e-20 1.1297081099696316e-20 1.9344579197981073e-18 5.4537278013347494e-18 1.0734988984556532e-20 2.4020483636761857e-16
          2.4902657304471495e-18 3.1678264927453413e-16 2.1976679730794998e-20 6.094996500689743e-15 6.97286707495167e-17 1.4401136565803502e-17
          5.787076401490616e-15 1.2343188847002483e-15 2.084480825412666e-20 6.308860730053005e-14 3.486278585264115e-16 3.089450108558255e-18
          2.0263484147892215e-16 1.1153172302884158e-14 1.5484749823615947e-14 7.034575634829271e-15 4.499353371792383e-15 5.127555531795208e-13
          5.482103244395127e-13 2.340673177383507e-13 1.090580897664754e-13 2.041233093183166e-14 2.2194061622732014e-12 1.2866426061950558e-12
          3.158674048121859e-13 4.5115364494001324e-12 1.3934557865384884e-12 1.738829847492366e-12 2.459134683715342e-13 1.879948155163467e-12
          2.062690023717875e-12 1.2790863610488176e-11 1.0334325710363247e-11 1.5970760043534635e-11 7.715672334059685e-11 1.4400719151712893e-10
          4.32395204238281e-12 1.6451435662441987e-10 1.7001754062176458e-10 2.688438550092282e-10 1.535193078710899e-10 2.9216693372246776e-10
          2.958804974834781e-10 3.0275304817629133e-10 2.799805142843166e-10
        </DataArray>
        <DataArray type="Float64" Name="CT2" format="ascii" RangeMin="1.0265357573229551e-8" RangeMax="0.16365863702042083">
          1.076020256376395e-8 1.0265357573229551e-8 2.2408535153139027e-8 4.070226353085016e-8 1.0722432899027006e-8 6.441950018198916e-7
          2.7804873965191333e-8 5.625127962542402e-7 2.2106653322361452e-8 0.000007426084267882007 1.8140457647354745e-7 7.484861054439526e-8
          0.000005360016510941848 0.0000014597589940792955 1.992524004244767e-8 0.000046929539824307655 5.70931679039722e-7 3.378420753940723e-8
          5.158781317400365e-7 0.000008039385605563461 0.000009952216959094825 0.000006081467527049834 0.0000052445058804049475 0.00029691992465494455
          0.00030468250103567147 0.0001226066533069937 0.000060903946959821995 0.000014965556721613913 0.00117210313883944 0.0006727450236643362
          0.00016642827202653177 0.002344414695072636 0.0007295025536916118 0.0009459289757440852 0.0001391174170191383 0.0010009960167060466
          0.0011197275343579611 0.006901147981719682 0.005490092604690911 0.008706269367292234 0.03957752202792309 0.07497948360853433
          0.002252485417971193 0.08873460206208487 0.09116662478869902 0.14177834735461808 0.07967972062106421 0.15596748453448678
          0.16224818680678807 0.16365863702042083 0.15042629379598618
        </DataArray>
      </PointData>
      <CellData>
        <DataArray type="UInt8" Name="vtkGhostType" format="ascii" RangeMin="0" RangeMax="0">
          0 0 0 0 0 0
          0 0 0 0 0 0
          0 0 0 0 0 0
          0 0 0 0 0 0
          0 0 0 0 0 0
          0 0 0 0 0 0
          0 0 0 0 0 0
          0 0 0 0 0 0
          0 0 0 0 0 0
          0 0 0 0 0 0
          0 0 0 0 0 0
          0 0 0 0 0 0
          0 0 0
        </DataArray>
      </CellData>
      <Points>
        <DataArray type="Float32" Name="Points" NumberOfComponents="3" format="ascii" RangeMin="0" RangeMax="17.88854381999832">
          16 8 0 16 6 0
          14 8 0 13.571430206298828 5.4463372230529785 0
          16 4 0 12 8 0
          14 3.464102029800415 0 11.101200103759766 5.649384021759033 0
          16 2 0 10 8 0
          12 3.464102029800415 0 13.166669845581055 1.776708960533142 0
          9.0526123046875 5.597301006317139 0 10 3.464102029800415 0
          16 0 0 8 8 0
          11 1.7320510149002075 0 14 0 0
          12 0 0 8 3.464102029800415 0
          7.214476108551025 5.006220817565918 0 8.865592002868652 1.8541419506072998 0
          10 0 0 6 8 0
          5.868243217468262 6.172163009643555 0 5.61288595199585 4.4169921875 0
          6.193554878234863 2.464600086212158 0 8 0 0
          4.574699878692627 4.995409965515137 0 4 8 0
          4.5 4 0 3.80739688873291 6.614357948303223 0
          4.723260879516602 3.0721371173858643 0 3.75 4.433012962341309 0
          6 0 0 4.8942999839782715 1.5862879753112793 0
          3.75 3.5669870376586914 0 3.0087170600891113 5.149643898010254 0
          3.5546820163726807 2.3947041034698486 0 2.864197015762329 3.831125020980835 0
          2 8 0 1.7273950576782227 6.389729976654053 0
          4 0 0 1.5482569932937622 4.574378967285156 0
          1.6611889600753784 2.800034999847412 0 0 8 0
          2 0 0 0 6 0
          0 4 0 0 2 0
          0 0 0
          <InformationKey name="L2_NORM_RANGE" location="vtkDataArray" length="2">
            <Value index="0">
              0
            </Value>
            <Value index="1">
              17.88854382
            </Value>
          </InformationKey>
        </DataArray>
      </Points>
      <Cells>
        <DataArray type="Int64" Name="connectivity" format="ascii" RangeMin="0" RangeMax="50">
          30 36 32 36 33 39
          33 30 28 32 36 38
          39 33 37 28 30 25
          30 32 25 36 39 38
          33 28 37 32 38 35
          39 37 43 28 25 24
          35 38 42 43 37 41
          24 25 20 32 35 26
          39 43 44 28 24 31
          41 37 31 26 35 34
          31 24 23 20 25 19
          44 43 48 48 43 47
          43 41 47 47 41 45
          32 26 25 28 31 37
          24 20 15 39 44 38
          35 42 34 44 48 49
          44 49 46 50 46 49
          14 8 17 15 23 24
          27 22 21 21 22 16
          27 21 26 16 22 18
          16 18 11 11 18 17
          16 11 10 11 17 8
          10 11 6 6 11 8
          10 6 3 3 4 1
          10 3 7 7 3 5
          10 7 13 13 7 12
          10 13 16 12 7 9
          13 12 19 16 13 21
          19 12 20 20 12 15
          19 25 26 21 13 19
          21 19 26 0 2 1
          4 3 6 29 40 31
          29 31 23 5 9 7
          46 42 38 8 4 6
          2 5 3 34 27 26
          40 45 41 40 41 31
          9 15 12 38 44 46
          1 2 3
        </DataArray>
        <DataArray type="Int64" Name="offsets" format="ascii" RangeMin="3" RangeMax="225">
          3 6 9 12 15 18
          21 24 27 30 33 36
          39 42 45 48 51 54
          57 60 63 66 69 72
          75 78 81 84 87 90
          93 96 99 102 105 108
          111 114 117 120 123 126
          129 132 135 138 141 144
          147 150 153 156 159 162
          165 168 171 174 177 180
          183 186 189 192 195 198
          201 204 207 210 213 216
          219 222 225
        </DataArray>
        <DataArray type="UInt8" Name="types" format="ascii" RangeMin="5" RangeMax="5">
          5 5 5 5 5 5
          5 5 5 5 5 5
          5 5 5 5 5 5
          5 5 5 5 5 5
          5 5 5 5 5 5
          5 5 5 5 5 5
          5 5 5 5 5 5
          5 5 5 5 5 5
          5 5 5 5 5 5
          5 5 5 5 5 5
          5 5 5 5 5 5
          5 5 5 5 5 5
          5 5 5
        </DataArray>
      </Cells>
    </Piece>
  </UnstructuredGrid>
</VTKFile>
