<?xml version="1.0"?>
<VTKFile type="UnstructuredGrid" version="0.1" byte_order="LittleEndian" header_type="UInt32" compressor="vtkZLibDataCompressor">
  <UnstructuredGrid>
    <Piece NumberOfPoints="8" NumberOfCells="6">
      <PointData>
        <DataArray type="Float64" Name="Disp" NumberOfComponents="3" format="ascii" RangeMin="1.2567928743365487e-21" RangeMax="0.007385376442769637">
          0.0004377105673424754 -0.003689288025255827 0 -0.0004409336114116437 -0.0036960300358129337 0
          0.00025992225178070793 -0.0011079551699608712 0 -0.0002534439724210693 -0.0011169051887337561 0
          -9.933224156793242e-22 -7.699603285183697e-22 0 -2.6810867252621173e-20 -3.3818538503237078e-21 0
          -0.0005813285912072031 -0.0073624616990828375 0 0.0005655231409441876 -0.007353802150022873 0
          <InformationKey name="L2_NORM_RANGE" location="vtkDataArray" length="2">
            <Value index="0">
              1.2567928743e-21
            </Value>
            <Value index="1">
              0.0073853764428
            </Value>
          </InformationKey>
        </DataArray>
        <DataArray type="Float64" Name="Sld_traction" NumberOfComponents="3" format="ascii" RangeMin="2499.2169156379077" RangeMax="11456.954148522258">
          -4906.46632041559 5542.629187799099 0 -3013.139920786437 3528.949011378739 0
          -6758.950859105738 6924.259512858871 0 -4200.022766188229 5122.149391845524 0
          -8630.756516741742 7534.70903950918 0 -6252.542216806148 6346.57841912509 0
          -1605.8956172741703 1914.9894145478374 0 -3687.4907027125846 3886.261878856611 0
          <InformationKey name="L2_NORM_RANGE" location="vtkDataArray" length="2">
            <Value index="0">
              2499.2169156
            </Value>
            <Value index="1">
              11456.954149
            </Value>
          </InformationKey>
        </DataArray>
        <DataArray type="Float64" Name="Velocity" NumberOfComponents="3" format="ascii" RangeMin="4.707792872760462e-19" RangeMax="0.04857070013394161">
          -0.002671657779652412 -0.04849716647609114 0 -0.004140426267849375 -0.04821829864200923 0
          0.001163459978527299 -0.033180617872633864 0 -0.005200486343578228 -0.03417821432782378 0
          -3.713804090633004e-19 -2.8932633667213515e-19 0 -9.95936269745444e-18 -1.268848353794307e-18 0
          -0.0038297899870258865 -0.04220318259160616 0 -0.001739311064777759 -0.04261439818146419 0
          <InformationKey name="L2_NORM_RANGE" location="vtkDataArray" length="2">
            <Value index="0">
              4.7077928728e-19
            </Value>
            <Value index="1">
              0.048570700134
            </Value>
          </InformationKey>
        </DataArray>
        <DataArray type="Float64" Name="Acceleration" NumberOfComponents="3" format="ascii" RangeMin="2.0867140723569998e-17" RangeMax="1.3987167920510883">
          0.0015529198612367345 -0.27596242177583896 0 -0.23841501548966693 -0.32701087448300115 0
          -0.002314951024758566 0.5312731019192021 0 -0.04659942686631541 0.5291935174477205 0
          1.6469405691362315e-17 1.2813907996805503e-17 0 4.4240196307568376e-16 5.621792811765071e-17 0
          -0.23384178799806954 -1.3790310665650551 0 -0.27043238314787577 -1.3478762408021883 0
          <InformationKey name="L2_NORM_RANGE" location="vtkDataArray" length="2">
            <Value index="0">
              2.0867140724e-17
            </Value>
            <Value index="1">
              1.3987167921
            </Value>
          </InformationKey>
        </DataArray>
      </PointData>
      <CellData>
        <DataArray type="UInt8" Name="vtkGhostType" format="ascii" RangeMin="0" RangeMax="1">
          1 1 0 0 0 0
        </DataArray>
        <DataArray type="Float64" Name="Gauss Stress" NumberOfComponents="6" format="ascii" RangeMin="6328.677849212704" RangeMax="15552.187753972335">
          -5150.972799527586 -2712.352778021398 0 2482.4957089997324 0 0
          6151.882781498365 4663.089400757827 0 -4208.996422340215 0 0
          -9966.882655043057 -5898.753538954969 0 4856.2613998033175 0 0
          11139.525076316057 7426.35005087737 0 -7913.965499720509 0 0
          -7361.069186742492 -4345.5452447360785 0 3543.7841325731415 0 0
          8514.501115649946 6422.16897484037 0 -5603.936218490966 0 0
          <InformationKey name="L2_NORM_RANGE" location="vtkDataArray" length="2">
            <Value index="0">
              6328.6778492
            </Value>
            <Value index="1">
              15552.187754
            </Value>
          </InformationKey>
        </DataArray>
        <DataArray type="Float64" Name="Gauss Strain" NumberOfComponents="6" format="ascii" RangeMin="0.005372263151431104" RangeMax="0.01625764646228375">
          -0.002005642568507991 0.00043297745299819546 0 0.004964991417999463 0 0
          0.001825893908595888 0.0003371005278553496 0 -0.008417992844680429 0 0
          -0.003620628177443846 0.0004475009386442422 0 0.009712522799606632 0 0
          0.003713175025438684 1.305946760902669e-19 0 -0.015827930999441013 0 0
          -0.0026784234141510634 0.0003371005278553496 0 0.007087568265146282 0 0
          0.002539833079453821 0.0004475009386442422 0 -0.01120787243698193 0 0
          <InformationKey name="L2_NORM_RANGE" location="vtkDataArray" length="2">
            <Value index="0">
              0.0053722631514
            </Value>
            <Value index="1">
              0.016257646462
            </Value>
          </InformationKey>
        </DataArray>
        <DataArray type="Float64" Name="Btraction" NumberOfComponents="3" format="ascii" RangeMin="0" RangeMax="0">
          0 0 0 0 0 0
          0 0 0 0 0 0
          0 0 0 0 0 0
          <InformationKey name="L2_NORM_RANGE" location="vtkDataArray" length="2">
            <Value index="0">
              0
            </Value>
            <Value index="1">
              0
            </Value>
          </InformationKey>
        </DataArray>
      </CellData>
      <Points>
        <DataArray type="Float32" Name="Points" NumberOfComponents="3" format="ascii" RangeMin="0" RangeMax="0.21095022452792997">
          0.14000000059604645 0.019999999552965164 0 0.14000000059604645 0 0
          0.07000000029802322 0.019999999552965164 0 0.07000000029802322 0 0
          0 0.019999999552965164 0 0 0 0
          0.20999999344348907 0 0 0.20999999344348907 0.019999999552965164 0
          <InformationKey name="L2_NORM_RANGE" location="vtkDataArray" length="2">
            <Value index="0">
              0
            </Value>
            <Value index="1">
              0.21095022453
            </Value>
          </InformationKey>
        </DataArray>
      </Points>
      <Cells>
        <DataArray type="Int64" Name="connectivity" format="ascii" RangeMin="0" RangeMax="7">
          6 7 1 7 0 1
          3 2 5 2 4 5
          1 0 3 0 2 3
        </DataArray>
        <DataArray type="Int64" Name="offsets" format="ascii" RangeMin="3" RangeMax="18">
          3 6 9 12 15 18
        </DataArray>
        <DataArray type="UInt8" Name="types" format="ascii" RangeMin="5" RangeMax="5">
          5 5 5 5 5 5
        </DataArray>
      </Cells>
    </Piece>
  </UnstructuredGrid>
</VTKFile>
