<?xml version="1.0"?>
<VTKFile type="UnstructuredGrid" version="0.1" byte_order="LittleEndian" header_type="UInt32" compressor="vtkZLibDataCompressor">
  <UnstructuredGrid>
    <Piece NumberOfPoints="8" NumberOfCells="6">
      <PointData>
        <DataArray type="Float64" Name="Disp" NumberOfComponents="3" format="ascii" RangeMin="0.001445844704830299" RangeMax="0.0071415713875643974">
          0.00027311243481294774 -0.007122237028090439 0 -0.0003816681223046559 -0.0071313653200558245 0
          0.0002719112261988109 -0.004795331425315836 0 -0.00033761186417619504 -0.004804111685406008 0
          0.00021826366204526356 -0.002803712711962097 0 -0.0002584686148657929 -0.002805932912706757 0
          -0.0001827316946865512 -0.0014378869564496213 0 0.00014480256918197553 -0.0014385753808695996 0
          <InformationKey name="L2_NORM_RANGE" location="vtkDataArray" length="2">
            <Value index="0">
              0.0014458447048
            </Value>
            <Value index="1">
              0.0071415713876
            </Value>
          </InformationKey>
        </DataArray>
        <DataArray type="Float64" Name="Sld_traction" NumberOfComponents="3" format="ascii" RangeMin="143.6378026507625" RangeMax="2774.6245782990773">
          -1292.147958528027 994.6735753766949 0 -19.389785193092706 -142.32306411999818 0
          -1845.1090379540128 1608.5884592935927 0 -355.82271026809525 416.8515592455402 0
          -1935.0826847060528 1930.721181734529 0 -1555.960916231547 1387.539287239666 0
          -1844.1797886047955 1983.9467909248983 0 -1615.1906004382809 2256.036541095281 0
          <InformationKey name="L2_NORM_RANGE" location="vtkDataArray" length="2">
            <Value index="0">
              143.63780265
            </Value>
            <Value index="1">
              2774.6245783
            </Value>
          </InformationKey>
        </DataArray>
        <DataArray type="Float64" Name="Velocity" NumberOfComponents="3" format="ascii" RangeMin="0.0031316246475485174" RangeMax="0.105359020528828">
          0.0031411570732714916 -0.10531218514034849 0 -0.00428189320507995 -0.10509655796569917 0
          0.0036051958798971047 -0.07980915822545176 0 -0.005265577307452854 -0.079799715382407 0
          0.005271018121394735 -0.042458119192388816 0 -0.005618345582934206 -0.042943835538311374 0
          -0.0029351737439173788 -0.0010917087643467064 0 0.004842966227160116 -0.0007385545433408088 0
          <InformationKey name="L2_NORM_RANGE" location="vtkDataArray" length="2">
            <Value index="0">
              0.0031316246475
            </Value>
            <Value index="1">
              0.10535902053
            </Value>
          </InformationKey>
        </DataArray>
        <DataArray type="Float64" Name="Acceleration" NumberOfComponents="3" format="ascii" RangeMin="0.1646321580103361" RangeMax="3.3725730713261908">
          -0.4369774325358913 3.2105434589341346 0 0.7593425450130772 3.285977483301984 0
          -0.3890526933536629 -1.2235900715238448 0 0.4007703517575655 -1.1728993735469935 0
          0.07216886357639846 -2.4886601283287657 0 -0.07829349712766928 -2.5355048460144114 0
          -0.13341584881709986 0.09645703051386678 0 0.3887736892331602 0.16445955396888634 0
          <InformationKey name="L2_NORM_RANGE" location="vtkDataArray" length="2">
            <Value index="0">
              0.16463215801
            </Value>
            <Value index="1">
              3.3725730713
            </Value>
          </InformationKey>
        </DataArray>
      </PointData>
      <CellData>
        <DataArray type="UInt8" Name="vtkGhostType" format="ascii" RangeMin="0" RangeMax="0">
          0 0 0 0 0 0
        </DataArray>
        <DataArray type="Float64" Name="Gauss Stress" NumberOfComponents="6" format="ascii" RangeMin="1013.7990216843262" RangeMax="4135.63321994596">
          -3023.8479332157563 -1830.881893422143 0 2146.550092368296 0 0
          3079.4901092859627 1995.6247045257974 0 -1562.624339661816 0 0
          -2513.8275328572236 -944.1966810571892 0 965.3717400947978 0 0
          2521.2013953323485 1865.8176589432605 0 -2307.541029750289 0 0
          -975.2961518240443 110.49356256610963 0 -253.726319558608 0 0
          929.5063781944468 1351.3592596439246 0 -1382.6770461577364 0 0
          <InformationKey name="L2_NORM_RANGE" location="vtkDataArray" length="2">
            <Value index="0">
              1013.7990217
            </Value>
            <Value index="1">
              4135.6332199
            </Value>
          </InformationKey>
        </DataArray>
        <DataArray type="Float64" Name="Gauss Strain" NumberOfComponents="6" format="ascii" RangeMin="0.0009284048164742028" RangeMax="0.004679600950993289">
          -0.0010819560025605965 0.00011101003723301694 0 0.004293100184736591 0 0
          0.0010494441837612578 -0.00003442122099890643 0 -0.0031252486793236327 0 0
          -0.0011306178472914583 0.00043901300450857605 0 0.001930743480189595 0 0
          0.0007663937736221045 0.00011101003723301694 0 -0.004615082059500578 0 0
          -0.0006293751161208705 0.00045641459826928354 0 -0.000507452639117216 0 0
          0.000017160123059098073 0.00043901300450857605 0 -0.0027653540923154724 0 0
          <InformationKey name="L2_NORM_RANGE" location="vtkDataArray" length="2">
            <Value index="0">
              0.00092840481647
            </Value>
            <Value index="1">
              0.004679600951
            </Value>
          </InformationKey>
        </DataArray>
        <DataArray type="Float64" Name="Btraction" NumberOfComponents="3" format="ascii" RangeMin="0" RangeMax="0">
          0 0 0 0 0 0
          0 0 0 0 0 0
          0 0 0 0 0 0
          <InformationKey name="L2_NORM_RANGE" location="vtkDataArray" length="2">
            <Value index="0">
              0
            </Value>
            <Value index="1">
              0
            </Value>
          </InformationKey>
        </DataArray>
      </CellData>
      <Points>
        <DataArray type="Float32" Name="Points" NumberOfComponents="3" format="ascii" RangeMin="0.14000000059604645" RangeMax="0.35057095688290196">
          0.3499999940395355 0.019999999552965164 0 0.3499999940395355 0 0
          0.2800000011920929 0.019999999552965164 0 0.2800000011920929 0 0
          0.20999999344348907 0.019999999552965164 0 0.20999999344348907 0 0
          0.14000000059604645 0 0 0.14000000059604645 0.019999999552965164 0
          <InformationKey name="L2_NORM_RANGE" location="vtkDataArray" length="2">
            <Value index="0">
              0.1400000006
            </Value>
            <Value index="1">
              0.35057095688
            </Value>
          </InformationKey>
        </DataArray>
      </Points>
      <Cells>
        <DataArray type="Int64" Name="connectivity" format="ascii" RangeMin="0" RangeMax="7">
          5 4 6 4 7 6
          3 2 5 2 4 5
          1 0 3 0 2 3
        </DataArray>
        <DataArray type="Int64" Name="offsets" format="ascii" RangeMin="3" RangeMax="18">
          3 6 9 12 15 18
        </DataArray>
        <DataArray type="UInt8" Name="types" format="ascii" RangeMin="5" RangeMax="5">
          5 5 5 5 5 5
        </DataArray>
      </Cells>
    </Piece>
  </UnstructuredGrid>
</VTKFile>
