<?xml version="1.0"?>
<VTKFile type="UnstructuredGrid" version="0.1" byte_order="LittleEndian" header_type="UInt32" compressor="vtkZLibDataCompressor">
  <UnstructuredGrid>
    <Piece NumberOfPoints="8" NumberOfCells="6">
      <PointData>
        <DataArray type="Float64" Name="Disp" NumberOfComponents="3" format="ascii" RangeMin="3.8250623743193144e-23" RangeMax="0.007080641367249554">
          0.0003299376090174352 -0.003930962636577423 0 -0.0004723772618248658 -0.003949905176366572 0
          0.0002452214055217851 -0.0012781008916945928 0 -0.00029381770001719214 -0.00130127652908771 0
          3.174986935263391e-23 2.1332041928376406e-23 0 1.000694636914874e-21 9.811164067599112e-23 0
          -0.0005374838269280167 -0.007060211987426188 0 0.0003344446493198575 -0.007051564639469686 0
          <InformationKey name="L2_NORM_RANGE" location="vtkDataArray" length="2">
            <Value index="0">
              3.8250623743e-23
            </Value>
            <Value index="1">
              0.0070806413672
            </Value>
          </InformationKey>
        </DataArray>
        <DataArray type="Float64" Name="Sld_traction" NumberOfComponents="3" format="ascii" RangeMin="498.705692369858" RangeMax="12039.936231178937">
          -3852.588680145074 4433.481057213799 0 -360.41520170405227 1411.7030892308567 0
          -7301.163454253582 6451.567219018558 0 -2660.120503456794 3589.3833088281785 0
          -9436.002466764738 7478.096141269184 0 -5587.443847898725 5854.189434192367 0
          409.0750016594453 285.2455269051984 0 -1177.1410181157983 1911.7481693176871 0
          <InformationKey name="L2_NORM_RANGE" location="vtkDataArray" length="2">
            <Value index="0">
              498.70569237
            </Value>
            <Value index="1">
              12039.936231
            </Value>
          </InformationKey>
        </DataArray>
        <DataArray type="Float64" Name="Velocity" NumberOfComponents="3" format="ascii" RangeMin="4.428405977774952e-19" RangeMax="0.07811060480624961">
          0.004624164479035011 -0.02933328665680575 0 -0.006347164073292871 -0.030287523235746638 0
          0.002338360182277264 0.004334297145548942 0 -0.0018313892077731102 0.004412496972747676 0
          3.4946519970230174e-19 2.7199608312797376e-19 0 9.383021042894149e-18 1.1931885362076056e-18 0
          -0.0067026777056150184 -0.07782249478635825 0 0.000686658510524381 -0.07721307747843426 0
          <InformationKey name="L2_NORM_RANGE" location="vtkDataArray" length="2">
            <Value index="0">
              4.4284059778e-19
            </Value>
            <Value index="1">
              0.078110604806
            </Value>
          </InformationKey>
        </DataArray>
        <DataArray type="Float64" Name="Acceleration" NumberOfComponents="3" format="ascii" RangeMin="1.394747594082662e-17" RangeMax="1.317313399385554">
          -0.1394540048237084 0.6279334466514497 0 0.039742566505521854 0.6498170329934663 0
          -0.08339419675530747 -0.10810375980853704 0 -0.0024738676515926317 -0.11394618329534278 0
          -1.100630523934929e-17 -8.566990725932284e-18 0 -2.954881790254534e-16 -3.758088212022562e-17 0
          -0.055485061871945934 1.3161443690225592 0 -0.0016975685518020034 1.3083331940342244 0
          <InformationKey name="L2_NORM_RANGE" location="vtkDataArray" length="2">
            <Value index="0">
              1.3947475941e-17
            </Value>
            <Value index="1">
              1.3173133994
            </Value>
          </InformationKey>
        </DataArray>
      </PointData>
      <CellData>
        <DataArray type="UInt8" Name="vtkGhostType" format="ascii" RangeMin="0" RangeMax="1">
          1 1 0 0 0 0
        </DataArray>
        <DataArray type="Float64" Name="Gauss Stress" NumberOfComponents="6" format="ascii" RangeMin="2049.3268645989324" RangeMax="15584.669748791965">
          -1925.546565913421 -563.0853809004553 0 -418.2653156575532 0 0
          2087.4128490186667 2970.153548441487 0 -2232.142535315788 0 0
          -10274.62340428226 -4918.445820095099 0 4181.14528784793 0 0
          10509.488808076507 7006.325872051005 0 -9129.292083532806 0 0
          -5758.29866998545 -2260.3207975612577 0 1139.0957190656575 0 0
          5948.258174839553 5896.808565986112 0 -5473.034824974358 0 0
          <InformationKey name="L2_NORM_RANGE" location="vtkDataArray" length="2">
            <Value index="0">
              2049.3268646
            </Value>
            <Value index="1">
              15584.669749
            </Value>
          </InformationKey>
        </DataArray>
        <DataArray type="Float64" Name="Gauss Strain" NumberOfComponents="6" format="ascii" RangeMin="0.0013235556341899533" RangeMax="0.018591612257740368">
          -0.0009300937871878701 0.00043236739782509526 0 -0.0008365306313151064 0 0
          0.00006438629003460532 0.0009471269894574252 0 -0.004464285070631575 0 0
          -0.004197395714531316 0.001158781869655845 0 0.008362290575695859 0 0
          0.0035031629360255017 -3.838979937380736e-21 0 -0.018258584167065613 0 0
          -0.002550850882966766 0.0009471269894574252 0 0.002278191438131315 0 0
          0.0012102314785092873 0.001158781869655845 0 -0.010946069649948716 0 0
          <InformationKey name="L2_NORM_RANGE" location="vtkDataArray" length="2">
            <Value index="0">
              0.0013235556342
            </Value>
            <Value index="1">
              0.018591612258
            </Value>
          </InformationKey>
        </DataArray>
        <DataArray type="Float64" Name="Btraction" NumberOfComponents="3" format="ascii" RangeMin="0" RangeMax="0">
          0 0 0 0 0 0
          0 0 0 0 0 0
          0 0 0 0 0 0
          <InformationKey name="L2_NORM_RANGE" location="vtkDataArray" length="2">
            <Value index="0">
              0
            </Value>
            <Value index="1">
              0
            </Value>
          </InformationKey>
        </DataArray>
      </CellData>
      <Points>
        <DataArray type="Float32" Name="Points" NumberOfComponents="3" format="ascii" RangeMin="0" RangeMax="0.21095022452792997">
          0.14000000059604645 0.019999999552965164 0 0.14000000059604645 0 0
          0.07000000029802322 0.019999999552965164 0 0.07000000029802322 0 0
          0 0.019999999552965164 0 0 0 0
          0.20999999344348907 0 0 0.20999999344348907 0.019999999552965164 0
          <InformationKey name="L2_NORM_RANGE" location="vtkDataArray" length="2">
            <Value index="0">
              0
            </Value>
            <Value index="1">
              0.21095022453
            </Value>
          </InformationKey>
        </DataArray>
      </Points>
      <Cells>
        <DataArray type="Int64" Name="connectivity" format="ascii" RangeMin="0" RangeMax="7">
          6 7 1 7 0 1
          3 2 5 2 4 5
          1 0 3 0 2 3
        </DataArray>
        <DataArray type="Int64" Name="offsets" format="ascii" RangeMin="3" RangeMax="18">
          3 6 9 12 15 18
        </DataArray>
        <DataArray type="UInt8" Name="types" format="ascii" RangeMin="5" RangeMax="5">
          5 5 5 5 5 5
        </DataArray>
      </Cells>
    </Piece>
  </UnstructuredGrid>
</VTKFile>
