<?xml version="1.0"?>
<VTKFile type="UnstructuredGrid" version="0.1" byte_order="LittleEndian" header_type="UInt32" compressor="vtkZLibDataCompressor">
  <UnstructuredGrid>
    <Piece NumberOfPoints="8" NumberOfCells="6">
      <PointData>
        <DataArray type="Float64" Name="Disp" NumberOfComponents="3" format="ascii" RangeMin="0.0005705287583322673" RangeMax="0.0032586017001754865">
          0.00013791200960666807 -0.0032556820050479167 0 -0.00009498179393491171 -0.003253056986586915 0
          0.0001402915285306212 -0.0024455828889866508 0 -0.00010721319227172737 -0.0024451743902667387 0
          0.00015062647324208246 -0.0015092143900827901 0 -0.0001121896248549522 -0.0015144247270326607 0
          -0.00007792806285734118 -0.0005651816354973514 0 0.00012898039673644489 -0.0005611050909329047 0
          <InformationKey name="L2_NORM_RANGE" location="vtkDataArray" length="2">
            <Value index="0">
              0.00057052875833
            </Value>
            <Value index="1">
              0.0032586017002
            </Value>
          </InformationKey>
        </DataArray>
        <DataArray type="Float64" Name="Sld_traction" NumberOfComponents="3" format="ascii" RangeMin="49.30887725758687" RangeMax="2111.22938108972">
          370.19691298603414 -89.03524567227194 0 17.901786195444767 45.94443848189192 0
          141.62589708112392 178.5026724552619 0 204.41937268037367 -18.312367432029014 0
          -858.7208790566908 858.103710633466 0 335.249602219805 58.22112438717225 0
          -544.9900104137294 563.8100523918072 0 -1694.3764031598175 1259.5150272988728 0
          <InformationKey name="L2_NORM_RANGE" location="vtkDataArray" length="2">
            <Value index="0">
              49.308877258
            </Value>
            <Value index="1">
              2111.2293811
            </Value>
          </InformationKey>
        </DataArray>
        <DataArray type="Float64" Name="Velocity" NumberOfComponents="3" format="ascii" RangeMin="0.04505198800030667" RangeMax="0.06746741000165146">
          0.001768473869999899 -0.06718139283496213 0 -0.002857028700147028 -0.06740688985064862 0
          0.0013296968680143136 -0.05041627826984391 0 -0.001821013771264892 -0.05046157849289793 0
          -0.00039197666135696316 -0.04541467363916651 0 -0.001153486559996811 -0.04503721895871994 0
          -0.002784082001150338 -0.04667884009024299 0 -0.0004175672108246613 -0.04683687993206924 0
          <InformationKey name="L2_NORM_RANGE" location="vtkDataArray" length="2">
            <Value index="0">
              0.045051988
            </Value>
            <Value index="1">
              0.067467410002
            </Value>
          </InformationKey>
        </DataArray>
        <DataArray type="Float64" Name="Acceleration" NumberOfComponents="3" format="ascii" RangeMin="0.7455384112328449" RangeMax="2.3102747472487026">
          0.1547850725357961 -2.1621766435651626 0 -0.6173853503729547 -2.2262535203610394 0
          0.10480583548536002 0.7381349872969105 0 -0.31431472681807965 0.7007896784580554 0
          -0.28036580317395565 0.855625780715938 0 0.0477424218567937 0.9076514125229327 0
          -0.01627871662133734 -1.858172363269134 0 -0.44667315909271754 -1.910733583536949 0
          <InformationKey name="L2_NORM_RANGE" location="vtkDataArray" length="2">
            <Value index="0">
              0.74553841123
            </Value>
            <Value index="1">
              2.3102747472
            </Value>
          </InformationKey>
        </DataArray>
      </PointData>
      <CellData>
        <DataArray type="UInt8" Name="vtkGhostType" format="ascii" RangeMin="0" RangeMax="0">
          0 0 0 0 0 0
        </DataArray>
        <DataArray type="Float64" Name="Gauss Stress" NumberOfComponents="6" format="ascii" RangeMin="270.42016966201464" RangeMax="2419.564052520093">
          -947.3189620534015 -197.35122887970755 0 -209.9053442549169 0 0
          1335.343449543421 1229.9410133995034 0 -1599.4977897973897 0 0
          172.42581014702347 80.90898010536299 0 -460.59386018469297 0 0
          78.10749306730366 486.26640786742917 0 -117.94396831599218 0 0
          261.7009397633125 -44.28424524130503 0 51.755114823946045 0 0
          -142.8292544463448 -129.26106295690562 0 401.19576247824034 0 0
          <InformationKey name="L2_NORM_RANGE" location="vtkDataArray" length="2">
            <Value index="0">
              270.42016966
            </Value>
            <Value index="1">
              2419.5640525
            </Value>
          </InformationKey>
        </DataArray>
        <DataArray type="Float64" Name="Gauss Strain" NumberOfComponents="6" format="ascii" RangeMin="0.0002418123957617803" RangeMax="0.003220363526460297">
          -0.0004894508856801577 0.00026051684749353593 0 -0.0004198106885098338 0 0
          0.0003092296643662511 0.00020382722822233354 0 -0.003198995579594779 0 0
          0.00007109189404606885 -0.000020424935995591587 0 -0.0009211877203693858 0 0
          -0.00014764206730658947 0.00026051684749353593 0 -0.00023588793663198437 0 0
          0.00017473426195450947 -0.000131250923050108 0 0.00010351022964789206 0 0
          -0.000033993127485044614 -0.000020424935995605464 0 0.0008023915249564806 0 0
          <InformationKey name="L2_NORM_RANGE" location="vtkDataArray" length="2">
            <Value index="0">
              0.00024181239576
            </Value>
            <Value index="1">
              0.0032203635265
            </Value>
          </InformationKey>
        </DataArray>
        <DataArray type="Float64" Name="Btraction" NumberOfComponents="3" format="ascii" RangeMin="0" RangeMax="0">
          0 0 0 0 0 0
          0 0 0 0 0 0
          0 0 0 0 0 0
          <InformationKey name="L2_NORM_RANGE" location="vtkDataArray" length="2">
            <Value index="0">
              0
            </Value>
            <Value index="1">
              0
            </Value>
          </InformationKey>
        </DataArray>
      </CellData>
      <Points>
        <DataArray type="Float32" Name="Points" NumberOfComponents="3" format="ascii" RangeMin="0.14000000059604645" RangeMax="0.35057095688290196">
          0.3499999940395355 0.019999999552965164 0 0.3499999940395355 0 0
          0.2800000011920929 0.019999999552965164 0 0.2800000011920929 0 0
          0.20999999344348907 0.019999999552965164 0 0.20999999344348907 0 0
          0.14000000059604645 0 0 0.14000000059604645 0.019999999552965164 0
          <InformationKey name="L2_NORM_RANGE" location="vtkDataArray" length="2">
            <Value index="0">
              0.1400000006
            </Value>
            <Value index="1">
              0.35057095688
            </Value>
          </InformationKey>
        </DataArray>
      </Points>
      <Cells>
        <DataArray type="Int64" Name="connectivity" format="ascii" RangeMin="0" RangeMax="7">
          5 4 6 4 7 6
          3 2 5 2 4 5
          1 0 3 0 2 3
        </DataArray>
        <DataArray type="Int64" Name="offsets" format="ascii" RangeMin="3" RangeMax="18">
          3 6 9 12 15 18
        </DataArray>
        <DataArray type="UInt8" Name="types" format="ascii" RangeMin="5" RangeMax="5">
          5 5 5 5 5 5
        </DataArray>
      </Cells>
    </Piece>
  </UnstructuredGrid>
</VTKFile>
