<?xml version="1.0"?>
<VTKFile type="UnstructuredGrid" version="0.1" byte_order="LittleEndian" header_type="UInt32" compressor="vtkZLibDataCompressor">
  <UnstructuredGrid>
    <Piece NumberOfPoints="8" NumberOfCells="6">
      <PointData>
        <DataArray type="Float64" Name="Disp" NumberOfComponents="3" format="ascii" RangeMin="3.1001182592071816e-22" RangeMax="0.011659080319727093">
          0.0005462834534676553 -0.006171992162137692 0 -0.0008058278362524833 -0.0062020010458189775 0
          0.00037918207575671583 -0.0019144382127104492 0 -0.0004744835282282765 -0.0019478818339521858 0
          -2.428954226063819e-22 -1.9263734292074524e-22 0 -6.363258382108768e-21 -8.402734578272987e-22 0
          -0.000984274712182228 -0.011617459153911675 0 0.0005967563309610674 -0.011598125379362816 0
          <InformationKey name="L2_NORM_RANGE" location="vtkDataArray" length="2">
            <Value index="0">
              3.1001182592e-22
            </Value>
            <Value index="1">
              0.01165908032
            </Value>
          </InformationKey>
        </DataArray>
        <DataArray type="Float64" Name="Sld_traction" NumberOfComponents="3" format="ascii" RangeMin="1493.0333793514635" RangeMax="18287.299507936106">
          -7012.385852444322 7867.14151500308 0 -2130.074446651885 3582.031832081222 0
          -11372.009100679352 10312.320928382467 0 -5422.207436246362 6752.888362951628 0
          -14247.025712741059 11465.059163975355 0 -9388.745530990162 9681.113407362986 0
          -341.9464824107042 1453.3482979054252 0 -3400.279679610811 4365.593713210739 0
          <InformationKey name="L2_NORM_RANGE" location="vtkDataArray" length="2">
            <Value index="0">
              1493.0333794
            </Value>
            <Value index="1">
              18287.299508
            </Value>
          </InformationKey>
        </DataArray>
        <DataArray type="Float64" Name="Velocity" NumberOfComponents="3" format="ascii" RangeMin="5.016258940470287e-19" RangeMax="0.031010245514024745">
          -0.0049835713811489995 -0.02743756742512069 0 0.0005591840626960737 -0.026939833153893585 0
          0.00009496955725051188 -0.029912657492153893 0 -0.00317736680131169 -0.03084703660078248 0
          -3.9571717867725385e-19 -3.082798275563862e-19 0 -1.0612324059279097e-17 -1.3519766967914475e-18 0
          0.0031954949403920066 0.010905041790986607 0 -0.004580194059931777 0.01023144324048091 0
          <InformationKey name="L2_NORM_RANGE" location="vtkDataArray" length="2">
            <Value index="0">
              5.0162589405e-19
            </Value>
            <Value index="1">
              0.031010245514
            </Value>
          </InformationKey>
        </DataArray>
        <DataArray type="Float64" Name="Acceleration" NumberOfComponents="3" format="ascii" RangeMin="9.26694951121679e-18" RangeMax="1.2226830703792804">
          -0.005935879068614147 0.49822208640646126 0 0.16434718400658951 0.5250300675812554 0
          -0.0135343670861445 -0.10438086711033456 0 0.057363219248176445 -0.0986229836515049 0
          -7.314677074907902e-18 -5.6896267481494646e-18 0 -1.9655399719619259e-16 -2.496387114602686e-17 0
          0.16610670535517696 1.2113473709172577 0 0.13293805227199024 1.1958328437424806 0
          <InformationKey name="L2_NORM_RANGE" location="vtkDataArray" length="2">
            <Value index="0">
              9.2669495112e-18
            </Value>
            <Value index="1">
              1.2226830704
            </Value>
          </InformationKey>
        </DataArray>
      </PointData>
      <CellData>
        <DataArray type="UInt8" Name="vtkGhostType" format="ascii" RangeMin="0" RangeMax="1">
          1 1 0 0 0 0
        </DataArray>
        <DataArray type="Float64" Name="Gauss Stress" NumberOfComponents="6" format="ascii" RangeMin="6180.534179561399" RangeMax="23842.151076803624">
          -5714.345799245941 -2198.4159870923145 0 843.9324493488137 0 0
          5164.011689274739 5943.41476629025 0 -4955.312165747435 0 0
          -16990.646228466765 -8540.129048833127 0 7428.1984285377675 0 0
          16250.660389573539 10833.773593049027 0 -13674.55866221749 0 0
          -11199.581975765966 -4965.647677070129 0 3416.216443954955 0 0
          10505.849740356784 9790.868263715907 0 -9069.45953914121 0 0
          <InformationKey name="L2_NORM_RANGE" location="vtkDataArray" length="2">
            <Value index="0">
              6180.5341796
            </Value>
            <Value index="1">
              23842.151077
            </Value>
          </InformationKey>
        </DataArray>
        <DataArray type="Float64" Name="Gauss Strain" NumberOfComponents="6" format="ascii" RangeMin="0.00320655658300264" RangeMax="0.02788040317126119">
          -0.0025492410847106385 0.0009666887274429878 0 0.001687864898697627 0 0
          0.0007210411070487435 0.001500444184064253 0 -0.009910624331494866 0 0
          -0.006778336117546806 0.0016721810620868303 0 0.014856396857075533 0 0
          0.005416886796524511 3.238180574532768e-20 0 -0.027349117324434978 0 0
          -0.004733490114631526 0.0015004441840643088 0 0.006832432887909912 0 0
          0.0023871625387277065 0.0016721810620868303 0 -0.01813891907828242 0 0
          <InformationKey name="L2_NORM_RANGE" location="vtkDataArray" length="2">
            <Value index="0">
              0.003206556583
            </Value>
            <Value index="1">
              0.027880403171
            </Value>
          </InformationKey>
        </DataArray>
        <DataArray type="Float64" Name="Btraction" NumberOfComponents="3" format="ascii" RangeMin="0" RangeMax="0">
          0 0 0 0 0 0
          0 0 0 0 0 0
          0 0 0 0 0 0
          <InformationKey name="L2_NORM_RANGE" location="vtkDataArray" length="2">
            <Value index="0">
              0
            </Value>
            <Value index="1">
              0
            </Value>
          </InformationKey>
        </DataArray>
      </CellData>
      <Points>
        <DataArray type="Float32" Name="Points" NumberOfComponents="3" format="ascii" RangeMin="0" RangeMax="0.21095022452792997">
          0.14000000059604645 0.019999999552965164 0 0.14000000059604645 0 0
          0.07000000029802322 0.019999999552965164 0 0.07000000029802322 0 0
          0 0.019999999552965164 0 0 0 0
          0.20999999344348907 0 0 0.20999999344348907 0.019999999552965164 0
          <InformationKey name="L2_NORM_RANGE" location="vtkDataArray" length="2">
            <Value index="0">
              0
            </Value>
            <Value index="1">
              0.21095022453
            </Value>
          </InformationKey>
        </DataArray>
      </Points>
      <Cells>
        <DataArray type="Int64" Name="connectivity" format="ascii" RangeMin="0" RangeMax="7">
          6 7 1 7 0 1
          3 2 5 2 4 5
          1 0 3 0 2 3
        </DataArray>
        <DataArray type="Int64" Name="offsets" format="ascii" RangeMin="3" RangeMax="18">
          3 6 9 12 15 18
        </DataArray>
        <DataArray type="UInt8" Name="types" format="ascii" RangeMin="5" RangeMax="5">
          5 5 5 5 5 5
        </DataArray>
      </Cells>
    </Piece>
  </UnstructuredGrid>
</VTKFile>
