<?xml version="1.0"?>
<VTKFile type="UnstructuredGrid" version="0.1" byte_order="LittleEndian" header_type="UInt32" compressor="vtkZLibDataCompressor">
  <UnstructuredGrid>
    <Piece NumberOfPoints="8" NumberOfCells="6">
      <PointData>
        <DataArray type="Float64" Name="Disp" NumberOfComponents="3" format="ascii" RangeMin="1.4831961947108197e-21" RangeMax="0.0007228776876403299">
          0.00002879271083946763 0.0005227993049155695 0 0.00009512792260280271 0.0005287752722429669 0
          -0.000007193409678453771 0.00023001511392975146 0 0.00006404432600991951 0.00024044244999491492 0
          1.1687850981529175e-21 9.131332577123293e-22 0 3.122858553159743e-20 4.001144439148681e-21 0
          0.00010584217113435844 0.0007150871178379566 0 0.000059055056092266604 0.0007128829646608774 0
          <InformationKey name="L2_NORM_RANGE" location="vtkDataArray" length="2">
            <Value index="0">
              1.4831961947e-21
            </Value>
            <Value index="1">
              0.00072287768764
            </Value>
          </InformationKey>
        </DataArray>
        <DataArray type="Float64" Name="Sld_traction" NumberOfComponents="3" format="ascii" RangeMin="69.67377547296005" RangeMax="1445.0927394193852">
          4.866195179095761 -283.84110057462897 0 -281.13044294302705 16.396964629469124 0
          976.668678593796 -370.72576432343817 0 -168.8212720070985 -128.7225684551183 0
          1346.370407658496 -524.9569038541339 0 117.895468684275 -571.788059173188 0
          -69.25278855327407 -7.647631414494268 0 -247.91057091574933 25.330460987624285 0
          <InformationKey name="L2_NORM_RANGE" location="vtkDataArray" length="2">
            <Value index="0">
              69.673775473
            </Value>
            <Value index="1">
              1445.0927394
            </Value>
          </InformationKey>
        </DataArray>
        <DataArray type="Float64" Name="Velocity" NumberOfComponents="3" format="ascii" RangeMin="4.37496846860774e-19" RangeMax="0.03004885481607174">
          -0.002401960812801818 0.0068721676824244 0 0.002672080771546054 0.007687735287553583 0
          -0.0010356414005942124 -0.010109738651768414 0 -0.000046918631372711884 -0.010284224831412909 0
          -3.452483231279309e-19 -2.68713762934598e-19 0 -9.269792643409835e-18 -1.1787904114976017e-18 0
          0.0016402751232084986 0.030004052614230985 0 0.0019895531968724773 0.02953708052671356 0
          <InformationKey name="L2_NORM_RANGE" location="vtkDataArray" length="2">
            <Value index="0">
              4.3749684686e-19
            </Value>
            <Value index="1">
              0.030048854816
            </Value>
          </InformationKey>
        </DataArray>
        <DataArray type="Float64" Name="Acceleration" NumberOfComponents="3" format="ascii" RangeMin="1.9339198602958216e-17" RangeMax="1.3985591250134362">
          -0.2825880083680504 -1.3697122484978101 0 -0.18232987570757064 -1.367123960060554 0
          -0.036649767312643466 -1.173801591438921 0 -0.21366019541438297 -1.223077904503615 0
          -1.5253660315717365e-17 -1.1888248381379414e-17 0 -4.088461100380602e-16 -5.212990273339442e-17 0
          -0.17114396927798775 -0.4156338500366239 0 -0.32431419808466366 -0.4276912730834308 0
          <InformationKey name="L2_NORM_RANGE" location="vtkDataArray" length="2">
            <Value index="0">
              1.9339198603e-17
            </Value>
            <Value index="1">
              1.398559125
            </Value>
          </InformationKey>
        </DataArray>
      </PointData>
      <CellData>
        <DataArray type="UInt8" Name="vtkGhostType" format="ascii" RangeMin="0" RangeMax="1">
          1 1 0 0 0 0
        </DataArray>
        <DataArray type="Float64" Name="Gauss Stress" NumberOfComponents="6" format="ascii" RangeMin="289.08455177452714" RangeMax="1723.8130310107015">
          238.76676221590077 -24.501589945997065 0 161.12102105477422 0 0
          699.3609209516494 -31.75666331534682 0 -300.6398673311767 0 0
          1702.0232224802016 265.73747622317774 0 -63.49732081708278 0 0
          -308.2889862194478 -205.5259908129654 0 1642.965099498224 0 0
          734.5574069552579 -8.292339312941177 0 401.1398648312798 0 0
          499.52870139456877 -535.925537833911 0 310.3722576893681 0 0
          <InformationKey name="L2_NORM_RANGE" location="vtkDataArray" length="2">
            <Value index="0">
              289.08455177
            </Value>
            <Value index="1">
              1723.813031
            </Value>
          </InformationKey>
        </DataArray>
        <DataArray type="Float64" Name="Gauss Strain" NumberOfComponents="6" format="ascii" RangeMin="0.00037338082115838454" RangeMax="0.003287536692708044">
          0.00015306069330793927 -0.00011020765885395856 0 0.0003222420421095484 0 0
          0.0004323192178971283 -0.0002987983663698679 0 -0.0006012797346623532 0 0
          0.0009149189429988496 -0.000521366803258174 0 -0.00012699464163416551 0 0
          -0.00010276299540648244 -1.544005590718176e-19 0 0.003285930198996447 0 0
          0.0004440513798983312 -0.0002987983663698679 0 0.0008022797296625594 0 0
          0.0005140874359703055 -0.000521366803258174 0 0.0006207445153787361 0 0
          <InformationKey name="L2_NORM_RANGE" location="vtkDataArray" length="2">
            <Value index="0">
              0.00037338082116
            </Value>
            <Value index="1">
              0.0032875366927
            </Value>
          </InformationKey>
        </DataArray>
        <DataArray type="Float64" Name="Btraction" NumberOfComponents="3" format="ascii" RangeMin="0" RangeMax="0">
          0 0 0 0 0 0
          0 0 0 0 0 0
          0 0 0 0 0 0
          <InformationKey name="L2_NORM_RANGE" location="vtkDataArray" length="2">
            <Value index="0">
              0
            </Value>
            <Value index="1">
              0
            </Value>
          </InformationKey>
        </DataArray>
      </CellData>
      <Points>
        <DataArray type="Float32" Name="Points" NumberOfComponents="3" format="ascii" RangeMin="0" RangeMax="0.21095022452792997">
          0.14000000059604645 0.019999999552965164 0 0.14000000059604645 0 0
          0.07000000029802322 0.019999999552965164 0 0.07000000029802322 0 0
          0 0.019999999552965164 0 0 0 0
          0.20999999344348907 0 0 0.20999999344348907 0.019999999552965164 0
          <InformationKey name="L2_NORM_RANGE" location="vtkDataArray" length="2">
            <Value index="0">
              0
            </Value>
            <Value index="1">
              0.21095022453
            </Value>
          </InformationKey>
        </DataArray>
      </Points>
      <Cells>
        <DataArray type="Int64" Name="connectivity" format="ascii" RangeMin="0" RangeMax="7">
          6 7 1 7 0 1
          3 2 5 2 4 5
          1 0 3 0 2 3
        </DataArray>
        <DataArray type="Int64" Name="offsets" format="ascii" RangeMin="3" RangeMax="18">
          3 6 9 12 15 18
        </DataArray>
        <DataArray type="UInt8" Name="types" format="ascii" RangeMin="5" RangeMax="5">
          5 5 5 5 5 5
        </DataArray>
      </Cells>
    </Piece>
  </UnstructuredGrid>
</VTKFile>
