<?xml version="1.0"?>
<VTKFile type="UnstructuredGrid" version="0.1" byte_order="LittleEndian" header_type="UInt32" compressor="vtkZLibDataCompressor">
  <UnstructuredGrid>
    <Piece NumberOfPoints="8" NumberOfCells="6">
      <PointData>
        <DataArray type="Float64" Name="Disp" NumberOfComponents="3" format="ascii" RangeMin="2.433568810384734e-21" RangeMax="0.00481868727104071">
          0.00016449077810777018 -0.0028129914727056497 0 -0.00036310320774974133 -0.0028277855063017134 0
          0.00015053924952717777 -0.0010008769160012112 0 -0.0002346504323843433 -0.0010247754416620983 0
          -1.917915843998014e-21 -1.4979505900458653e-21 0 -5.126570332859112e-20 -6.5642590640290426e-21 0
          -0.0004142976084413386 -0.00480084414532794 0 0.00015012972700150081 -0.0047948200404743565 0
          <InformationKey name="L2_NORM_RANGE" location="vtkDataArray" length="2">
            <Value index="0">
              2.4335688104e-21
            </Value>
            <Value index="1">
              0.004818687271
            </Value>
          </InformationKey>
        </DataArray>
        <DataArray type="Float64" Name="Sld_traction" NumberOfComponents="3" format="ascii" RangeMin="382.92923634697553" RangeMax="8559.344197465873">
          -2140.0010260054696 2896.0916224759353 0 -164.30686030495005 1005.0278456621252 0
          -5231.527092911877 4142.25768324896 0 -1310.5618960353609 2285.246737867885 0
          -6994.134449471914 4934.0101736217475 0 -3230.3096107331057 4014.9862433441604 0
          -28.17724878269226 381.89113985573965 0 -613.0620944907521 1217.0875686811007 0
          <InformationKey name="L2_NORM_RANGE" location="vtkDataArray" length="2">
            <Value index="0">
              382.92923635
            </Value>
            <Value index="1">
              8559.3441975
            </Value>
          </InformationKey>
        </DataArray>
        <DataArray type="Float64" Name="Velocity" NumberOfComponents="3" format="ascii" RangeMin="4.442926140650082e-19" RangeMax="0.08096540008755436">
          -0.0057228020980491295 0.03345375108899883 0 0.005311576851844091 0.03431281265429164 0
          -0.0030697208259167007 -0.001979205093340164 0 0.0015724386506943814 -0.0021059814911209163 0
          -3.5059907328708153e-19 -2.7290331020886855e-19 0 -9.41233583115634e-18 -1.1971362478464717e-18 0
          0.0047632683000559985 0.08082516493295532 0 -0.002036601047394521 0.08033136069744365 0
          <InformationKey name="L2_NORM_RANGE" location="vtkDataArray" length="2">
            <Value index="0">
              4.4429261407e-19
            </Value>
            <Value index="1">
              0.080965400088
            </Value>
          </InformationKey>
        </DataArray>
        <DataArray type="Float64" Name="Acceleration" NumberOfComponents="3" format="ascii" RangeMin="1.8588775394399073e-17" RangeMax="1.123925503675344">
          0.2789314875924367 1.0803271100183673 0 0.1248871268354313 1.0749018695865218 0
          0.04276319378056784 1.0647798614283417 0 0.1792838564657751 1.109534062849192 0
          1.4662105643389818e-17 1.1426514287633514e-17 0 3.930216986466473e-16 5.010611539408833e-17 0
          0.09735857658875374 -0.0779145802394603 0 0.31410080862206413 -0.06402476371732702 0
          <InformationKey name="L2_NORM_RANGE" location="vtkDataArray" length="2">
            <Value index="0">
              1.8588775394e-17
            </Value>
            <Value index="1">
              1.1239255037
            </Value>
          </InformationKey>
        </DataArray>
      </PointData>
      <CellData>
        <DataArray type="UInt8" Name="vtkGhostType" format="ascii" RangeMin="0" RangeMax="1">
          1 1 0 0 0 0
        </DataArray>
        <DataArray type="Float64" Name="Gauss Stress" NumberOfComponents="6" format="ascii" RangeMin="1687.0619028766735" RangeMax="10546.7424477767">
          -1591.6352585672346 -559.0814345795214 0 17.407393026504238 0 0
          863.9297407662758 1808.7892935161763 0 -966.0686947672634 0 0
          -7666.594536097438 -3119.51921899104 0 2309.9174644873256 0 0
          6451.682122593336 4301.121415062225 0 -7149.1208285800785 0 0
          -4025.7155846250116 -1450.9742567447288 0 311.2063275833958 0 0
          2987.775219542663 3983.3939514356925 0 -3313.9333572436763 0 0
          <InformationKey name="L2_NORM_RANGE" location="vtkDataArray" length="2">
            <Value index="0">
              1687.0619029
            </Value>
            <Value index="1">
              10546.742448
            </Value>
          </InformationKey>
        </DataArray>
        <DataArray type="Float64" Name="Gauss Strain" NumberOfComponents="6" format="ascii" RangeMin="0.0007917116993750591" RangeMax="0.014459067253572298">
          -0.0007313485813085323 0.00030120524267918114 0 0.00003481478605300847 0 0
          -0.000205157872946705 0.0007397016798031951 0 -0.0019321373895345266 0 0
          -0.0033521490340620453 0.0011949262830443508 0 0.00461983492897465 0 0
          0.002150560707531111 2.533154236991589e-19 0 -0.014298241657160156 0 0
          -0.001835039648077115 0.0007397016798031673 0 0.0006224126551667916 0 0
          0.00019930755115132 0.0011949262830443508 0 -0.00662786671448735 0 0
          <InformationKey name="L2_NORM_RANGE" location="vtkDataArray" length="2">
            <Value index="0">
              0.00079171169938
            </Value>
            <Value index="1">
              0.014459067254
            </Value>
          </InformationKey>
        </DataArray>
        <DataArray type="Float64" Name="Btraction" NumberOfComponents="3" format="ascii" RangeMin="0" RangeMax="0">
          0 0 0 0 0 0
          0 0 0 0 0 0
          0 0 0 0 0 0
          <InformationKey name="L2_NORM_RANGE" location="vtkDataArray" length="2">
            <Value index="0">
              0
            </Value>
            <Value index="1">
              0
            </Value>
          </InformationKey>
        </DataArray>
      </CellData>
      <Points>
        <DataArray type="Float32" Name="Points" NumberOfComponents="3" format="ascii" RangeMin="0" RangeMax="0.21095022452792997">
          0.14000000059604645 0.019999999552965164 0 0.14000000059604645 0 0
          0.07000000029802322 0.019999999552965164 0 0.07000000029802322 0 0
          0 0.019999999552965164 0 0 0 0
          0.20999999344348907 0 0 0.20999999344348907 0.019999999552965164 0
          <InformationKey name="L2_NORM_RANGE" location="vtkDataArray" length="2">
            <Value index="0">
              0
            </Value>
            <Value index="1">
              0.21095022453
            </Value>
          </InformationKey>
        </DataArray>
      </Points>
      <Cells>
        <DataArray type="Int64" Name="connectivity" format="ascii" RangeMin="0" RangeMax="7">
          6 7 1 7 0 1
          3 2 5 2 4 5
          1 0 3 0 2 3
        </DataArray>
        <DataArray type="Int64" Name="offsets" format="ascii" RangeMin="3" RangeMax="18">
          3 6 9 12 15 18
        </DataArray>
        <DataArray type="UInt8" Name="types" format="ascii" RangeMin="5" RangeMax="5">
          5 5 5 5 5 5
        </DataArray>
      </Cells>
    </Piece>
  </UnstructuredGrid>
</VTKFile>
