<?xml version="1.0"?>
<VTKFile type="UnstructuredGrid" version="0.1" byte_order="LittleEndian" header_type="UInt32" compressor="vtkZLibDataCompressor">
  <UnstructuredGrid>
    <Piece NumberOfPoints="8" NumberOfCells="6">
      <PointData>
        <DataArray type="Float64" Name="Disp" NumberOfComponents="3" format="ascii" RangeMin="0.0032893110745171763" RangeMax="0.015490329557294943">
          0.0005921352567868894 -0.015474592055000643 0 -0.0006275482122849438 -0.015477612640031516 0
          0.0005945996488839929 -0.011183764412752744 0 -0.0006122105373311906 -0.01119075432863901 0
          0.0005644033577463921 -0.006949862692872456 0 -0.0005509061903553007 -0.006962558282473709 0
          -0.00040904587141275193 -0.003268249787840331 0 0.00045245687523324076 -0.003258043910231339 0
          <InformationKey name="L2_NORM_RANGE" location="vtkDataArray" length="2">
            <Value index="0">
              0.0032893110745
            </Value>
            <Value index="1">
              0.015490329557
            </Value>
          </InformationKey>
        </DataArray>
        <DataArray type="Float64" Name="Sld_traction" NumberOfComponents="3" format="ascii" RangeMin="45.18674672107851" RangeMax="7647.833353015252">
          -451.12670797141107 732.2081883175102 0 20.86307056109762 -40.08209532943059 0
          -1418.965328639716 1872.5828978567374 0 79.73772876160128 344.0984587810563 0
          -3595.990967516083 3748.2210929219445 0 -731.8376046799594 1425.9394586994924 0
          -2754.3168920790554 3151.144574130269 0 -5436.840224114497 5378.673012271999 0
          <InformationKey name="L2_NORM_RANGE" location="vtkDataArray" length="2">
            <Value index="0">
              45.186746721
            </Value>
            <Value index="1">
              7647.833353
            </Value>
          </InformationKey>
        </DataArray>
        <DataArray type="Float64" Name="Velocity" NumberOfComponents="3" format="ascii" RangeMin="0.03740471039635551" RangeMax="0.11594601689351046">
          0.005948776457679621 -0.11515183212660486 0 -0.007866947366013384 -0.11567882248973053 0
          0.005464169954376999 -0.0651011090661384 0 -0.005377503659454495 -0.06541959467619514 0
          0.0019632677043368626 -0.03817349324861924 0 -0.0022546901833545817 -0.037777500730219515 0
          -0.0022371217319289817 -0.03733775095251128 0 -0.0002776037985006566 -0.03775165652880648 0
          <InformationKey name="L2_NORM_RANGE" location="vtkDataArray" length="2">
            <Value index="0">
              0.037404710396
            </Value>
            <Value index="1">
              0.11594601689
            </Value>
          </InformationKey>
        </DataArray>
        <DataArray type="Float64" Name="Acceleration" NumberOfComponents="3" format="ascii" RangeMin="0.24489348947498601" RangeMax="1.9337531227511522">
          -0.22567271512971232 -0.09510334817039201 0 -0.5361778717330659 -0.13968404381924238 0
          -0.24931906828394246 1.1226112002867916 0 -0.3247138332128942 1.0969100382554133 0
          -0.4700833706750486 0.459695254233198 0 -0.08117817273619143 0.4938946942877269 0
          -0.1422458916944117 -1.849098663416589 0 -0.4803637160915878 -1.8731395676810934 0
          <InformationKey name="L2_NORM_RANGE" location="vtkDataArray" length="2">
            <Value index="0">
              0.24489348947
            </Value>
            <Value index="1">
              1.9337531228
            </Value>
          </InformationKey>
        </DataArray>
      </PointData>
      <CellData>
        <DataArray type="UInt8" Name="vtkGhostType" format="ascii" RangeMin="0" RangeMax="0">
          0 0 0 0 0 0
        </DataArray>
        <DataArray type="Float64" Name="Gauss Stress" NumberOfComponents="6" format="ascii" RangeMin="378.0299967810021" RangeMax="8920.370612780413">
          -4810.168994555408 -2148.813529599221 0 1494.8208837324669 0 0
          5818.294154319966 4729.352570295973 0 -4832.5654955724485 0 0
          -1928.337567482933 -703.0653877997643 0 -31.14567437254717 0 0
          2563.6857231652975 2767.089615547916 0 -2359.4164394597183 0 0
          -355.27042350235445 14.868470237652048 0 -128.3297831506554 0 0
          593.3747844650495 978.0761801655576 0 -478.51421781971305 0 0
          <InformationKey name="L2_NORM_RANGE" location="vtkDataArray" length="2">
            <Value index="0">
              378.02999678
            </Value>
            <Value index="1">
              8920.3706128
            </Value>
          </InformationKey>
        </DataArray>
        <DataArray type="Float64" Name="Gauss Strain" NumberOfComponents="6" format="ascii" RangeMin="0.00036972016864007194" RangeMax="0.009809827266126753">
          -0.0020265759848935557 0.0006347794800626305 0 0.0029896417674649322 0 0
          0.0015992354644735899 0.0005102938804495971 0 -0.009665130991144896 0 0
          -0.0008757763853698541 0.0003494957943133148 0 -0.00006229134874509434 0 0
          0.00043137558768001176 0.0006347794800626305 0 -0.004718832878919436 0 0
          -0.0002191096421964734 0.00015102925154353297 0 -0.00025665956630131065 0 0
          -0.000035205601387193475 0.0003494957943133148 0 -0.000957028435639426 0 0
          <InformationKey name="L2_NORM_RANGE" location="vtkDataArray" length="2">
            <Value index="0">
              0.00036972016864
            </Value>
            <Value index="1">
              0.0098098272661
            </Value>
          </InformationKey>
        </DataArray>
        <DataArray type="Float64" Name="Btraction" NumberOfComponents="3" format="ascii" RangeMin="0" RangeMax="0">
          0 0 0 0 0 0
          0 0 0 0 0 0
          0 0 0 0 0 0
          <InformationKey name="L2_NORM_RANGE" location="vtkDataArray" length="2">
            <Value index="0">
              0
            </Value>
            <Value index="1">
              0
            </Value>
          </InformationKey>
        </DataArray>
      </CellData>
      <Points>
        <DataArray type="Float32" Name="Points" NumberOfComponents="3" format="ascii" RangeMin="0.14000000059604645" RangeMax="0.35057095688290196">
          0.3499999940395355 0.019999999552965164 0 0.3499999940395355 0 0
          0.2800000011920929 0.019999999552965164 0 0.2800000011920929 0 0
          0.20999999344348907 0.019999999552965164 0 0.20999999344348907 0 0
          0.14000000059604645 0 0 0.14000000059604645 0.019999999552965164 0
          <InformationKey name="L2_NORM_RANGE" location="vtkDataArray" length="2">
            <Value index="0">
              0.1400000006
            </Value>
            <Value index="1">
              0.35057095688
            </Value>
          </InformationKey>
        </DataArray>
      </Points>
      <Cells>
        <DataArray type="Int64" Name="connectivity" format="ascii" RangeMin="0" RangeMax="7">
          5 4 6 4 7 6
          3 2 5 2 4 5
          1 0 3 0 2 3
        </DataArray>
        <DataArray type="Int64" Name="offsets" format="ascii" RangeMin="3" RangeMax="18">
          3 6 9 12 15 18
        </DataArray>
        <DataArray type="UInt8" Name="types" format="ascii" RangeMin="5" RangeMax="5">
          5 5 5 5 5 5
        </DataArray>
      </Cells>
    </Piece>
  </UnstructuredGrid>
</VTKFile>
