<?xml version="1.0"?>
<VTKFile type="UnstructuredGrid" version="0.1" byte_order="LittleEndian" header_type="UInt32" compressor="vtkZLibDataCompressor">
  <UnstructuredGrid>
    <Piece NumberOfPoints="33" NumberOfCells="46">
      <PointData>
        <DataArray type="Float64" Name="proc" format="ascii" RangeMin="0" RangeMax="1">
          1 1 1 1 1 1
          1 1 1 1 1 1
          1 1 1 1 1 1
          1 1 1 1 1 1
          1 1 1 1 0 0
          0 0 0
        </DataArray>
        <DataArray type="Float64" Name="Displacement" NumberOfComponents="3" format="ascii" RangeMin="0" RangeMax="8.85479501700198e-10">
          7.885339375466697e-11 -8.451372384138266e-10 0 1.2458762865708742e-10 -6.546883976891361e-10 0
          1.7828170648792085e-10 -7.964497320316222e-10 0 5.1507239977628766e-11 -7.153496173874608e-10 0
          1.0250847862329344e-10 -5.2840773010967e-10 0 1.7523931252284783e-10 -5.721523044505482e-10 0
          2.3533767238692085e-10 -6.719890300384342e-10 0 1.396228304742142e-10 -5.778945648107752e-10 0
          1.1599086378459474e-10 -5.204611288287176e-10 0 1.0256612209783912e-10 -5.125068784464672e-10 0
          2.8287515486296904e-10 -5.439662137914396e-10 0 2.194225613546019e-11 -5.149073927361324e-10 0
          2.823516068475019e-10 -5.016471190037839e-10 0 1.4424441588749212e-10 -4.310361410285073e-10 0
          1.1733507014722077e-10 -5.036071841915132e-10 0 1.0289107210067824e-10 -4.947672993575219e-10 0
          4.6079149650281725e-10 -3.97102453948011e-10 0 5.8828282065319424e-12 -2.6527191725990206e-10 0
          2.7946687822726e-10 -2.6094226079531024e-10 0 1.1838173383641137e-10 -4.85164453662588e-10 0
          3.1191547710470244e-10 -3.487553529328701e-10 0 4.841480103934016e-10 -1.866343125201082e-10 0
          4.088268703800688e-10 -1.814273770544594e-10 0 0 0 0
          2.0589448165981596e-10 -6.466424168097549e-12 0 4.07731762967721e-10 -7.89021620053981e-12 0
          6.094656289268331e-10 -8.52854195496916e-12 0 4.741959492681633e-10 -7.389762084306372e-11 0
          1.0252391784389299e-10 -5.421232352267587e-10 0 1.1431553935643607e-10 -5.352928186037406e-10 0
          5.4501241349621216e-11 -6.783105470347983e-10 0 1.3248990541407053e-10 -8.665047159061346e-10 0
          1.0907274885129469e-10 -8.787360715193461e-10 0
          <InformationKey name="L2_NORM_RANGE" location="vtkDataArray" length="2">
            <Value index="0">
              0
            </Value>
            <Value index="1">
              8.854795017e-10
            </Value>
          </InformationKey>
        </DataArray>
        <DataArray type="Float64" Name="TopologicalDerivative1" format="ascii" RangeMin="-0.05366788237353364" RangeMax="0.35997851340994386">
          0.1768963993400965 -0.03861072207094663 0.1048626188433564 0.13079639527270093 -0.04732924874801564 -0.03788207403453808
          0.09003753395567382 0.12972160477081754 -0.053570213044029744 -0.04668289431654951 -0.031531413418073945 0.11409338257229867
          0.053187659290914464 0.002037947079185108 -0.05366788237353364 -0.019401772980630817 -0.01403750492816238 -0.01574517175815421
          -0.03460436316668872 -0.006246437975669407 0.0019106088696848392 -0.03326901211176961 -0.006458599397395598 -0.018353625142744814
          -0.03735896736290657 -0.05076979044918969 -0.023961635748417313 -0.03135806877596163 -0.04744534975504219 -0.053468918745032755
          -0.03704618700985319 0.15746790204544436 0.35997851340994386
        </DataArray>
      </PointData>
      <CellData>
        <DataArray type="UInt8" Name="vtkGhostType" format="ascii" RangeMin="0" RangeMax="1">
          1 1 1 0 0 1
          1 1 1 0 0 0
          1 0 0 0 0 0
          0 0 0 0 0 0
          0 0 0 0 0 0
          0 0 0 0 0 0
          0 0 0 0 0 0
          0 0 0 0
        </DataArray>
        <DataArray type="Float64" Name="Stress" NumberOfComponents="6" format="ascii" RangeMin="5.54941903203856e-7" RangeMax="1.9341363560375375">
          7.872230468679493e-8 -3.551611416926003e-7 0 -4.190750268244649e-7 0 0
          -0.00035605971393570704 0.0016165897791796243 0 -0.000039852616351589847 0 0
          0.0005457329728796909 0.0018184923407749873 0 -0.0001809295277267322 0 0
          -0.00027959272285151286 0.0010940916117920408 0 -0.0006335753672655646 0 0
          0.008883182930893074 1.1183865159914892 0 -0.26613457547155733 0 0
          -0.1263825217366646 1.4023270308125846 0 -0.19736247791174572 0 0
          0.07910041366847276 1.8890008537789913 0 -0.4078018424748512 0 0
          -0.5146005176000147 -0.016370920110756415 0 -0.005096717806329866 0 0
          0.29561986884936076 0.018380199739115186 0 0.03391597309121734 0 0
          0.265839015950215 0.01105313230216079 0 -0.04948568978799483 0 0
          -0.00001630036772102547 -0.000021975614705614778 0 -0.00001989146444126106 0 0
          -8.161800621860099e-7 0.000004886031537424791 0 -0.00003197718103896789 0 0
          -0.000019667670599213647 0.00000145407512896729 0 -0.0000010653295417076144 0 0
          -7.776044538706054e-7 -2.862758644083097e-7 0 -0.0000016892988745966602 0 0
          -0.000015566382600437375 0.0000018803125035837236 0 -0.0000026598936989730362 0 0
          0.0002353850091365572 0.0007869224361036844 0 -0.0004608457113711346 0 0
          -0.001211288371193012 0.0002678057896281403 0 -0.0008042097466759144 0 0
          0.00017994024585776377 0.0006127988196394438 0 -0.0010419457201564536 0 0
          -0.000004148448887021538 -8.301628431738111e-7 0 -0.000004031431478376548 0 0
          -0.002345733850281696 -0.0009709090717493168 0 -0.00204755192834312 0 0
          -0.18555774910684097 1.809745362641844 0 -0.5268488328176288 0 0
          -0.000012059538353963008 0.0000016680863877475451 0 -0.000005353600014400178 0 0
          -0.03307738855713585 -0.012190314759245341 0 -0.02311260275152739 0 0
          -0.46904599241756795 0.6829953127800955 0 -0.08534234269016475 0 0
          -0.06694192373212333 -0.03939027137983165 0 -0.02523692355220617 0 0
          -0.3140966125319218 0.5152680055719197 0 -0.5369127032226443 0 0
          -0.20458236353023562 -0.04971759848064919 0 -0.09029838881817696 0 0
          -0.9907578029944055 -0.05448220275058301 0 -0.05608197007724268 0 0
          -0.44533756514497125 0.03219293249422009 0 0.016719806483301847 0 0
          -0.04243978146057667 -0.00005551797366078713 0 -0.019318710761946488 0 0
          -0.061120667103889914 -0.0074170014387319565 0 0.013123681439508258 0 0
          -0.01805857941248624 -0.010627809325026513 0 -0.019017184292812333 0 0
          -0.06200361798828535 0.022732163633970025 0 -0.03518282722233814 0 0
          -0.003247692795890946 0.045231710568645896 0 -0.04797914586343826 0 0
          0.13724547806323265 -0.0012942878823353904 0 -0.05690050927969284 0 0
          0.2712449691618217 -0.041929585743322034 0 0.015852437367564386 0 0
          0.0001246306874485333 0.00007899926187317377 0 -0.00012423278229552003 0 0
          0.007905210025562246 0.05346038362769337 0 -0.08566953516470835 0 0
          -0.000004834335660537637 0.000007661673135167242 0 -0.000012799250786703728 0 0
          -0.000050841660845531445 0.000015305113356422065 0 0.000003857248149179954 0 0
          -0.000007361399716551709 -0.000009868328968117718 0 -0.000012401265288450274 0 0
          -0.013258209552264883 -0.005695855698716094 0 -0.006768773946248393 0 0
          -0.005238501958101201 -0.005648613255961832 0 -0.013845444456616746 0 0
          -0.0011206127809387629 -0.0011206127809387637 0 -0.001120612780938764 0 0
          0.00003647914700830272 -0.00006665334591467978 0 -0.000029183317606641543 0 0
          -0.3897328847043232 -0.017870131127911137 0 -0.008032283739472948 0 0
          <InformationKey name="L2_NORM_RANGE" location="vtkDataArray" length="2">
            <Value index="0">
              5.549419032e-07
            </Value>
            <Value index="1">
              1.934136356
            </Value>
          </InformationKey>
        </DataArray>
        <DataArray type="Float64" Name="Strain" NumberOfComponents="6" format="ascii" RangeMin="4.86807784115112e-15" RangeMax="2.380231453416896e-11">
          7.719610299773956e-16 -1.5782409712443279e-15 0 -4.5399794572650375e-15 0 0
          -3.5043193653733106e-12 7.180865389001403e-12 0 -4.3173667714222324e-13 0 0
          7.719610299773956e-16 6.894885203796167e-12 0 -1.9600698837062655e-12 0 0
          -2.532584193288021e-12 4.908205952697894e-12 0 -6.863733145376948e-12 0 0
          -2.5325841932880203e-12 8.650873498198375e-12 0 -5.3651118952795475e-12 0 0
          -3.5043193653733106e-12 9.225453983132144e-12 0 -3.2869286479257453e-12 0 0
          -2.145233615177144e-12 8.206404355016974e-12 0 -4.664805801826334e-12 0 0
          -2.1237051731949494e-12 5.750384798718667e-13 0 -5.521444290190689e-14 0 0
          1.2087742038651092e-12 -2.9294067048205435e-13 0 3.674230418215212e-13 0 0
          1.0938461510815282e-12 -2.862440520120988e-13 0 -5.360949727032773e-13 0 0
          -4.0448680455587675e-14 -7.118960162211304e-14 0 -2.1549086478032815e-13 0 0
          -9.508289680889362e-15 2.1378689817002466e-14 0 -3.464194612554854e-13 0 0
          -8.376622140793264e-14 3.06432346197141e-14 0 -1.154107003516582e-14 0 0
          -2.882173727283801e-15 -2.208105343630339e-16 0 -1.8300737808130488e-14 0 0
          -6.721031813130208e-14 2.7292613682145575e-14 0 -2.881551507220789e-14 0 0
          -2.882173727283801e-15 2.9846122223446543e-12 0 -4.992495206520626e-12 0 0
          -5.3817921170060586e-12 2.629967920775183e-12 0 -8.71227225565574e-12 0 0
          -1.6247500141955812e-14 2.3284031078421446e-12 0 -1.1287745301694917e-11 0 0
          -1.6247500141955812e-14 1.726549262219377e-15 0 -4.3673841015745955e-14 0 0
          -8.560254703153754e-12 -1.1132871527700332e-12 0 -2.2181812557050473e-11 0 0
          -3.2939538056233187e-12 8.43478443752003e-12 0 -6.193817889060515e-12 0 0
          -5.2333184459530294e-14 2.2024782891401862e-14 0 -5.799733348933524e-14 0 0
          -1.0451220250201213e-11 -8.053604913103437e-13 0 -2.1347262614326024e-11 0 0
          -5.381792117006062e-12 6.577738419533673e-12 0 -1.7719058316016605e-12 0 0
          -1.0451220250201213e-11 -3.66058126882502e-12 0 -1.2440258366527151e-11 0 0
          -2.1612474256936096e-12 2.810621727202407e-12 0 -6.4373609596556156e-12 0 0
          -1.452225682718287e-11 8.925510432541178e-13 0 -1.7976100815398882e-11 0 0
          -8.16551135384384e-12 2.0341866256269196e-12 0 -1.2219033727518437e-12 0 0
          -1.895814353721822e-12 6.90809175157131e-13 0 1.8113123690243667e-13 0 0
          -9.90719698234767e-12 2.9603606943410265e-12 0 -1.1730043394306078e-11 0 0
          -5.114050811657826e-13 9.481416020060474e-14 0 2.9628622581547324e-13 0 0
          -6.195931922907619e-14 -2.1709314588669335e-14 0 -2.0601949650546693e-13 0 0
          -4.565343092428454e-13 2.7418120493124554e-13 0 -6.067953157846788e-13 0 0
          -7.007169152701967e-14 1.9252507669755488e-13 0 -5.197740801872478e-13 0 0
          6.423771171571297e-13 -1.9821028215241339e-13 0 -6.904855192782377e-13 0 0
          1.182599353686743e-12 -5.13762818716119e-13 0 1.7173473814861418e-13 0 0
          5.708211966420442e-14 2.353283252275694e-14 0 -1.8267767149768665e-13 0 0
          -3.388710442810735e-14 2.1287008591676952e-13 0 -9.280866309510071e-13 0 0
          -2.9720156671199205e-14 3.7966557638868883e-14 0 -1.3865855018929038e-13 0 0
          -2.309716452185753e-13 1.273233817086729e-13 0 4.17868549494495e-14 0 0
          -1.833708760881831e-14 -3.191628772146752e-14 0 -1.3434704062487796e-13 0 0
          -9.611717957228833e-12 -1.4300856911487837e-12 0 -1.4646132776355026e-11 0 0
          -1.9688620695679087e-12 -2.265056382695884e-12 0 -1.999916574925846e-11 0 0
          -3.268453944404723e-12 -3.268453944404728e-12 0 -1.2139971793503274e-11 0 0
          2.353131282612776e-13 -3.2332120840487746e-13 0 -3.1615260740528345e-13 0 0
          -1.6015493556914576e-12 4.1270722618077425e-13 0 -8.701640717762358e-14 0 0
          <InformationKey name="L2_NORM_RANGE" location="vtkDataArray" length="2">
            <Value index="0">
              4.8680778412e-15
            </Value>
            <Value index="1">
              2.3802314534e-11
            </Value>
          </InformationKey>
        </DataArray>
      </CellData>
      <Points>
        <DataArray type="Float32" Name="Points" NumberOfComponents="3" format="ascii" RangeMin="0" RangeMax="128.28654354956544">
          100 0 0 100 45.35898208618164 0
          89.30555725097656 23.870376586914062 0 75 0 0
          90 62.67949295043945 0 80 45.35898208618164 0
          70 28.038475036621094 0 57 13.358983993530273 0
          80 80 0 70 62.67949295043945 0
          60 45.35898208618164 0 50 0 0
          48.827545166015625 28.876956939697266 0 41.327545166015625 13.757295608520508 0
          60 80 0 50 62.67949295043945 0
          38.48822784423828 45.76527404785156 0 25 0 0
          24.63772964477539 27.38901710510254 0 40 80 0
          30 62.67949295043945 0 17.464101791381836 47.607696533203125 0
          20 80 0 0 0 0
          0 20 0 0 40 0
          0 60 0 0 80 0
          110 62.67949295043945 0 100 80 0
          120 45.35898208618164 0 110.71759033203125 23.771137237548828 0
          125 0 0
          <InformationKey name="L2_NORM_RANGE" location="vtkDataArray" length="2">
            <Value index="0">
              0
            </Value>
            <Value index="1">
              128.28654355
            </Value>
          </InformationKey>
        </DataArray>
      </Points>
      <Cells>
        <DataArray type="Int64" Name="connectivity" format="ascii" RangeMin="0" RangeMax="32">
          28 29 4 30 28 1
          1 28 4 4 5 1
          1 5 2 31 30 1
          31 1 2 31 2 0
          0 32 31 3 0 2
          25 24 18 18 24 17
          4 29 8 4 8 9
          9 8 14 4 9 5
          5 9 10 10 9 15
          15 9 14 10 15 16
          2 5 6 15 14 19
          16 15 20 6 5 10
          15 19 20 6 10 12
          20 19 22 12 10 16
          6 12 7 20 22 26
          12 16 18 7 12 13
          13 12 18 7 13 11
          11 13 17 7 11 3
          17 13 18 7 3 6
          25 18 21 21 18 16
          25 21 26 26 21 20
          20 21 16 27 26 22
          24 23 17 2 6 3
        </DataArray>
        <DataArray type="Int64" Name="offsets" format="ascii" RangeMin="3" RangeMax="138">
          3 6 9 12 15 18
          21 24 27 30 33 36
          39 42 45 48 51 54
          57 60 63 66 69 72
          75 78 81 84 87 90
          93 96 99 102 105 108
          111 114 117 120 123 126
          129 132 135 138
        </DataArray>
        <DataArray type="UInt8" Name="types" format="ascii" RangeMin="5" RangeMax="5">
          5 5 5 5 5 5
          5 5 5 5 5 5
          5 5 5 5 5 5
          5 5 5 5 5 5
          5 5 5 5 5 5
          5 5 5 5 5 5
          5 5 5 5 5 5
          5 5 5 5
        </DataArray>
      </Cells>
    </Piece>
  </UnstructuredGrid>
</VTKFile>
