<?xml version="1.0"?>
<VTKFile type="UnstructuredGrid" version="0.1" byte_order="LittleEndian" header_type="UInt32" compressor="vtkZLibDataCompressor">
  <UnstructuredGrid>
    <Piece NumberOfPoints="33" NumberOfCells="46">
      <PointData>
        <DataArray type="Float64" Name="proc" format="ascii" RangeMin="0" RangeMax="1">
          1 1 1 1 1 1
          1 1 1 1 1 1
          1 1 1 1 1 1
          1 1 1 1 1 1
          1 1 1 1 0 0
          0 0 0
        </DataArray>
        <DataArray type="Float64" Name="Displacement" NumberOfComponents="3" format="ascii" RangeMin="0" RangeMax="1.275455925427679e-8">
          5.397545340022787e-9 -6.856000726190218e-9 0 2.469978195377682e-9 -6.851085219987099e-9 0
          3.858780654663112e-9 -7.542476402609623e-9 0 5.3799478418925364e-9 -8.452072996555847e-9 0
          1.6597358733526024e-9 -7.519126431138261e-9 0 2.4887212055421995e-9 -8.132678009752197e-9 0
          3.5955510330114266e-9 -8.769322945308465e-9 0 4.525999026297363e-9 -9.589875016607433e-9 0
          7.825741193881238e-10 -8.127514699060822e-9 0 1.9182279838180105e-9 -8.864584854527444e-9 0
          2.5054257381186548e-9 -9.397862333298476e-9 0 5.363151264609591e-9 -1.0029231557933597e-8 0
          3.5474931342185556e-9 -1.01009248748323e-8 0 4.5001463346569015e-9 -1.0569881685722277e-8 0
          1.2188794671221937e-9 -9.558457600020409e-9 0 2.2852112270303597e-9 -1.0435105190747762e-8 0
          2.4916827208780906e-9 -1.074108274243168e-8 0 5.349774118647158e-9 -1.1578372020725138e-8 0
          3.6454803629836207e-9 -1.1603590493214734e-8 0 2.135978847478772e-9 -1.0549721367823136e-8 0
          2.3403316790861275e-9 -1.0674783828626137e-8 0 2.6755852855713926e-9 -1.076852466491827e-8 0
          2.161972304771559e-9 -1.0758196027267321e-8 0 0 0 0
          4.0374202232960216e-9 -6.645868118275642e-9 0 3.193765168951203e-9 -9.29500816511494e-9 0
          2.3956831278984296e-9 -1.0868898434438811e-8 0 2.183498777563751e-9 -1.0890424907231013e-8 0
          1.4930700972592482e-9 -6.213479767123932e-9 0 5.154596335806339e-10 -6.824420096650196e-9 0
          2.453574610323986e-9 -5.55156414789921e-9 0 3.861253234993644e-9 -6.16140714307266e-9 0
          5.416316224767286e-9 -5.2285865998220674e-9 0
          <InformationKey name="L2_NORM_RANGE" location="vtkDataArray" length="2">
            <Value index="0">
              0
            </Value>
            <Value index="1">
              1.2754559254e-08
            </Value>
          </InformationKey>
        </DataArray>
        <DataArray type="Float64" Name="TopologicalDerivative1" format="ascii" RangeMin="-0.00105188237896107" RangeMax="0.8709326118359614">
          -0.0005536630616057942 -0.0005118947192129474 -0.0007686083626720966 -0.0006199265188273164 0.00004445658898992932 0.00019382190061030449
          -0.0008461385168992382 -0.0007193202286748272 0.0007671448291796212 0.002946201574601686 0.002964959155268151 -0.00025232437047559547
          -0.0006919299950821756 -0.0006506098290526908 0.0055335009285918425 0.006281319222998504 0.005479859956118943 0.2727963956725093
          0.0696247786870329 0.0038064649151023015 0.0018719829253022418 0.024207266043836075 -0.0004746036222631531 0.8709326118359614
          0.38146664445209866 0.10898319969628502 0.012060700573393725 -0.00105188237896107 -0.0007142573469606961 -0.00047922827554052274
          -0.0007720643589342662 -0.0007986876300964038 -0.0005618495080440364
        </DataArray>
      </PointData>
      <CellData>
        <DataArray type="UInt8" Name="vtkGhostType" format="ascii" RangeMin="0" RangeMax="1">
          1 1 1 0 0 1
          1 1 1 0 0 0
          1 0 0 0 0 0
          0 0 0 0 0 0
          0 0 0 0 0 0
          0 0 0 0 0 0
          0 0 0 0 0 0
          0 0 0 0
        </DataArray>
        <DataArray type="Float64" Name="Stress" NumberOfComponents="6" format="ascii" RangeMin="0.000029420621594607203" RangeMax="80.5594039871082">
          -0.011977076177671618 -0.00012888886372987123 0 0.002219861941471781 0 0
          -0.0002718359917668512 -0.00024997657040831716 0 0.0008351786818151022 0 0
          -0.012872553915212257 -0.00505894560095535 0 0.0071754836507991575 0 0
          -0.1238500368909139 -0.16297106448336904 0 0.5155764597391272 0 0
          -0.012641548973151305 0.00003702343992170731 0 -0.0004344885399347702 0 0
          -0.00019172274381491146 0.00001706758943146126 0 0.00001123588089817714 0 0
          -0.00004254503648323928 0.0000050997459918322295 0 -0.00000353580133452616 0 0
          -0.000037440795247335615 0.000022141082744977615 0 -0.000004185287669916199 0 0
          0.00018775458313458467 0.00002518029862464844 0 0.00001196059420919324 0 0
          0.00017334200983214963 0.000014686759272470026 0 -0.000028163577237229113 0 0
          -11.339164279509479 -35.19142984592441 0 -18.801492604570388 0 0
          0.4410652641452175 -0.7240419505957153 0 -24.216356199978957 0 0
          -2.1563971173694596 -0.25910061705382603 0 0.4071053230768593 0 0
          -3.114774775024272 -0.04289816479791886 0 0.8462713195903661 0 0
          -5.654813233339725 -1.3971635351029517 0 1.714632848031217 0 0
          -3.679013325759655 -1.9236933339158608 0 2.480626637058699 0 0
          -0.6739535987817441 -1.5783306928809304 0 2.754420590022018 0 0
          -5.990408007065552 -5.288696961724552 0 5.097049145101458 0 0
          -4.421877513331431 -0.060261982610812836 0 2.5435585599279564 0 0
          -1.8003022304018956 -6.323509351380605 0 4.569665679302476 0 0
          -0.001279940989127826 0.0001643410185031848 0 -0.0009171045745370691 0 0
          -10.353120896715973 2.173572225209885 0 1.33595762609282 0 0
          0.05910230504822578 2.401825765724803 0 0.15255651895976607 0 0
          -0.16535549942598315 -0.0035838529550090772 0 -0.012211066618042993 0 0
          -0.7030035513185273 -0.1385270888310401 0 0.1640128676345764 0 0
          -0.03677799939163664 -0.007525703495683449 0 -0.01025022974739892 0 0
          -0.24209367255937425 0.2094697382995201 0 -0.0563293484429834 0 0
          -0.1162803259039637 0.04168872873833148 0 -0.03663816930266949 0 0
          -0.000045921685224542014 0.00003268356053885584 0 -0.00002564150582950171 0 0
          -0.31093782851739094 -0.337900498064843 0 -0.38870081853181293 0 0
          -0.04256269594353923 0.016205564114361068 0 -0.04849974390758498 0 0
          0.000012450263370823386 0.000003389128359594693 0 -0.000046220869900817634 0 0
          -0.03053489241088348 0.039967143111118195 0 -0.07344520693559577 0 0
          0.00002441843450958442 0.00003645340770333595 0 -0.000014925834848412766 0 0
          0.12199120531620392 -0.02001959607249532 0 -0.03935721431259779 0 0
          0.00016388134851698857 0.000008780688669056766 0 0.000006316557661527175 0 0
          0.09453190825702758 0.003728066256670124 0 -0.03393390964510698 0 0
          0.0000597751877921769 0.000006155022012930215 0 -0.00003906097278005371 0 0
          -1.2254604767322843 1.994954673666118 0 -12.861137086435397 0 0
          -0.11475470354688166 10.310788182285606 0 -4.396619489788937 0 0
          -9.46721193551894 -21.72684681254213 0 -8.307442701746094 0 0
          0.11197515389153581 0.2508060985165228 0 -1.4752084207853549 0 0
          -2.250797084188683 0.4732062298844426 0 -1.1286285641855813 0 0
          -0.32661376181904844 -0.32661376181913293 0 -0.326613761818967 0 0
          30.145831113429004 -70.70666808527902 0 -24.1166648920804 0 0
          -0.000027425019340759946 -0.0000038254485470347545 0 -0.00000994018272397446 0 0
          <InformationKey name="L2_NORM_RANGE" location="vtkDataArray" length="2">
            <Value index="0">
              2.9420621595e-05
            </Value>
            <Value index="1">
              80.559403987
            </Value>
          </InformationKey>
        </DataArray>
        <DataArray type="Float64" Name="Strain" NumberOfComponents="6" format="ascii" RangeMin="1.5466226371356523e-13" RangeMax="4.737824924990065e-10">
          -8.333288804667713e-12 2.4181162722876962e-12 0 4.028740315338524e-12 0 0
          -8.201792526848166e-13 -7.017740536594241e-13 0 9.04776905299694e-12 0 0
          -8.333288804667713e-12 -8.786046607950123e-13 0 1.3691744465519037e-11 0 0
          -9.371505082258639e-13 -1.5729801984627193e-12 0 1.6759213183478192e-11 0 0
          -9.371505082258893e-13 2.8364058483608556e-13 0 -8.367183974797483e-14 0 0
          -8.20179252684791e-13 3.107683857330612e-13 0 1.2172204306358567e-13 0 0
          -1.8364566783662055e-13 7.443023723668338e-14 0 -3.830451445736674e-14 0 0
          -1.8367966696178702e-13 1.3905550549657624e-13 0 -4.534061642409214e-14 0 0
          7.508353897799588e-13 -1.2977531798219565e-13 0 1.2957310393292675e-13 0 0
          7.038999252100358e-13 -1.554826819882286e-13 0 -3.0510542006998203e-13 0 0
          -3.257230523883972e-12 -1.3245700234196488e-10 0 -2.0368283654951254e-10 0 0
          2.74282437218305e-12 -3.5681730409970016e-12 0 -2.623438588331054e-10 0 0
          -1.33557242903745e-11 2.49178794487863e-12 0 6.8008417107435976e-12 0 0
          -1.2924605523270405e-11 3.714726115455678e-12 0 9.1679392955623e-12 0 0
          -2.1815267386703495e-11 1.2470018120790245e-12 0 1.8575189187004854e-11 0 0
          -1.2924605523270405e-11 -3.4166222341165164e-12 0 2.687345523480257e-11 0 0
          -8.352266288227703e-13 -5.733935888526697e-12 0 2.98395563919052e-11 0 0
          -1.8349162160617447e-11 -1.4548227331687023e-11 0 5.52180324052658e-11 0 0
          -1.8349162160617447e-11 5.276255297452568e-12 0 2.755521773255286e-11 0 0
          4.031273958845267e-13 -2.4097577842750152e-11 0 4.9504711525776815e-11 0 0
          -1.4387239458539046e-13 5.934849450556232e-14 0 -2.5808644854962254e-13 0 0
          -4.5854969017828916e-11 2.1997952059269483e-11 0 1.4472874282672215e-11 0 0
          -2.756022602788397e-12 9.933729475876398e-12 0 1.6526956220641324e-12 0 0
          -8.352266288227703e-13 2.3398700448793595e-13 0 -1.6141566448876378e-13 0 0
          -2.756022602788397e-12 3.0155823568549206e-13 0 1.776806066041244e-12 0 0
          -2.278943086176175e-13 2.3156933689476913e-14 0 -1.7594057718892638e-13 0 0
          -1.29967286463936e-12 1.2023395018595178e-12 0 -6.242167678426409e-13 0 0
          -5.482302280920424e-13 3.259611313681479e-13 0 -4.055069026444344e-13 0 0
          -2.321948057758282e-13 1.935836087759102e-13 0 -2.777829798196019e-13 0 0
          -8.799300455456497e-13 -1.0271037036620066e-12 0 -4.243387048561376e-12 0 0
          -1.9781953805030308e-13 1.208597530060929e-13 0 -5.259935887044589e-13 0 0
          4.763968692893741e-14 -1.4414610485513468e-15 0 -5.007260905921912e-13 0 0
          -1.8061722327202907e-13 2.0866044162151246e-13 0 -8.110568281277316e-13 0 0
          5.6176717494098495e-14 1.2136615562691923e-13 0 -1.6169654419113832e-13 0 0
          5.350858384973273e-13 -2.366845500476707e-13 0 -4.277805953498333e-13 0 0
          6.718630913177981e-13 -1.6826548285849922e-13 0 6.842937466654442e-14 0 0
          3.892314334638892e-13 -1.0263353441584773e-13 0 -3.676254442528705e-13 0 0
          2.4136950495124094e-13 -4.90730596863452e-14 0 -4.231605384505818e-13 0 0
          -7.599778661800495e-12 9.844136736190847e-12 0 -1.3932898510305016e-10 0 0
          -1.3366629825969013e-11 4.3105060805623625e-11 0 -4.763004447271348e-11 0 0
          -1.2288157882317911e-11 -7.869451346619354e-11 0 -8.999729593558273e-11 0 0
          1.530555180690791e-13 9.050564681210919e-13 0 -1.5981424558508004e-11 0 0
          -9.969828971475068e-12 4.7851889797543655e-12 0 -1.2226809445343796e-11 0 0
          -1.0763236396095905e-12 -1.0763236396101075e-12 0 -3.997773518549354e-12 0 0
          2.139909647458863e-10 -3.3229340591378215e-10 0 -2.6126386966420444e-10 0 0
          -1.0948910323603967e-13 1.834190522997179e-14 0 -1.0768531284305661e-13 0 0
          <InformationKey name="L2_NORM_RANGE" location="vtkDataArray" length="2">
            <Value index="0">
              1.5466226371e-13
            </Value>
            <Value index="1">
              4.737824925e-10
            </Value>
          </InformationKey>
        </DataArray>
      </CellData>
      <Points>
        <DataArray type="Float32" Name="Points" NumberOfComponents="3" format="ascii" RangeMin="0" RangeMax="128.28654354956544">
          100 0 0 100 45.35898208618164 0
          89.30555725097656 23.870376586914062 0 75 0 0
          90 62.67949295043945 0 80 45.35898208618164 0
          70 28.038475036621094 0 57 13.358983993530273 0
          80 80 0 70 62.67949295043945 0
          60 45.35898208618164 0 50 0 0
          48.827545166015625 28.876956939697266 0 41.327545166015625 13.757295608520508 0
          60 80 0 50 62.67949295043945 0
          38.48822784423828 45.76527404785156 0 25 0 0
          24.63772964477539 27.38901710510254 0 40 80 0
          30 62.67949295043945 0 17.464101791381836 47.607696533203125 0
          20 80 0 0 0 0
          0 20 0 0 40 0
          0 60 0 0 80 0
          110 62.67949295043945 0 100 80 0
          120 45.35898208618164 0 110.71759033203125 23.771137237548828 0
          125 0 0
          <InformationKey name="L2_NORM_RANGE" location="vtkDataArray" length="2">
            <Value index="0">
              0
            </Value>
            <Value index="1">
              128.28654355
            </Value>
          </InformationKey>
        </DataArray>
      </Points>
      <Cells>
        <DataArray type="Int64" Name="connectivity" format="ascii" RangeMin="0" RangeMax="32">
          28 29 4 30 28 1
          1 28 4 4 5 1
          1 5 2 31 30 1
          31 1 2 31 2 0
          0 32 31 3 0 2
          25 24 18 18 24 17
          4 29 8 4 8 9
          9 8 14 4 9 5
          5 9 10 10 9 15
          15 9 14 10 15 16
          2 5 6 15 14 19
          16 15 20 6 5 10
          15 19 20 6 10 12
          20 19 22 12 10 16
          6 12 7 20 22 26
          12 16 18 7 12 13
          13 12 18 7 13 11
          11 13 17 7 11 3
          17 13 18 7 3 6
          25 18 21 21 18 16
          25 21 26 26 21 20
          20 21 16 27 26 22
          24 23 17 2 6 3
        </DataArray>
        <DataArray type="Int64" Name="offsets" format="ascii" RangeMin="3" RangeMax="138">
          3 6 9 12 15 18
          21 24 27 30 33 36
          39 42 45 48 51 54
          57 60 63 66 69 72
          75 78 81 84 87 90
          93 96 99 102 105 108
          111 114 117 120 123 126
          129 132 135 138
        </DataArray>
        <DataArray type="UInt8" Name="types" format="ascii" RangeMin="5" RangeMax="5">
          5 5 5 5 5 5
          5 5 5 5 5 5
          5 5 5 5 5 5
          5 5 5 5 5 5
          5 5 5 5 5 5
          5 5 5 5 5 5
          5 5 5 5 5 5
          5 5 5 5
        </DataArray>
      </Cells>
    </Piece>
  </UnstructuredGrid>
</VTKFile>
