<?xml version="1.0"?>
<VTKFile type="UnstructuredGrid" version="0.1" byte_order="LittleEndian" header_type="UInt32" compressor="vtkZLibDataCompressor">
  <UnstructuredGrid>
    <Piece NumberOfPoints="13" NumberOfCells="11">
      <PointData>
        <DataArray type="Float64" Name="Disp" NumberOfComponents="3" format="ascii" RangeMin="0.0013808952216919418" RangeMax="0.04215123337839651">
          -0.0011448017225460026 -0.0009052125806405936 0 0.0012702877663106776 -0.006189170574442827 0
          -0.001786600279357644 -0.006068158736225765 0 0.0013771925627029443 -0.013259557264714915 0
          -0.0025703871890138744 -0.01305684385103921 0 0.0012550479167734445 -0.022017568657551216 0
          -0.003438751018998417 -0.021734028702622928 0 0.0008503101330663513 -0.03196980860359775 0
          -0.004215777052172292 -0.03165096300489395 0 0.0001515188659040375 -0.04215096104898824 0
          -0.0048776954779699445 -0.04180902762713282 0 0.0009939832785651533 -0.0009585764733314218 0
          -0.0005902548276627609 0.0023797796591245417 0
          <InformationKey name="L2_NORM_RANGE" location="vtkDataArray" length="2">
            <Value index="0">
              0.0013808952217
            </Value>
            <Value index="1">
              0.042151233378
            </Value>
          </InformationKey>
        </DataArray>
        <DataArray type="Float64" Name="Nodal Stress" NumberOfComponents="6" format="ascii" RangeMin="7553.684183592998" RangeMax="32168.51125489213">
          -31892.914052676926 -2000.4327864905545 0 3695.0532136111374 0 0
          30244.47903824291 1870.2305009626502 0 -5189.763611650253 0 0
          -30424.75920272368 -1657.8618267839395 0 3535.286148087482 0 0
          26091.224537907012 2549.2484795625414 0 -6397.8611636984615 0 0
          -26181.516319710296 -659.157367290288 0 2357.961386508605 0 0
          18775.727203622886 3037.9314302141706 0 -6894.479872864387 0 0
          -19489.270041133022 419.4118417678997 0 941.4402654531398 0 0
          10377.253673134823 3182.1660598552003 0 -5600.23615532402 0 0
          -13029.419677304386 537.9551221846584 0 -964.1156212875678 0 0
          5117.491448044501 1130.443542064989 0 -6909.14400460853 0 0
          -7409.106500098167 -828.1707976426322 0 -1215.4911540599833 0 0
          31391.414129251698 1546.9005744181154 0 -3942.0623995899464 0 0
          -30434.335947289746 -2075.980177662263 0 3531.3175418399915 0 0
          <InformationKey name="L2_NORM_RANGE" location="vtkDataArray" length="2">
            <Value index="0">
              7553.6841836
            </Value>
            <Value index="1">
              32168.511255
            </Value>
          </InformationKey>
        </DataArray>
        <DataArray type="Float64" Name="Nodal Strain" NumberOfComponents="6" format="ascii" RangeMin="0" RangeMax="0">
          0 0 0 0 0 0
          0 0 0 0 0 0
          0 0 0 0 0 0
          0 0 0 0 0 0
          0 0 0 0 0 0
          0 0 0 0 0 0
          0 0 0 0 0 0
          0 0 0 0 0 0
          0 0 0 0 0 0
          0 0 0 0 0 0
          0 0 0 0 0 0
          0 0 0 0 0 0
          0 0 0 0 0 0
          <InformationKey name="L2_NORM_RANGE" location="vtkDataArray" length="2">
            <Value index="0">
              0
            </Value>
            <Value index="1">
              0
            </Value>
          </InformationKey>
        </DataArray>
        <DataArray type="Float64" Name="Sld_traction" NumberOfComponents="3" format="ascii" RangeMin="240.6139955043154" RangeMax="10654.765401320352">
          -7945.420519517241 5180.494092819533 0 -8463.561806739808 4791.2841907938055 0
          -7361.481081614682 4646.051782588111 0 -9425.157802833402 4968.946180918232 0
          -5600.408068077369 3226.835180450594 0 -9415.460570659245 4785.716589158933 0
          -3006.5107333404217 1702.3332799477414 0 -8027.59918128686 4163.705790988872 0
          -1334.1210757166364 779.8142505594981 0 -2766.2010080283 -1660.9430988174317 0
          -208.03172239223505 -120.90449665364292 0 -7324.986645549532 4595.321497739598 0
          -7949.904764491018 5202.9285288728015 0
          <InformationKey name="L2_NORM_RANGE" location="vtkDataArray" length="2">
            <Value index="0">
              240.6139955
            </Value>
            <Value index="1">
              10654.765401
            </Value>
          </InformationKey>
        </DataArray>
        <DataArray type="Float64" Name="Velocity" NumberOfComponents="3" format="ascii" RangeMin="1.9140965665388194" RangeMax="11.335003524325774">
          -0.3185895438468758 -2.7081389916621537 0 0.17777080326078196 -3.8804978979762725 0
          -0.6018396737430196 -3.828624543033204 0 0.16549673871618512 -5.829503471308826 0
          -0.8559762448407531 -5.735546648507535 0 -0.13221772549234617 -7.770318271874759 0
          -0.9658695331902654 -7.674105999655109 0 -0.3363804401593906 -9.3192153388862 0
          -1.222160849838736 -9.229845450346271 0 -0.4555691886501679 -11.323131209876948 0
          -1.4954837941799983 -11.235917101768894 0 0.1227938056419694 -2.737325495252387 0
          -0.2454581313988514 -1.8982929098971744 0
          <InformationKey name="L2_NORM_RANGE" location="vtkDataArray" length="2">
            <Value index="0">
              1.9140965665
            </Value>
            <Value index="1">
              11.335003524
            </Value>
          </InformationKey>
        </DataArray>
        <DataArray type="Float64" Name="Acceleration" NumberOfComponents="3" format="ascii" RangeMin="76.12979009387598" RangeMax="2241.9688505719155">
          47.98963605780955 -59.09940584114702 0 505.35728857677555 -906.8136540898695 0
          -336.9776413022232 -897.2770268830254 0 -118.10712677826339 -2238.8557420117404 0
          232.79781622744122 -2059.1986259390133 0 -575.1646345716929 -18.81260702306099 0
          -120.67383567398588 -227.5801292158858 0 821.2622038317377 -1049.0488075530934 0
          228.73193913674686 -1273.5469653794967 0 349.28854651924144 -834.0902474742215 0
          470.19618921129745 -1242.6108239038876 0 -233.78491550701864 27.9764207546782 0
          498.91672092850877 -1854.515919910054 0
          <InformationKey name="L2_NORM_RANGE" location="vtkDataArray" length="2">
            <Value index="0">
              76.129790094
            </Value>
            <Value index="1">
              2241.9688506
            </Value>
          </InformationKey>
        </DataArray>
        <DataArray type="Float64" Name="Sigma" NumberOfComponents="6" format="ascii" RangeMin="4537.8963360966445" RangeMax="64998.10633428209">
          -45146.76108301828 45146.7610830166 0 12177.592309998116 0 0
          43689.41364312334 -43689.41364312191 0 -14172.170158555158 0 0
          -42489.62569563984 42489.625695642186 0 13175.178257650603 0 0
          37800.21164781644 -37800.211647816475 0 -16108.576275605583 0 0
          -35982.89091080811 35982.89091081635 0 11918.659157118418 0 0
          27268.574795797183 -27268.574795802262 0 -15981.043098454571 0 0
          -25236.108247705008 25236.108247693104 0 7928.606491841925 0 0
          15181.773498780869 -15181.773498761435 0 -10326.507576279095 0 0
          -17112.309201180644 17112.309201175332 0 4491.867700467431 0 0
          9432.601149978458 -9432.601149987053 0 -14072.071665764131 0 0
          -2741.0816768533255 2741.0816768625136 0 2359.1196745283823 0 0
          45061.49924391613 -45061.49924391564 0 -11681.342944193824 0 0
          -44034.85102507652 44034.85102507685 0 9960.36937002735 0 0
          <InformationKey name="L2_NORM_RANGE" location="vtkDataArray" length="2">
            <Value index="0">
              4537.8963361
            </Value>
            <Value index="1">
              64998.106334
            </Value>
          </InformationKey>
        </DataArray>
        <DataArray type="Float64" Name="Press" format="ascii" RangeMin="-50903.43775718672" RangeMax="50276.52162218754">
          -50903.43775718672 49292.032586122674 -48164.18918658256 44205.31847660976 -40153.62514025558 33455.865959605675
          -27686.819403157893 21308.91122983298 -17864.1795103528 11061.10731523028 -4835.741200180659 50276.52162218754
          -49529.44357583101
        </DataArray>
        <DataArray type="Float64" Name="Dev strain" NumberOfComponents="6" format="ascii" RangeMin="0" RangeMax="0">
          0 0 0 0 0 0
          0 0 0 0 0 0
          0 0 0 0 0 0
          0 0 0 0 0 0
          0 0 0 0 0 0
          0 0 0 0 0 0
          0 0 0 0 0 0
          0 0 0 0 0 0
          0 0 0 0 0 0
          0 0 0 0 0 0
          0 0 0 0 0 0
          0 0 0 0 0 0
          0 0 0 0 0 0
          <InformationKey name="L2_NORM_RANGE" location="vtkDataArray" length="2">
            <Value index="0">
              0
            </Value>
            <Value index="1">
              0
            </Value>
          </InformationKey>
        </DataArray>
        <DataArray type="Float64" Name="J2 Stresses" format="ascii" RangeMin="8904890.16889295" RangeMax="2075303474.904189">
          2075303474.904189 1958977466.2306294 1848764622.2858944 1493727558.0264697 1330282047.3253038 807423606.0227895
          652576859.7152038 257145436.24872744 297875345.0563465 138479764.6962564 8904890.16889295 2064652157.3543983
          1963870344.297542
        </DataArray>
      </PointData>
      <CellData>
        <DataArray type="UInt8" Name="vtkGhostType" format="ascii" RangeMin="0" RangeMax="1">
          1 1 0 0 0 0
          0 0 0 0 0
        </DataArray>
        <DataArray type="Float64" Name="Gauss Stress" NumberOfComponents="6" format="ascii" RangeMin="7747.786278447286" RangeMax="31682.154865978613">
          -31425.4908583363 -2012.0822822174587 0 3485.539578610549 0 0
          30756.42275171491 1686.98821570085 0 -4558.64026425029 0 0
          -31240.855831060468 -1942.8737407032377 0 3726.866803031189 0 0
          -28261.600269619976 -1146.7302971954407 0 2995.087046387815 0 0
          28111.053823816612 2111.0540936178922 0 -5701.856058836713 0 0
          -22778.334315507916 -144.71807370020315 0 1288.7408501685918 0 0
          22197.81827625513 2807.221254385823 0 -6723.653405647246 0 0
          -17136.2438779275 974.852088809764 0 697.9888720100862 0 0
          14764.065944384602 3287.9059131367217 0 -6126.314727630581 0 0
          -7353.201041119564 -406.00788908412835 0 -2407.028096922772 0 0
          7335.968160763052 2334.5911957124354 0 -6635.570513858599 0 0
          <InformationKey name="L2_NORM_RANGE" location="vtkDataArray" length="2">
            <Value index="0">
              7747.7862784
            </Value>
            <Value index="1">
              31682.154866
            </Value>
          </InformationKey>
        </DataArray>
        <DataArray type="Float64" Name="Gauss Strain" NumberOfComponents="6" format="ascii" RangeMin="0" RangeMax="0">
          0 0 0 0 0 0
          0 0 0 0 0 0
          0 0 0 0 0 0
          0 0 0 0 0 0
          0 0 0 0 0 0
          0 0 0 0 0 0
          0 0 0 0 0 0
          0 0 0 0 0 0
          0 0 0 0 0 0
          0 0 0 0 0 0
          0 0 0 0 0 0
          <InformationKey name="L2_NORM_RANGE" location="vtkDataArray" length="2">
            <Value index="0">
              0
            </Value>
            <Value index="1">
              0
            </Value>
          </InformationKey>
        </DataArray>
      </CellData>
      <Points>
        <DataArray type="Float32" Name="Points" NumberOfComponents="3" format="ascii" RangeMin="0.4000000059604645" RangeMax="1.0012492197622458">
          0.5 0 0 0.6000000238418579 0.05000000074505806 0
          0.6000000238418579 0 0 0.699999988079071 0.05000000074505806 0
          0.699999988079071 0 0 0.800000011920929 0.05000000074505806 0
          0.800000011920929 0 0 0.8999999761581421 0.05000000074505806 0
          0.8999999761581421 0 0 1 0.05000000074505806 0
          1 0 0 0.5 0.05000000074505806 0
          0.4000000059604645 0 0
          <InformationKey name="L2_NORM_RANGE" location="vtkDataArray" length="2">
            <Value index="0">
              0.40000000596
            </Value>
            <Value index="1">
              1.0012492198
            </Value>
          </InformationKey>
        </DataArray>
      </Points>
      <Cells>
        <DataArray type="Int64" Name="connectivity" format="ascii" RangeMin="0" RangeMax="12">
          0 11 12 1 11 0
          2 1 0 4 3 2
          3 1 2 6 5 4
          5 3 4 8 7 6
          7 5 6 10 9 8
          9 7 8
        </DataArray>
        <DataArray type="Int64" Name="offsets" format="ascii" RangeMin="3" RangeMax="33">
          3 6 9 12 15 18
          21 24 27 30 33
        </DataArray>
        <DataArray type="UInt8" Name="types" format="ascii" RangeMin="5" RangeMax="5">
          5 5 5 5 5 5
          5 5 5 5 5
        </DataArray>
      </Cells>
    </Piece>
  </UnstructuredGrid>
</VTKFile>
