<?xml version="1.0"?>
<VTKFile type="UnstructuredGrid" version="0.1" byte_order="LittleEndian" header_type="UInt32" compressor="vtkZLibDataCompressor">
  <UnstructuredGrid>
    <Piece NumberOfPoints="13" NumberOfCells="11">
      <PointData>
        <DataArray type="Float64" Name="Disp" NumberOfComponents="3" format="ascii" RangeMin="0.03902145362139463" RangeMax="0.15119954638955177">
          -0.008661417032564792 -0.05573518337303286 0 -0.0015331469209256471 -0.07491721824154303 0
          -0.01077897197559789 -0.0739141940750501 0 -0.0035204666429526723 -0.09373879370886581 0
          -0.012991388189607185 -0.09265358335621776 0 -0.005693351439562224 -0.11283418206470434 0
          -0.0152255834150157 -0.11171744239389843 0 -0.00792629732745646 -0.1318783092803427 0
          -0.01742637026253538 -0.13076794993325336 0 -0.01015284766547958 -0.1508582861916699 0
          -0.01963514107725458 -0.1497520056633425 0 0.00024659890788077045 -0.056647896601832726 0
          -0.006617196494087827 -0.03845629406593001 0
          <InformationKey name="L2_NORM_RANGE" location="vtkDataArray" length="2">
            <Value index="0">
              0.039021453621
            </Value>
            <Value index="1">
              0.15119954639
            </Value>
          </InformationKey>
        </DataArray>
        <DataArray type="Float64" Name="Nodal Stress" NumberOfComponents="6" format="ascii" RangeMin="566.8608193036249" RangeMax="43401.5892869351">
          -27401.92840883204 -566.334599263513 0 4320.937299625607 0 0
          14708.797676043958 4620.602010449824 0 -8440.063815311272 0 0
          -16092.715815000065 -253.08821495338924 0 2635.1924418108774 0 0
          8528.698861888575 3321.7703397867226 0 -5536.13947509106 0 0
          -8255.386940704306 678.144065430518 0 1155.525272665573 0 0
          4466.626632325792 2106.2142091486025 0 -3260.8801927555596 0 0
          -2937.121924506363 516.4849122438834 0 241.85736793980726 0 0
          2080.602706304524 772.9887550951237 0 -1573.289191648891 0 0
          -511.6715120707584 195.00546259817347 0 -146.61623973377908 0 0
          898.3503602672209 500.04250233994554 0 -967.4095023216778 0 0
          -463.0237881638263 245.83712654484856 0 360.406221552126 0 0
          23825.56801479483 7299.077245924857 0 -12736.204027106602 0 0
          -42972.51726867973 -953.191057478557 0 6012.6648861187305 0 0
          <InformationKey name="L2_NORM_RANGE" location="vtkDataArray" length="2">
            <Value index="0">
              566.8608193
            </Value>
            <Value index="1">
              43401.589287
            </Value>
          </InformationKey>
        </DataArray>
        <DataArray type="Float64" Name="Nodal Strain" NumberOfComponents="6" format="ascii" RangeMin="0" RangeMax="0">
          0 0 0 0 0 0
          0 0 0 0 0 0
          0 0 0 0 0 0
          0 0 0 0 0 0
          0 0 0 0 0 0
          0 0 0 0 0 0
          0 0 0 0 0 0
          0 0 0 0 0 0
          0 0 0 0 0 0
          0 0 0 0 0 0
          0 0 0 0 0 0
          0 0 0 0 0 0
          0 0 0 0 0 0
          <InformationKey name="L2_NORM_RANGE" location="vtkDataArray" length="2">
            <Value index="0">
              0
            </Value>
            <Value index="1">
              0
            </Value>
          </InformationKey>
        </DataArray>
        <DataArray type="Float64" Name="Sld_traction" NumberOfComponents="3" format="ascii" RangeMin="526.7856926537094" RangeMax="18144.415784816334">
          -5682.446483965049 3576.8594127451906 0 -10691.87341015705 5922.392476268677 0
          -3866.1189500731107 1961.0451343871891 0 -7195.756860019497 3797.505546923184 0
          -2232.6534563529794 229.88231389971548 0 -4302.361320720385 2072.7030783586138 0
          -1026.6649981188639 -186.41784688414995 0 -2117.7442855789586 707.7317673051052 0
          -522.9179351315966 -63.71812224442682 0 -757.1269320012595 -11.58720682215187 0
          -612.2331139288668 -111.82180737035256 0 -15463.49510544205 9492.109528248284 0
          -7899.547881146364 5748.958893954507 0
          <InformationKey name="L2_NORM_RANGE" location="vtkDataArray" length="2">
            <Value index="0">
              526.78569265
            </Value>
            <Value index="1">
              18144.415785
            </Value>
          </InformationKey>
        </DataArray>
        <DataArray type="Float64" Name="Velocity" NumberOfComponents="3" format="ascii" RangeMin="0.6585010312239067" RangeMax="12.343310370209393">
          -0.3717620876462392 -0.5696439896808616 0 0.05391339803777828 -1.802739413392954 0
          -0.8120341679518989 -1.649435956281058 0 -0.11069995592890308 -4.217279294768704 0
          -1.2414585067045136 -3.931173342344775 0 -0.6708025430374358 -6.337088052028855 0
          -1.8317620584796555 -5.967721888574116 0 -1.119522831967637 -9.172094072436828 0
          -2.6264321838553673 -8.75065332733818 0 -1.9716264376787442 -12.184826633381574 0
          -3.454222101140304 -11.794484775791702 0 0.17908485076394637 -0.6603196211295959 0
          -0.17187573632030198 0.635674711930011 0
          <InformationKey name="L2_NORM_RANGE" location="vtkDataArray" length="2">
            <Value index="0">
              0.65850103122
            </Value>
            <Value index="1">
              12.34331037
            </Value>
          </InformationKey>
        </DataArray>
        <DataArray type="Float64" Name="Acceleration" NumberOfComponents="3" format="ascii" RangeMin="407.6978157219162" RangeMax="3366.4889008429104">
          1190.073310707617 2839.9389098918136 0 1817.7587714249744 1057.8114816595253 0
          637.3575357586021 999.7573258094317 0 1081.9118628190085 -300.7870506763038 0
          1540.8697695223605 -39.3453521229485 0 186.013409290847 2124.1575671484643 0
          548.4274599139555 2467.257941431032 0 -187.38681609515402 -362.082435500733 0
          -1187.9442222065072 340.9906288336101 0 -2790.637973396485 1882.9729740323055 0
          -2285.5055188838724 719.0541173339516 0 874.6148403096597 2919.288745836579 0
          1290.2887345479412 87.64347331093609 0
          <InformationKey name="L2_NORM_RANGE" location="vtkDataArray" length="2">
            <Value index="0">
              407.69781572
            </Value>
            <Value index="1">
              3366.4889008
            </Value>
          </InformationKey>
        </DataArray>
        <DataArray type="Float64" Name="Sigma" NumberOfComponents="6" format="ascii" RangeMin="1226.2015839301541" RangeMax="78876.07635608174">
          -32515.43365627946 32515.433656281548 0 18917.42565029666 0 0
          19994.46842776719 -19994.468427772 0 -19961.19691651158 0 0
          -18971.036576315393 18971.036576316048 0 11942.250214109798 0 0
          10822.719927795086 -10822.719927799175 0 -12713.558010386683 0 0
          -10395.302477866233 10395.302477881545 0 6453.565808359781 0 0
          4998.664109901751 -4998.664109907997 0 -6943.169639573061 0 0
          -3914.8615169952427 3914.861516975414 0 2528.2017194327404 0 0
          1962.1911680484855 -1962.19116803015 0 -2714.086471855908 0 0
          -758.8112908701314 758.811290886435 0 593.2800132349696 0 0
          422.38932405344985 -422.3893240677721 0 -1896.091779570027 0 0
          -540.6499313020859 540.6499312975916 0 1372.2183262717806 0 0
          32603.10958179746 -32603.109581796623 0 -30430.64905167817 0 0
          -52322.704045668805 52322.7040456672 0 27314.91724368413 0 0
          <InformationKey name="L2_NORM_RANGE" location="vtkDataArray" length="2">
            <Value index="0">
              1226.2015839
            </Value>
            <Value index="1">
              78876.076356
            </Value>
          </InformationKey>
        </DataArray>
        <DataArray type="Float64" Name="Press" format="ascii" RangeMin="-62615.690299400405" RangeMax="48013.46069786681">
          -39476.333757575536 29392.157142405627 -23380.223854098054 17172.586660191082 -11532.878041085867 8440.86123453897
          -4131.724425536284 2938.711952986261 -959.0989311574267 1231.7189125660047 -353.49665232151506 48013.46069786681
          -62615.690299400405
        </DataArray>
        <DataArray type="Float64" Name="Dev strain" NumberOfComponents="6" format="ascii" RangeMin="0" RangeMax="0">
          0 0 0 0 0 0
          0 0 0 0 0 0
          0 0 0 0 0 0
          0 0 0 0 0 0
          0 0 0 0 0 0
          0 0 0 0 0 0
          0 0 0 0 0 0
          0 0 0 0 0 0
          0 0 0 0 0 0
          0 0 0 0 0 0
          0 0 0 0 0 0
          0 0 0 0 0 0
          0 0 0 0 0 0
          <InformationKey name="L2_NORM_RANGE" location="vtkDataArray" length="2">
            <Value index="0">
              0
            </Value>
            <Value index="1">
              0
            </Value>
          </InformationKey>
        </DataArray>
        <DataArray type="Float64" Name="J2 Stresses" format="ascii" RangeMin="663789.8686903878" RangeMax="2924191534.6578903">
          1146720674.1646047 499391113.294013 395554563.82401025 157539905.95640394 118474441.51719862 37038544.04462336
          16924091.680708334 5691760.524109313 663789.8686903878 1077203.750218638 763048.1319535519 1294468854.8292665
          2924191534.6578903
        </DataArray>
      </PointData>
      <CellData>
        <DataArray type="UInt8" Name="vtkGhostType" format="ascii" RangeMin="0" RangeMax="1">
          1 1 0 0 0 0
          0 0 0 0 0
        </DataArray>
        <DataArray type="Float64" Name="Gauss Stress" NumberOfComponents="6" format="ascii" RangeMin="415.8538166355902" RangeMax="35832.43701775454">
          -35437.86382641998 -614.5117463190068 0 5267.231280767542 0 0
          19337.142811994032 5949.0465764699375 0 -10491.473439297699 0 0
          -21652.13409136521 -657.46622148079 0 3632.82631596496 0 0
          -12094.711453793128 267.7012971351919 0 1894.0860040276325 0 0
          11676.890575915182 3779.456056414508 0 -6910.834904262823 0 0
          -5511.7470390143035 695.9195509552598 0 679.5326294064869 0 0
          6502.2171378249295 2884.8294312728526 0 -4401.053947199987 0 0
          -1621.1976811747793 186.4567453747497 0 135.7984202706008 0 0
          3431.280840981313 1400.6183336754045 0 -2376.3514639987425 0 0
          -319.3161896772349 265.3984090677726 0 23.135519978908064 0 0
          1612.367045208881 528.5209110611173 0 -1338.9660793969886 0 0
          <InformationKey name="L2_NORM_RANGE" location="vtkDataArray" length="2">
            <Value index="0">
              415.85381664
            </Value>
            <Value index="1">
              35832.437018
            </Value>
          </InformationKey>
        </DataArray>
        <DataArray type="Float64" Name="Gauss Strain" NumberOfComponents="6" format="ascii" RangeMin="0" RangeMax="0">
          0 0 0 0 0 0
          0 0 0 0 0 0
          0 0 0 0 0 0
          0 0 0 0 0 0
          0 0 0 0 0 0
          0 0 0 0 0 0
          0 0 0 0 0 0
          0 0 0 0 0 0
          0 0 0 0 0 0
          0 0 0 0 0 0
          0 0 0 0 0 0
          <InformationKey name="L2_NORM_RANGE" location="vtkDataArray" length="2">
            <Value index="0">
              0
            </Value>
            <Value index="1">
              0
            </Value>
          </InformationKey>
        </DataArray>
      </CellData>
      <Points>
        <DataArray type="Float32" Name="Points" NumberOfComponents="3" format="ascii" RangeMin="0.4000000059604645" RangeMax="1.0012492197622458">
          0.5 0 0 0.6000000238418579 0.05000000074505806 0
          0.6000000238418579 0 0 0.699999988079071 0.05000000074505806 0
          0.699999988079071 0 0 0.800000011920929 0.05000000074505806 0
          0.800000011920929 0 0 0.8999999761581421 0.05000000074505806 0
          0.8999999761581421 0 0 1 0.05000000074505806 0
          1 0 0 0.5 0.05000000074505806 0
          0.4000000059604645 0 0
          <InformationKey name="L2_NORM_RANGE" location="vtkDataArray" length="2">
            <Value index="0">
              0.40000000596
            </Value>
            <Value index="1">
              1.0012492198
            </Value>
          </InformationKey>
        </DataArray>
      </Points>
      <Cells>
        <DataArray type="Int64" Name="connectivity" format="ascii" RangeMin="0" RangeMax="12">
          0 11 12 1 11 0
          2 1 0 4 3 2
          3 1 2 6 5 4
          5 3 4 8 7 6
          7 5 6 10 9 8
          9 7 8
        </DataArray>
        <DataArray type="Int64" Name="offsets" format="ascii" RangeMin="3" RangeMax="33">
          3 6 9 12 15 18
          21 24 27 30 33
        </DataArray>
        <DataArray type="UInt8" Name="types" format="ascii" RangeMin="5" RangeMax="5">
          5 5 5 5 5 5
          5 5 5 5 5
        </DataArray>
      </Cells>
    </Piece>
  </UnstructuredGrid>
</VTKFile>
