<?xml version="1.0"?>
<VTKFile type="UnstructuredGrid" version="0.1" byte_order="LittleEndian" header_type="UInt32" compressor="vtkZLibDataCompressor">
  <UnstructuredGrid>
    <Piece NumberOfPoints="13" NumberOfCells="11">
      <PointData>
        <DataArray type="Float64" Name="Disp" NumberOfComponents="3" format="ascii" RangeMin="0" RangeMax="0.05465970910896389">
          0 0 0 0 0 0
          0.0009171910038860219 -0.0018332368038565484 0 -0.0010836414712321657 -0.0017830866053975812 0
          0.001568404486106127 -0.007981612788740104 0 -0.0022686486042551345 -0.007794766340923121 0
          0.0016547315502615906 -0.017137339844599944 0 -0.0034658463674508886 -0.01680213925151073 0
          0.001270193676919714 -0.028489556228180987 0 -0.004744487807224338 -0.02803903725386369 0
          0.0005285984565284547 -0.0412076962619853 0 -0.006022475274804895 -0.04068740064587441 0
          -0.00043978283832685444 -0.054657939870906794 0
          <InformationKey name="L2_NORM_RANGE" location="vtkDataArray" length="2">
            <Value index="0">
              0
            </Value>
            <Value index="1">
              0.054659709109
            </Value>
          </InformationKey>
        </DataArray>
        <DataArray type="Float64" Name="Nodal Stress" NumberOfComponents="6" format="ascii" RangeMin="5821.79659222674" RangeMax="105506.53199248934">
          100907.55484816789 -3931.106081408551 0 -30558.796976040805 0 0
          -54461.64211901742 -9824.20736904463 0 -1796.0614275543874 0 0
          70850.48965783892 5243.500798813945 0 -12417.900787526676 0 0
          -66604.9905768684 -765.4874869685525 0 4315.705901253103 0 0
          50627.19468329069 6302.096953787266 0 -15130.996652340771 0 0
          -55462.03428058494 -2027.8465583369718 0 3898.3080724341366 0 0
          38011.13307750682 6364.521585606511 0 -13176.72203141035 0 0
          -41617.77749118733 -432.26545404690165 0 3214.2055112185785 0 0
          23455.989159593995 5861.393041569492 0 -10959.597871322001 0 0
          -27934.639443293872 444.60817179695863 0 1482.8405362234641 0 0
          11280.141237763131 4795.965786412257 0 -7853.2785194165945 0 0
          -14508.835193359035 1657.002515621207 0 -764.2416740538631 0 0
          1045.2545181461733 3457.374590654735 0 -4565.886495901196 0 0
          <InformationKey name="L2_NORM_RANGE" location="vtkDataArray" length="2">
            <Value index="0">
              5821.7965922
            </Value>
            <Value index="1">
              105506.53199
            </Value>
          </InformationKey>
        </DataArray>
        <DataArray type="Float64" Name="Nodal Strain" NumberOfComponents="6" format="ascii" RangeMin="0" RangeMax="0">
          0 0 0 0 0 0
          0 0 0 0 0 0
          0 0 0 0 0 0
          0 0 0 0 0 0
          0 0 0 0 0 0
          0 0 0 0 0 0
          0 0 0 0 0 0
          0 0 0 0 0 0
          0 0 0 0 0 0
          0 0 0 0 0 0
          0 0 0 0 0 0
          0 0 0 0 0 0
          0 0 0 0 0 0
          <InformationKey name="L2_NORM_RANGE" location="vtkDataArray" length="2">
            <Value index="0">
              0
            </Value>
            <Value index="1">
              0
            </Value>
          </InformationKey>
        </DataArray>
        <DataArray type="Float64" Name="Sld_traction" NumberOfComponents="3" format="ascii" RangeMin="372.14062036469227" RangeMax="50428.10856651019">
          -48697.474668050025 13097.713332882364 0 17252.430536068165 15978.687425174436 0
          -22135.800059177334 13664.738318541624 0 -13485.747006091839 9574.08925988567 0
          -20558.38435426911 11531.061229383577 0 -10680.377424669312 7775.2732481881785 0
          -17642.648610421704 10670.53555342195 0 -6926.497550016204 5417.087433896582 0
          -14205.489231617525 8725.627707111687 0 -3573.638670973925 2867.2821370894208 0
          -10271.72129343064 6344.810782909074 0 -165.99437574263735 333.0683241427052 0
          -5822.9896146389065 3815.2063304349826 0
          <InformationKey name="L2_NORM_RANGE" location="vtkDataArray" length="2">
            <Value index="0">
              372.14062036
            </Value>
            <Value index="1">
              50428.108567
            </Value>
          </InformationKey>
        </DataArray>
        <DataArray type="Float64" Name="Velocity" NumberOfComponents="3" format="ascii" RangeMin="0" RangeMax="8.579845862288435">
          0 0 0 0 0 0
          0.21931988401901456 -0.36031305256571466 0 -0.22495804502605843 -0.32068916200304076 0
          0.37880093521557284 -1.9591677246230166 0 -0.7457886882579436 -1.8357738798985443 0
          0.20771285843301662 -4.685769794309955 0 -1.0474952607996058 -4.501162842110144 0
          -0.29254210380652584 -6.732047812209726 0 -1.0520729518508112 -6.6202159950930985 0
          -0.5278376996467511 -7.810893769204976 0 -0.9974265526604307 -7.795608129619841 0
          -0.562874134051679 -8.561362492608495 0
          <InformationKey name="L2_NORM_RANGE" location="vtkDataArray" length="2">
            <Value index="0">
              0
            </Value>
            <Value index="1">
              8.5798458623
            </Value>
          </InformationKey>
        </DataArray>
        <DataArray type="Float64" Name="Acceleration" NumberOfComponents="3" format="ascii" RangeMin="0" RangeMax="1145.5143328334193">
          0 0 0 0 0 0
          208.78481619768712 -403.56582354669126 0 44.7571800036813 -145.73865447787955 0
          410.28814640218155 -617.8801745778692 0 467.6102959181612 -281.7232636413337 0
          -39.93292157685494 -52.21330081385713 0 277.00528483262724 472.000135278146 0
          -387.4137225738382 538.2997970819315 0 -222.11621301584728 967.9765598197741 0
          143.6002239245895 689.6711470796567 0 1.7601050725288587 545.1509009770507 0
          197.44628619796913 1128.369642800365 0
          <InformationKey name="L2_NORM_RANGE" location="vtkDataArray" length="2">
            <Value index="0">
              0
            </Value>
            <Value index="1">
              1145.5143328
            </Value>
          </InformationKey>
        </DataArray>
        <DataArray type="Float64" Name="Sigma" NumberOfComponents="6" format="ascii" RangeMin="7828.377786348269" RangeMax="157466.34578986565">
          103317.16255491253 -103317.16255490892 0 -58709.26587531008 0 0
          -96930.85200787656 96930.85200787405 0 16699.365712076986 0 0
          99973.84875720688 -99973.84875720645 0 -21516.021865620052 0 0
          -96116.10251693099 96116.10251693345 0 21388.615449135625 0 0
          74132.57852163809 -74132.57852163484 0 -36496.381589516575 0 0
          -71802.18823952408 71802.18823951542 0 23406.850959352767 0 0
          55150.46982560562 -55150.46982560889 0 -30135.314935606202 0 0
          -53597.46566829107 53597.46566829975 0 18722.017315715097 0 0
          34673.279663895926 -34673.27966389861 0 -24645.650067811468 0 0
          -34031.345839180634 34031.34583917998 0 12697.27015443846 0 0
          17177.476961502714 -17177.47696150344 0 -16123.358931657274 0 0
          -16463.891500244834 16463.891500245845 0 4565.647756693199 0 0
          2008.5008064950634 -2008.5008064920585 0 -7294.88504271455 0 0
          <InformationKey name="L2_NORM_RANGE" location="vtkDataArray" length="2">
            <Value index="0">
              7828.3777863
            </Value>
            <Value index="1">
              157466.34579
            </Value>
          </InformationKey>
        </DataArray>
        <DataArray type="Float64" Name="Press" format="ascii" RangeMin="-124044.87365175138" RangeMax="120167.24316890299">
          98915.2640081822 -124044.87365175138 120167.24316890299 -102256.21381574128 86556.92342733574 -82718.81162723176
          69836.10158102225 -60706.150435049065 46395.87978382188 -38606.92565606744 25761.991628839685 -17242.522489275823
          7001.714271294415
        </DataArray>
        <DataArray type="Float64" Name="Dev strain" NumberOfComponents="6" format="ascii" RangeMin="0" RangeMax="0">
          0 0 0 0 0 0
          0 0 0 0 0 0
          0 0 0 0 0 0
          0 0 0 0 0 0
          0 0 0 0 0 0
          0 0 0 0 0 0
          0 0 0 0 0 0
          0 0 0 0 0 0
          0 0 0 0 0 0
          0 0 0 0 0 0
          0 0 0 0 0 0
          0 0 0 0 0 0
          0 0 0 0 0 0
          <InformationKey name="L2_NORM_RANGE" location="vtkDataArray" length="2">
            <Value index="0">
              0
            </Value>
            <Value index="1">
              0
            </Value>
          </InformationKey>
        </DataArray>
        <DataArray type="Float64" Name="J2 Stresses" format="ascii" RangeMin="17337912.4362904" RangeMax="11536130553.30231">
          11536130553.30231 9465307274.769047 10110505234.559292 9352673380.753174 5828635665.548496 5292524403.941767
          3268608623.5522585 2960316809.156589 1354088339.4670858 1198437666.9695933 360056390.572732 276271008.1914002
          17337912.4362904
        </DataArray>
      </PointData>
      <CellData>
        <DataArray type="UInt8" Name="vtkGhostType" format="ascii" RangeMin="0" RangeMax="0">
          0 0 0 0 0 0
          0 0 0 0 0
        </DataArray>
        <DataArray type="Float64" Name="Gauss Stress" NumberOfComponents="6" format="ascii" RangeMin="9729.98892537966" RangeMax="70494.1394855354">
          -66402.31668873013 -4353.57951032954 0 5523.986431864189 0 0
          67132.59760985893 -3774.1752596358247 0 -21175.307342951048 0 0
          -64067.93808348477 -1544.1299269410947 0 2766.3616063239415 0 0
          60819.425847470484 8825.876006196528 0 -12207.92933533367 0 0
          -47946.014854489375 -1113.225466350762 0 3997.8511131538908 0 0
          43718.35782961529 5397.78442446597 0 -14408.281855256673 0 0
          -35290.90938362347 12.778512095502265 0 2257.8791341140313 0 0
          30584.038250335194 6433.182369529108 0 -12019.649229234192 0 0
          -21135.07229814211 1076.7679538062698 0 379.8529931581288 0 0
          17123.452180937384 5243.844990124023 0 -9357.246281676758 0 0
          6081.089892870408 4266.365714369542 0 -6284.198739226209 0 0
          <InformationKey name="L2_NORM_RANGE" location="vtkDataArray" length="2">
            <Value index="0">
              9729.9889254
            </Value>
            <Value index="1">
              70494.139486
            </Value>
          </InformationKey>
        </DataArray>
        <DataArray type="Float64" Name="Gauss Strain" NumberOfComponents="6" format="ascii" RangeMin="0" RangeMax="0">
          0 0 0 0 0 0
          0 0 0 0 0 0
          0 0 0 0 0 0
          0 0 0 0 0 0
          0 0 0 0 0 0
          0 0 0 0 0 0
          0 0 0 0 0 0
          0 0 0 0 0 0
          0 0 0 0 0 0
          0 0 0 0 0 0
          0 0 0 0 0 0
          <InformationKey name="L2_NORM_RANGE" location="vtkDataArray" length="2">
            <Value index="0">
              0
            </Value>
            <Value index="1">
              0
            </Value>
          </InformationKey>
        </DataArray>
      </CellData>
      <Points>
        <DataArray type="Float32" Name="Points" NumberOfComponents="3" format="ascii" RangeMin="0" RangeMax="0.6020797527609908">
          0 0.05000000074505806 0 0 0 0
          0.10000000149011612 0.05000000074505806 0 0.10000000149011612 0 0
          0.20000000298023224 0.05000000074505806 0 0.20000000298023224 0 0
          0.30000001192092896 0.05000000074505806 0 0.30000001192092896 0 0
          0.4000000059604645 0.05000000074505806 0 0.4000000059604645 0 0
          0.5 0.05000000074505806 0 0.5 0 0
          0.6000000238418579 0.05000000074505806 0
          <InformationKey name="L2_NORM_RANGE" location="vtkDataArray" length="2">
            <Value index="0">
              0
            </Value>
            <Value index="1">
              0.60207975276
            </Value>
          </InformationKey>
        </DataArray>
      </Points>
      <Cells>
        <DataArray type="Int64" Name="connectivity" format="ascii" RangeMin="0" RangeMax="12">
          3 2 1 2 0 1
          5 4 3 4 2 3
          7 6 5 6 4 5
          9 8 7 8 6 7
          11 10 9 10 8 9
          12 10 11
        </DataArray>
        <DataArray type="Int64" Name="offsets" format="ascii" RangeMin="3" RangeMax="33">
          3 6 9 12 15 18
          21 24 27 30 33
        </DataArray>
        <DataArray type="UInt8" Name="types" format="ascii" RangeMin="5" RangeMax="5">
          5 5 5 5 5 5
          5 5 5 5 5
        </DataArray>
      </Cells>
    </Piece>
  </UnstructuredGrid>
</VTKFile>
