<?xml version="1.0"?>
<VTKFile type="UnstructuredGrid" version="0.1" byte_order="LittleEndian" header_type="UInt32" compressor="vtkZLibDataCompressor">
  <UnstructuredGrid>
    <Piece NumberOfPoints="13" NumberOfCells="11">
      <PointData>
        <DataArray type="Float64" Name="Disp" NumberOfComponents="3" format="ascii" RangeMin="0" RangeMax="0.07862901227857923">
          0 0 0 0 0 0
          0.0011321579472479788 -0.002095025906540991 0 -0.0012020436125322136 -0.0020588200421803263 0
          0.0021087635566603485 -0.009474450356684011 0 -0.002712617211531279 -0.009278846204068804 0
          0.0024806698976627788 -0.02146865311537159 0 -0.004489942962252813 -0.020978873473181482 0
          0.0020737230523974652 -0.037520853966324104 0 -0.0067152765023411835 -0.03671181177641948 0
          0.0008270731896291877 -0.05679981178436276 0 -0.009388945244567815 -0.055678782033132854 0
          -0.0011632743476596053 -0.0786204067955454 0
          <InformationKey name="L2_NORM_RANGE" location="vtkDataArray" length="2">
            <Value index="0">
              0
            </Value>
            <Value index="1">
              0.078629012279
            </Value>
          </InformationKey>
        </DataArray>
        <DataArray type="Float64" Name="Nodal Stress" NumberOfComponents="6" format="ascii" RangeMin="44569.22504389867" RangeMax="134695.69664028139">
          130583.07117154694 -1986.806225296416 0 -32970.36271927477 0 0
          -71165.27874797273 -10931.630948122036 0 2743.152507207681 0 0
          97926.13950599155 5483.834658899268 0 -12469.756589054676 0 0
          -89631.79009100972 -4520.836544754147 0 8697.430137951542 0 0
          82434.89283200755 6014.231926973573 0 -18467.787550114568 0 0
          -84428.19041866528 -6480.185696004488 0 10344.535405983965 0 0
          76512.07041784252 7898.763395916819 0 -19920.975601536666 0 0
          -76238.41114067259 -5644.595771085632 0 12728.810764640835 0 0
          64581.50913742463 9373.57181395724 0 -21010.659677009615 0 0
          -66869.59548822291 -5275.469923769722 0 13006.649592085696 0 0
          52817.14613464546 9675.432004813512 0 -19879.748304173583 0 0
          -55186.023551197664 -4417.8292716557535 0 11981.771002555146 0 0
          39728.759830712406 9502.214563190126 0 -17825.526127504738 0 0
          <InformationKey name="L2_NORM_RANGE" location="vtkDataArray" length="2">
            <Value index="0">
              44569.225044
            </Value>
            <Value index="1">
              134695.69664
            </Value>
          </InformationKey>
        </DataArray>
        <DataArray type="Float64" Name="Nodal Strain" NumberOfComponents="6" format="ascii" RangeMin="0" RangeMax="0">
          0 0 0 0 0 0
          0 0 0 0 0 0
          0 0 0 0 0 0
          0 0 0 0 0 0
          0 0 0 0 0 0
          0 0 0 0 0 0
          0 0 0 0 0 0
          0 0 0 0 0 0
          0 0 0 0 0 0
          0 0 0 0 0 0
          0 0 0 0 0 0
          0 0 0 0 0 0
          0 0 0 0 0 0
          <InformationKey name="L2_NORM_RANGE" location="vtkDataArray" length="2">
            <Value index="0">
              0
            </Value>
            <Value index="1">
              0
            </Value>
          </InformationKey>
        </DataArray>
        <DataArray type="Float64" Name="Sld_traction" NumberOfComponents="3" format="ascii" RangeMin="13640.074751871303" RangeMax="58766.03178328418">
          -56561.88717115827 15943.63230857788 0 20950.324504930664 17213.434460714583 0
          -22463.37208602345 16140.635144650661 0 -19048.49565328106 15858.986539062831 0
          -20299.400768458447 13508.432438976475 0 -16540.988308183143 15039.324490136994 0
          -19222.971771227407 14233.890625588701 0 -14649.970600980721 13674.662097196082 0
          -18698.447757326576 14136.40938294378 0 -12340.883525424526 11653.211638863295 0
          -17346.574243489544 13003.963328009842 0 -9982.47691601123 9295.256524590373 0
          -15889.92255052796 11467.662591647824 0
          <InformationKey name="L2_NORM_RANGE" location="vtkDataArray" length="2">
            <Value index="0">
              13640.074752
            </Value>
            <Value index="1">
              58766.031783
            </Value>
          </InformationKey>
        </DataArray>
        <DataArray type="Float64" Name="Velocity" NumberOfComponents="3" format="ascii" RangeMin="0" RangeMax="1.797490024113299">
          0 0 0 0 0 0
          -0.05378061994815336 0.14643700495175851 0 0.12253737459722251 0.16914073551870115 0
          -0.034712555734638294 0.57339763573475 0 0.04195995489427862 0.6204283990612782 0
          0.02312866261880646 0.34557443381421266 0 -0.2647843073905126 0.43218641491773546 0
          -0.1850828859209964 -0.2824039737633308 0 -0.38664526462598897 -0.18840202529029515 0
          -0.2426790549064889 -0.5897322944114661 0 -0.6166281191241415 -0.4959344549716313 0
          -0.3059884588463532 -1.771254202490332 0
          <InformationKey name="L2_NORM_RANGE" location="vtkDataArray" length="2">
            <Value index="0">
              0
            </Value>
            <Value index="1">
              1.7974900241
            </Value>
          </InformationKey>
        </DataArray>
        <DataArray type="Float64" Name="Acceleration" NumberOfComponents="3" format="ascii" RangeMin="0" RangeMax="3594.1304673300697">
          0 0 0 0 0 0
          23.57463874771844 -293.4966948929741 0 59.40017818950963 0.410840157349071 0
          145.1104559200447 -196.05955927591094 0 -201.51917166621905 245.41491929598146 0
          85.41110988609559 -1303.0718858321288 0 -651.5609428867466 -1503.3525417710464 0
          -472.8322313292391 -1011.661874037442 0 563.5975192369289 -1364.4420107797816 0
          1229.7723690434382 708.4038615766318 0 344.5972155870454 956.0385068344808 0
          308.8896730964078 -3580.832443168021 0
          <InformationKey name="L2_NORM_RANGE" location="vtkDataArray" length="2">
            <Value index="0">
              0
            </Value>
            <Value index="1">
              3594.1304673
            </Value>
          </InformationKey>
        </DataArray>
        <DataArray type="Float64" Name="Sigma" NumberOfComponents="6" format="ascii" RangeMin="88417.8760718637" RangeMax="195783.09653460875">
          128570.84454826312 -128570.84454826146 0 -67239.77572547787 0 0
          -129328.40069283855 129328.4006928402 0 27375.189715874996 0 0
          137326.46639000165 -137326.4663900013 0 -24777.08914201831 0 0
          -129829.48628204751 129829.4862820465 0 30365.834300765564 0 0
          116483.95755570158 -116483.95755570452 0 -47871.04660990984 0 0
          -114035.09594201128 114035.09594201413 0 41245.912593322835 0 0
          106144.61428320172 -106144.61428320408 0 -51666.87745158309 0 0
          -102398.36173371834 102398.36173371572 0 46716.59294013913 0 0
          88227.01048450381 -88227.01048450434 0 -55768.01946339876 0 0
          -86435.88717545531 86435.88717545362 0 47336.203139160454 0 0
          71256.34036610492 -71256.34036610235 0 -52808.11273551247 0 0
          -69248.12021972415 69248.1202197239 0 43534.30689239311 0 0
          53054.00844001026 -53054.00844001152 0 -46778.896801377814 0 0
          <InformationKey name="L2_NORM_RANGE" location="vtkDataArray" length="2">
            <Value index="0">
              88417.876072
            </Value>
            <Value index="1">
              195783.09653
            </Value>
          </InformationKey>
        </DataArray>
        <DataArray type="Float64" Name="Press" format="ascii" RangeMin="-159110.9471521979" RangeMax="160180.58183194918">
          128061.44760637352 -159110.9471521979 160180.58183194918 -143503.24031726178 132108.29243945563 -134137.07361794825
          128634.68677336232 -122655.97739490759 112616.61162200861 -106848.04935834178 95745.68901713242 -88039.70405864512
          75841.17186027864
        </DataArray>
        <DataArray type="Float64" Name="Dev strain" NumberOfComponents="6" format="ascii" RangeMin="0" RangeMax="0">
          0 0 0 0 0 0
          0 0 0 0 0 0
          0 0 0 0 0 0
          0 0 0 0 0 0
          0 0 0 0 0 0
          0 0 0 0 0 0
          0 0 0 0 0 0
          0 0 0 0 0 0
          0 0 0 0 0 0
          0 0 0 0 0 0
          0 0 0 0 0 0
          0 0 0 0 0 0
          0 0 0 0 0 0
          <InformationKey name="L2_NORM_RANGE" location="vtkDataArray" length="2">
            <Value index="0">
              0
            </Value>
            <Value index="1">
              0
            </Value>
          </InformationKey>
        </DataArray>
        <DataArray type="Float64" Name="J2 Stresses" format="ascii" RangeMin="3361794108.041236" RangeMax="19012034407.752087">
          17660758927.75657 16913185478.762651 19012034407.752087 17086216481.455616 14141421643.72087 13429309432.918049
          11934045697.729147 11031034499.732826 8561523377.7502985 8031341623.715859 5774640235.041659 5269111123.115618
          3361794108.041236
        </DataArray>
      </PointData>
      <CellData>
        <DataArray type="UInt8" Name="vtkGhostType" format="ascii" RangeMin="0" RangeMax="0">
          0 0 0 0 0 0
          0 0 0 0 0
        </DataArray>
        <DataArray type="Float64" Name="Gauss Stress" NumberOfComponents="6" format="ascii" RangeMin="50734.44844651784" RangeMax="92378.85073387132">
          -88088.3420741317 -6867.395017541709 0 10987.978291540754 0 0
          88566.6641771837 -2479.2759864325762 0 -21547.225050540394 0 0
          -90970.88205470389 -6050.465609132764 0 7913.566761392856 0 0
          90922.19053926627 8268.23209682791 0 -14094.10048372087 0 0
          -79482.40254400716 -5956.506948989258 0 12098.542693959633 0 0
          78399.79383058724 6004.143232658405 0 -19430.67048939004 0 0
          -72498.21785197021 -5426.725568858581 0 12761.592205300283 0 0
          70189.5280114835 8874.019322156877 0 -20239.4346582809 0 0
          -61189.91047630969 -4904.7991235930995 0 12687.465765347035 0 0
          58187.23831865091 9488.929201882067 0 -20413.309686583598 0 0
          46203.12846838567 9494.976077458656 0 -18684.2342148324 0 0
          <InformationKey name="L2_NORM_RANGE" location="vtkDataArray" length="2">
            <Value index="0">
              50734.448447
            </Value>
            <Value index="1">
              92378.850734
            </Value>
          </InformationKey>
        </DataArray>
        <DataArray type="Float64" Name="Gauss Strain" NumberOfComponents="6" format="ascii" RangeMin="0" RangeMax="0">
          0 0 0 0 0 0
          0 0 0 0 0 0
          0 0 0 0 0 0
          0 0 0 0 0 0
          0 0 0 0 0 0
          0 0 0 0 0 0
          0 0 0 0 0 0
          0 0 0 0 0 0
          0 0 0 0 0 0
          0 0 0 0 0 0
          0 0 0 0 0 0
          <InformationKey name="L2_NORM_RANGE" location="vtkDataArray" length="2">
            <Value index="0">
              0
            </Value>
            <Value index="1">
              0
            </Value>
          </InformationKey>
        </DataArray>
      </CellData>
      <Points>
        <DataArray type="Float32" Name="Points" NumberOfComponents="3" format="ascii" RangeMin="0" RangeMax="0.6020797527609908">
          0 0.05000000074505806 0 0 0 0
          0.10000000149011612 0.05000000074505806 0 0.10000000149011612 0 0
          0.20000000298023224 0.05000000074505806 0 0.20000000298023224 0 0
          0.30000001192092896 0.05000000074505806 0 0.30000001192092896 0 0
          0.4000000059604645 0.05000000074505806 0 0.4000000059604645 0 0
          0.5 0.05000000074505806 0 0.5 0 0
          0.6000000238418579 0.05000000074505806 0
          <InformationKey name="L2_NORM_RANGE" location="vtkDataArray" length="2">
            <Value index="0">
              0
            </Value>
            <Value index="1">
              0.60207975276
            </Value>
          </InformationKey>
        </DataArray>
      </Points>
      <Cells>
        <DataArray type="Int64" Name="connectivity" format="ascii" RangeMin="0" RangeMax="12">
          3 2 1 2 0 1
          5 4 3 4 2 3
          7 6 5 6 4 5
          9 8 7 8 6 7
          11 10 9 10 8 9
          12 10 11
        </DataArray>
        <DataArray type="Int64" Name="offsets" format="ascii" RangeMin="3" RangeMax="33">
          3 6 9 12 15 18
          21 24 27 30 33
        </DataArray>
        <DataArray type="UInt8" Name="types" format="ascii" RangeMin="5" RangeMax="5">
          5 5 5 5 5 5
          5 5 5 5 5
        </DataArray>
      </Cells>
    </Piece>
  </UnstructuredGrid>
</VTKFile>
