<?xml version="1.0"?>
<VTKFile type="UnstructuredGrid" version="0.1" byte_order="LittleEndian" header_type="UInt32" compressor="vtkZLibDataCompressor">
  <UnstructuredGrid>
    <Piece NumberOfPoints="13" NumberOfCells="11">
      <PointData>
        <DataArray type="Float64" Name="Disp" NumberOfComponents="3" format="ascii" RangeMin="0.000022087800810270388" RangeMax="0.0016273275839303345">
          0.000006396314163236751 0.000046824038415056723 0 -0.000004147196642894865 0.00007796207319701182 0
          0.000005819264873087662 0.00007830351918559908 0 0.00001331977592362117 0.00008039451367829881 0
          -0.000011227147035310948 0.00008066346192792812 0 0.00007078612969475687 -0.00006119724959623152 0
          -0.00009228768312542594 -0.000058224452696750695 0 0.00019507199520660745 -0.0006209494262300191 0
          -0.00021231173202686943 -0.0006265653989247638 0 0.0002468016903167704 -0.0016085036496935046 0
          -0.00024276573227390366 -0.0015987408042899415 0 -0.000007114278051345525 0.000046865080737472364 0
          0.0000037066324149273057 0.00002177456821098392 0
          <InformationKey name="L2_NORM_RANGE" location="vtkDataArray" length="2">
            <Value index="0">
              2.208780081e-05
            </Value>
            <Value index="1">
              0.0016273275839
            </Value>
          </InformationKey>
        </DataArray>
        <DataArray type="Float64" Name="Nodal Stress" NumberOfComponents="6" format="ascii" RangeMin="348.06109535234924" RangeMax="5265.364773394908">
          -850.0209560063267 -124.57891600349816 0 251.8905862781256 0 0
          1682.3492922603978 -28.206350440511414 0 386.9567873380665 0 0
          -1906.1087050041144 -282.6012251888862 0 517.4751265522782 0 0
          3203.4477054470613 -82.13321798098563 0 547.303380135296 0 0
          -3301.880414935154 -521.3174337725466 0 856.1904430050381 0 0
          4603.996999616656 -169.3772549253765 0 308.18838647692587 0 0
          -4214.646253496786 -296.92139965838476 0 857.8883775726157 0 0
          4227.031846733918 618.6338684029147 0 -617.3758114086917 0 0
          -5039.539995098094 -203.53149710747672 0 -893.6005716593611 0 0
          2824.7707978575227 -1222.1113144040146 0 -3276.9409673655123 0 0
          -4572.84879274132 -1565.0693118147644 0 -2088.9418768476853 0 0
          658.6249592041331 -3.7175681867829438 0 199.05525393372216 0 0
          -334.01470535641 -39.75921537027355 0 89.44220198926213 0 0
          <InformationKey name="L2_NORM_RANGE" location="vtkDataArray" length="2">
            <Value index="0">
              348.06109535
            </Value>
            <Value index="1">
              5265.3647734
            </Value>
          </InformationKey>
        </DataArray>
        <DataArray type="Float64" Name="Nodal Strain" NumberOfComponents="6" format="ascii" RangeMin="0" RangeMax="0">
          0 0 0 0 0 0
          0 0 0 0 0 0
          0 0 0 0 0 0
          0 0 0 0 0 0
          0 0 0 0 0 0
          0 0 0 0 0 0
          0 0 0 0 0 0
          0 0 0 0 0 0
          0 0 0 0 0 0
          0 0 0 0 0 0
          0 0 0 0 0 0
          0 0 0 0 0 0
          0 0 0 0 0 0
          <InformationKey name="L2_NORM_RANGE" location="vtkDataArray" length="2">
            <Value index="0">
              0
            </Value>
            <Value index="1">
              0
            </Value>
          </InformationKey>
        </DataArray>
        <DataArray type="Float64" Name="Sld_traction" NumberOfComponents="3" format="ascii" RangeMin="97.72222369201356" RangeMax="2543.3058959789582">
          -219.43403859903356 243.03626944399946 0 404.40685661321965 146.06624812068767 0
          -568.0025657147125 526.978250794695 0 350.2848920215095 199.11599173025328 0
          -1230.7036636058972 837.5751211991998 0 -259.07275195817004 336.7749726658756 0
          -1478.307102986429 841.2756570243492 0 -1611.0535335739803 842.4889839141528 0
          -330.7348291904518 298.9480688143818 0 -1129.7014057185195 -2278.6354720399954 0
          185.80234122929343 -160.62221734908218 0 243.24463806727704 66.58144775363323 0
          -52.85269226363206 82.19626465842437 0
          <InformationKey name="L2_NORM_RANGE" location="vtkDataArray" length="2">
            <Value index="0">
              97.722223692
            </Value>
            <Value index="1">
              2543.305896
            </Value>
          </InformationKey>
        </DataArray>
        <DataArray type="Float64" Name="Velocity" NumberOfComponents="3" format="ascii" RangeMin="0.04417560162054078" RangeMax="3.2546551678606686">
          0.012792628326473501 0.09364807683011346 0 -0.008294393285789731 0.15592414639402363 0
          0.011638529746175325 0.1566070383711982 0 0.026639551847242343 0.1607890273565976 0
          -0.0224542940706219 0.16132692385585623 0 0.14157225938951373 -0.12239449919246304 0
          -0.18457536625085189 -0.11644890539350139 0 0.3901439904132149 -1.2418988524600385 0
          -0.42462346405373885 -1.2531307978495276 0 0.4936033806335408 -3.217007299387009 0
          -0.4855314645478073 -3.197481608579883 0 -0.01422855610269105 0.09373016147494473 0
          0.007413264829854611 0.04354913642196784 0
          <InformationKey name="L2_NORM_RANGE" location="vtkDataArray" length="2">
            <Value index="0">
              0.044175601621
            </Value>
            <Value index="1">
              3.2546551679
            </Value>
          </InformationKey>
        </DataArray>
        <DataArray type="Float64" Name="Acceleration" NumberOfComponents="3" format="ascii" RangeMin="88.35120324108156" RangeMax="6509.310335721338">
          25.585256652947002 187.2961536602269 0 -16.588786571579462 311.8482927880473 0
          23.27705949235065 313.21407674239634 0 53.27910369448468 321.57805471319523 0
          -44.9085881412438 322.65384771171244 0 283.14451877902746 -244.78899838492606 0
          -369.15073250170377 -232.89781078700278 0 780.2879808264298 -2483.7977049200767 0
          -849.2469281074777 -2506.2615956990553 0 987.2067612670816 -6434.014598774018 0
          -971.0629290956147 -6394.963217159766 0 -28.4571122053821 187.46032294988944 0
          14.826529659709223 87.09827284393567 0
          <InformationKey name="L2_NORM_RANGE" location="vtkDataArray" length="2">
            <Value index="0">
              88.351203241
            </Value>
            <Value index="1">
              6509.3103357
            </Value>
          </InformationKey>
        </DataArray>
        <DataArray type="Float64" Name="Sigma" NumberOfComponents="6" format="ascii" RangeMin="579.9766558112714" RangeMax="11845.080374343619">
          -1182.2956975917696 1182.2956975918205 0 199.18771409973488 0 0
          2162.499427068171 -2162.4994270675925 0 425.92121127837527 0 0
          -2777.0817693129648 2777.081769313183 0 481.5367573887288 0 0
          4405.329124489777 -4405.329124489363 0 496.00440318350775 0 0
          -5033.163563261309 5033.163563261931 0 1277.584279370325 0 0
          6736.002622777909 -6736.002622778295 0 -352.2467368643611 0 0
          -5997.5266327275685 5997.526632727397 0 1840.6958515999459 0 0
          5867.69144880951 -5867.691448809943 0 -918.4885038970233 0 0
          -7713.943083085433 7713.943083086089 0 516.4568655803357 0 0
          7112.500788840212 -7112.500788840446 0 -6255.445158591972 0 0
          -2707.058333803682 2707.0583338039974 0 -1308.3896071895524 0 0
          801.2838054662716 -801.2838054663443 0 230.46152862318195 0 0
          -409.43009245188296 409.43009245188296 0 33.270408409141965 0 0
          <InformationKey name="L2_NORM_RANGE" location="vtkDataArray" length="2">
            <Value index="0">
              579.97665581
            </Value>
            <Value index="1">
              11845.080374
            </Value>
          </InformationKey>
        </DataArray>
        <DataArray type="Float64" Name="Press" format="ascii" RangeMin="-7380.749399192842" RangeMax="7816.343191925765">
          -1397.8001387850381 2296.7064570678267 -3303.4149374441295 4682.515270078085 -5873.828728679167 6686.913170457121
          -7140.219954154727 7816.343191925765 -7380.749399192842 4513.245655904702 -4704.166232912277 864.0208158749738
          -478.91918435206026
        </DataArray>
        <DataArray type="Float64" Name="Dev strain" NumberOfComponents="6" format="ascii" RangeMin="0" RangeMax="0">
          0 0 0 0 0 0
          0 0 0 0 0 0
          0 0 0 0 0 0
          0 0 0 0 0 0
          0 0 0 0 0 0
          0 0 0 0 0 0
          0 0 0 0 0 0
          0 0 0 0 0 0
          0 0 0 0 0 0
          0 0 0 0 0 0
          0 0 0 0 0 0
          0 0 0 0 0 0
          0 0 0 0 0 0
          <InformationKey name="L2_NORM_RANGE" location="vtkDataArray" length="2">
            <Value index="0">
              0
            </Value>
            <Value index="1">
              0
            </Value>
          </InformationKey>
        </DataArray>
        <DataArray type="Float64" Name="J2 Stresses" format="ascii" RangeMin="167909.73062408518" RangeMax="60370316.004292235">
          1407742.0529061384 4721755.991623126 7770152.565630145 19468429.7870704 25740790.852267954 45404750.774981365
          36817366.01479976 34640708.221382536 59571599.81258792 60370316.004292235 7756135.663667229 655333.8659464014
          167909.73062408518
        </DataArray>
      </PointData>
      <CellData>
        <DataArray type="UInt8" Name="vtkGhostType" format="ascii" RangeMin="0" RangeMax="1">
          1 1 0 0 0 0
          0 0 0 0 0
        </DataArray>
        <DataArray type="Float64" Name="Gauss Stress" NumberOfComponents="6" format="ascii" RangeMin="624.9451708031289" RangeMax="4887.8931345298715">
          -601.0468306131688 -74.08550756158854 0 154.30655037735292 0 0
          1181.4715563668124 -6.1868002614513244 0 285.190151333764 0 0
          -1400.4622196659689 -202.54352644131 0 368.88189425561296 0 0
          -2633.2148680432383 -363.27072931982 0 751.7084799808539 0 0
          2488.8511906489225 -38.313330847329695 0 467.82079061687057 0 0
          -3540.607695195915 -677.4826463885804 0 922.0111313686366 0 0
          3867.92263195414 -204.18949071656198 0 473.78064856315706 0 0
          -4849.468142808435 379.7173685272461 0 479.55473776108613 0 0
          4656.401282362672 252.28965645577307 0 189.98687027952036 0 0
          -3626.7235347497726 -1421.0564493835923 0 -2349.125966733729 0 0
          3405.02953440064 -105.80323530889186 0 -2219.1589323028875 0 0
          <InformationKey name="L2_NORM_RANGE" location="vtkDataArray" length="2">
            <Value index="0">
              624.9451708
            </Value>
            <Value index="1">
              4887.8931345
            </Value>
          </InformationKey>
        </DataArray>
        <DataArray type="Float64" Name="Gauss Strain" NumberOfComponents="6" format="ascii" RangeMin="0" RangeMax="0">
          0 0 0 0 0 0
          0 0 0 0 0 0
          0 0 0 0 0 0
          0 0 0 0 0 0
          0 0 0 0 0 0
          0 0 0 0 0 0
          0 0 0 0 0 0
          0 0 0 0 0 0
          0 0 0 0 0 0
          0 0 0 0 0 0
          0 0 0 0 0 0
          <InformationKey name="L2_NORM_RANGE" location="vtkDataArray" length="2">
            <Value index="0">
              0
            </Value>
            <Value index="1">
              0
            </Value>
          </InformationKey>
        </DataArray>
      </CellData>
      <Points>
        <DataArray type="Float32" Name="Points" NumberOfComponents="3" format="ascii" RangeMin="0.4000000059604645" RangeMax="1.0012492197622458">
          0.5 0 0 0.6000000238418579 0.05000000074505806 0
          0.6000000238418579 0 0 0.699999988079071 0.05000000074505806 0
          0.699999988079071 0 0 0.800000011920929 0.05000000074505806 0
          0.800000011920929 0 0 0.8999999761581421 0.05000000074505806 0
          0.8999999761581421 0 0 1 0.05000000074505806 0
          1 0 0 0.5 0.05000000074505806 0
          0.4000000059604645 0 0
          <InformationKey name="L2_NORM_RANGE" location="vtkDataArray" length="2">
            <Value index="0">
              0.40000000596
            </Value>
            <Value index="1">
              1.0012492198
            </Value>
          </InformationKey>
        </DataArray>
      </Points>
      <Cells>
        <DataArray type="Int64" Name="connectivity" format="ascii" RangeMin="0" RangeMax="12">
          0 11 12 1 11 0
          2 1 0 4 3 2
          3 1 2 6 5 4
          5 3 4 8 7 6
          7 5 6 10 9 8
          9 7 8
        </DataArray>
        <DataArray type="Int64" Name="offsets" format="ascii" RangeMin="3" RangeMax="33">
          3 6 9 12 15 18
          21 24 27 30 33
        </DataArray>
        <DataArray type="UInt8" Name="types" format="ascii" RangeMin="5" RangeMax="5">
          5 5 5 5 5 5
          5 5 5 5 5
        </DataArray>
      </Cells>
    </Piece>
  </UnstructuredGrid>
</VTKFile>
