<?xml version="1.0"?>
<VTKFile type="UnstructuredGrid" version="0.1" byte_order="LittleEndian" header_type="UInt32" compressor="vtkZLibDataCompressor">
  <UnstructuredGrid>
    <Piece NumberOfPoints="13" NumberOfCells="11">
      <PointData>
        <DataArray type="Float64" Name="Disp" NumberOfComponents="3" format="ascii" RangeMin="0" RangeMax="0.04537342279818835">
          0 0 0 0 0 0
          0.0006855869132212492 -0.001348999002450878 0 -0.000787564177731761 -0.0013173638781610523 0
          0.0012379690406678495 -0.00586859794992905 0 -0.0016130044782675839 -0.0057632680942457225 0
          0.0014743468549887233 -0.012785471193083337 0 -0.0025417134411950828 -0.012573318971193993 0
          0.0014218362176529643 -0.02204017225476462 0 -0.003666518087154548 -0.021699065747825673 0
          0.0009851841497565904 -0.03314842801309251 0 -0.004856777888837744 -0.032702794412067984 0
          0.0002198869654354132 -0.04537288999111243 0
          <InformationKey name="L2_NORM_RANGE" location="vtkDataArray" length="2">
            <Value index="0">
              0
            </Value>
            <Value index="1">
              0.045373422798
            </Value>
          </InformationKey>
        </DataArray>
        <DataArray type="Float64" Name="Nodal Stress" NumberOfComponents="6" format="ascii" RangeMin="11067.283887618882" RangeMax="80518.83352774162">
          77379.22042077439 -980.2280494470203 0 -22243.60475985076 0 0
          -40513.45046670411 -5509.073636070169 0 -1069.6167800691876 0 0
          55432.99143063564 4075.8540617999215 0 -8080.434266760369 0 0
          -51410.30710667841 -1213.1127805314466 0 3621.44444343949 0 0
          43952.2443301689 3892.9103583804144 0 -9752.348542042038 0 0
          -45676.98061151817 -2695.5130193035934 0 3992.5207595460865 0 0
          38139.70954165145 4030.9417646914685 0 -9203.677594524575 0 0
          -39578.10209426393 -1648.7163334130548 0 3785.466380408633 0 0
          28419.8442027863 4738.737916751845 0 -9523.37779658224 0 0
          -31959.235849776625 -173.5544226946688 0 2345.856922496451 0 0
          18269.114371989737 4869.468341301029 0 -8207.55075234553 0 0
          -21794.027802510172 1194.0017161451335 0 439.32267090005035 0 0
          8954.45543808702 3896.191580556904 0 -5207.8970443029875 0 0
          <InformationKey name="L2_NORM_RANGE" location="vtkDataArray" length="2">
            <Value index="0">
              11067.283888
            </Value>
            <Value index="1">
              80518.833528
            </Value>
          </InformationKey>
        </DataArray>
        <DataArray type="Float64" Name="Nodal Strain" NumberOfComponents="6" format="ascii" RangeMin="0" RangeMax="0">
          0 0 0 0 0 0
          0 0 0 0 0 0
          0 0 0 0 0 0
          0 0 0 0 0 0
          0 0 0 0 0 0
          0 0 0 0 0 0
          0 0 0 0 0 0
          0 0 0 0 0 0
          0 0 0 0 0 0
          0 0 0 0 0 0
          0 0 0 0 0 0
          0 0 0 0 0 0
          0 0 0 0 0 0
          <InformationKey name="L2_NORM_RANGE" location="vtkDataArray" length="2">
            <Value index="0">
              0
            </Value>
            <Value index="1">
              0
            </Value>
          </InformationKey>
        </DataArray>
        <DataArray type="Float64" Name="Sld_traction" NumberOfComponents="3" format="ascii" RangeMin="1720.4247482480253" RangeMax="38136.942264498466">
          -36569.18960541646 10822.233451963133 0 12732.70882048717 10670.281644493327 0
          -15855.69281205509 10250.718075758881 0 -10688.358923773098 7738.076294158007 0
          -14573.735438850017 8663.766862669236 0 -10092.965692689128 7662.185120665749 0
          -13264.107746342885 8453.37946663182 0 -7895.931884744391 6379.30532399014 0
          -12461.009382330636 8088.650567982049 0 -4828.529942315403 3825.970567369504 0
          -10163.096695094531 6963.711987883817 0 -1165.8103588878087 1265.2065133780177 0
          -5815.737908787971 4881.952052660812 0
          <InformationKey name="L2_NORM_RANGE" location="vtkDataArray" length="2">
            <Value index="0">
              1720.4247482
            </Value>
            <Value index="1">
              38136.942264
            </Value>
          </InformationKey>
        </DataArray>
        <DataArray type="Float64" Name="Velocity" NumberOfComponents="3" format="ascii" RangeMin="0" RangeMax="10.037283581327943">
          0 0 0 0 0 0
          0.24388829731053066 -0.608162550245626 0 -0.36719654197475105 -0.6107562924700168 0
          0.28206995566098203 -2.2668619529990903 0 -0.5654995637171577 -2.2272226134562523 0
          0.1530565321127179 -4.017967508723258 0 -0.8007705917120058 -3.9564777185233275 0
          -0.01074297765997477 -6.166720134623009 0 -1.103866488288769 -6.059727016982936 0
          -0.38533368680952035 -8.307642728580602 0 -1.3339682192738713 -8.173604337993007 0
          -0.7564654734728564 -10.008737266980235 0
          <InformationKey name="L2_NORM_RANGE" location="vtkDataArray" length="2">
            <Value index="0">
              0
            </Value>
            <Value index="1">
              10.037283581
            </Value>
          </InformationKey>
        </DataArray>
        <DataArray type="Float64" Name="Acceleration" NumberOfComponents="3" format="ascii" RangeMin="0" RangeMax="2114.193368763846">
          0 0 0 0 0 0
          -257.9216427807193 899.2648189065139 0 239.71981389370393 725.8729154118317 0
          -216.82618729299992 1233.2686313300164 0 -828.188544999733 1064.6207307567493 0
          149.24557421745237 -1283.3912703595379 0 -770.4546230078272 -1561.3703824517802 0
          -176.18452971926385 -1668.9551522553638 0 325.7032858917628 -2088.9545160401 0
          -428.60824959905085 303.8267716715941 0 671.3232281543524 210.8415157692816 0
          189.7363926443859 1766.379905943114 0
          <InformationKey name="L2_NORM_RANGE" location="vtkDataArray" length="2">
            <Value index="0">
              0
            </Value>
            <Value index="1">
              2114.1933688
            </Value>
          </InformationKey>
        </DataArray>
        <DataArray type="Float64" Name="Sigma" NumberOfComponents="6" format="ascii" RangeMin="21911.241304566207" RangeMax="117162.12391552377">
          76890.50499172865 -76890.50499172509 0 -43619.534209239304 0 0
          -74618.32290847537 74618.32290847556 0 11982.219193865436 0 0
          77556.20986546583 -77556.20986546323 0 -13717.569814789864 0 0
          -74682.46196166873 74682.46196167223 0 15007.998525543662 0 0
          63101.578216638896 -63101.57821663653 0 -24549.65565334469 0 0
          -61096.168253970885 61096.16825395989 0 18287.297999533224 0 0
          54576.697059482285 -54576.69705948504 0 -22308.133608769116 0 0
          -52978.760591306906 52978.76059131106 0 17215.003328519906 0 0
          41395.58007373401 -41395.5800737352 0 -22733.54722714031 0 0
          -41282.63630183717 41282.636301835984 0 14216.574179534387 0 0
          27045.17422060323 -27045.174220605637 0 -18189.903399492436 0 0
          -27345.951692793 27345.95169279907 0 7670.717056354003 0 0
          13690.025424291953 -13690.025424289313 0 -10260.0635120588 0 0
          <InformationKey name="L2_NORM_RANGE" location="vtkDataArray" length="2">
            <Value index="0">
              21911.241305
            </Value>
            <Value index="1">
              117162.12392
            </Value>
          </InformationKey>
        </DataArray>
        <DataArray type="Float64" Name="Press" format="ascii" RangeMin="-91112.08857660394" RangeMax="91789.26114507142">
          76060.40608709113 -91112.08857660394 91789.26114507142 -80452.99720516762 71831.5792776877 -70695.5064619064
          65236.29172664396 -60871.51673713513 51925.823814168 -46623.08818368879 36424.613272146766 -29398.822481527037
          20046.998495559135
        </DataArray>
        <DataArray type="Float64" Name="Dev strain" NumberOfComponents="6" format="ascii" RangeMin="0" RangeMax="0">
          0 0 0 0 0 0
          0 0 0 0 0 0
          0 0 0 0 0 0
          0 0 0 0 0 0
          0 0 0 0 0 0
          0 0 0 0 0 0
          0 0 0 0 0 0
          0 0 0 0 0 0
          0 0 0 0 0 0
          0 0 0 0 0 0
          0 0 0 0 0 0
          0 0 0 0 0 0
          0 0 0 0 0 0
          <InformationKey name="L2_NORM_RANGE" location="vtkDataArray" length="2">
            <Value index="0">
              0
            </Value>
            <Value index="1">
              0
            </Value>
          </InformationKey>
        </DataArray>
        <DataArray type="Float64" Name="J2 Stresses" format="ascii" RangeMin="213734021.93559402" RangeMax="6387815699.040522">
          6387815699.040522 5603787507.875976 6062008619.101888 5633780129.592041 4132480571.6048975 3816348092.347781
          3103029068.1993256 2880838158.691472 1842797592.0231278 1754783805.3802667 814159595.0435634 762511049.0243945
          213734021.93559402
        </DataArray>
      </PointData>
      <CellData>
        <DataArray type="UInt8" Name="vtkGhostType" format="ascii" RangeMin="0" RangeMax="0">
          0 0 0 0 0 0
          0 0 0 0 0
        </DataArray>
        <DataArray type="Float64" Name="Gauss Stress" NumberOfComponents="6" format="ascii" RangeMin="15833.13328104606" RangeMax="54344.09081239256">
          -50506.7998804595 -2677.083210671864 0 4424.215968206414 0 0
          52188.65686809259 -1030.2710977180432 0 -15118.294943387911 0 0
          -50664.65879612902 -2213.290796796909 0 2915.213623910735 0 0
          49714.38977934253 5730.839032387992 0 -7753.0756475303015 0 0
          -41942.98775273103 -2277.49989553722 0 4398.055906428007 0 0
          40984.823854858536 3263.4191734212004 0 -9523.497087526866 0 0
          -36144.86597535534 -900.9880957480275 0 2899.3434269713307 0 0
          33094.705115195415 4432.360753922554 0 -9275.559169129841 0 0
          -27060.237055698675 662.0387936534503 0 1232.4626121319852 0 0
          22961.82229837535 4856.410303373703 0 -8902.292149032788 0 0
          13487.345746093692 4561.180444694327 0 -6926.4166183990765 0 0
          <InformationKey name="L2_NORM_RANGE" location="vtkDataArray" length="2">
            <Value index="0">
              15833.133281
            </Value>
            <Value index="1">
              54344.090812
            </Value>
          </InformationKey>
        </DataArray>
        <DataArray type="Float64" Name="Gauss Strain" NumberOfComponents="6" format="ascii" RangeMin="0" RangeMax="0">
          0 0 0 0 0 0
          0 0 0 0 0 0
          0 0 0 0 0 0
          0 0 0 0 0 0
          0 0 0 0 0 0
          0 0 0 0 0 0
          0 0 0 0 0 0
          0 0 0 0 0 0
          0 0 0 0 0 0
          0 0 0 0 0 0
          0 0 0 0 0 0
          <InformationKey name="L2_NORM_RANGE" location="vtkDataArray" length="2">
            <Value index="0">
              0
            </Value>
            <Value index="1">
              0
            </Value>
          </InformationKey>
        </DataArray>
      </CellData>
      <Points>
        <DataArray type="Float32" Name="Points" NumberOfComponents="3" format="ascii" RangeMin="0" RangeMax="0.6020797527609908">
          0 0.05000000074505806 0 0 0 0
          0.10000000149011612 0.05000000074505806 0 0.10000000149011612 0 0
          0.20000000298023224 0.05000000074505806 0 0.20000000298023224 0 0
          0.30000001192092896 0.05000000074505806 0 0.30000001192092896 0 0
          0.4000000059604645 0.05000000074505806 0 0.4000000059604645 0 0
          0.5 0.05000000074505806 0 0.5 0 0
          0.6000000238418579 0.05000000074505806 0
          <InformationKey name="L2_NORM_RANGE" location="vtkDataArray" length="2">
            <Value index="0">
              0
            </Value>
            <Value index="1">
              0.60207975276
            </Value>
          </InformationKey>
        </DataArray>
      </Points>
      <Cells>
        <DataArray type="Int64" Name="connectivity" format="ascii" RangeMin="0" RangeMax="12">
          3 2 1 2 0 1
          5 4 3 4 2 3
          7 6 5 6 4 5
          9 8 7 8 6 7
          11 10 9 10 8 9
          12 10 11
        </DataArray>
        <DataArray type="Int64" Name="offsets" format="ascii" RangeMin="3" RangeMax="33">
          3 6 9 12 15 18
          21 24 27 30 33
        </DataArray>
        <DataArray type="UInt8" Name="types" format="ascii" RangeMin="5" RangeMax="5">
          5 5 5 5 5 5
          5 5 5 5 5
        </DataArray>
      </Cells>
    </Piece>
  </UnstructuredGrid>
</VTKFile>
