<?xml version="1.0"?>
<VTKFile type="UnstructuredGrid" version="0.1" byte_order="LittleEndian" header_type="UInt32" compressor="vtkZLibDataCompressor">
  <UnstructuredGrid>
    <Piece NumberOfPoints="13" NumberOfCells="11">
      <PointData>
        <DataArray type="Float64" Name="Disp" NumberOfComponents="3" format="ascii" RangeMin="0.0046160154252524455" RangeMax="0.06576768353165661">
          -0.0017415927190513503 -0.009467438228769672 0 0.001671929620710113 -0.01715510497189402 0
          -0.0026802520350246947 -0.01693438974725711 0 0.00162545007550635 -0.027050879995687727 0
          -0.0038087694274087716 -0.02669569177510967 0 0.0012206209309044477 -0.03897442883972469 0
          -0.005113604687559959 -0.03848811994693712 0 0.00040770119147083604 -0.052314357908059286 0
          -0.006326399747075705 -0.05177701028474123 0 -0.0007558737399396141 -0.06576333972670037 0
          -0.007403504788487315 -0.06520938548367716 0 0.0013979951051887836 -0.009582481008969117 0
          -0.0009603494691635796 -0.004515011329248881 0
          <InformationKey name="L2_NORM_RANGE" location="vtkDataArray" length="2">
            <Value index="0">
              0.0046160154253
            </Value>
            <Value index="1">
              0.065767683532
            </Value>
          </InformationKey>
        </DataArray>
        <DataArray type="Float64" Name="Nodal Stress" NumberOfComponents="6" format="ascii" RangeMin="6568.723593189772" RangeMax="40033.30014385935">
          -38960.463359916095 -2964.9940878751163 0 5593.538443734526 0 0
          38505.42912843349 2754.719300225627 0 -7637.891726702913 0 0
          -38094.68393750706 -2362.876744960243 0 5061.465737285901 0 0
          32775.43500963719 3716.113114300828 0 -9131.651159948413 0 0
          -32384.179158976083 -1039.042250541508 0 3703.321523764262 0 0
          22606.460947340493 4548.052255555116 0 -9336.722487804182 0 0
          -23667.143991543413 653.9949750362458 0 1534.9803315366637 0 0
          11472.218511191115 4398.180433850596 0 -7265.622990879553 0 0
          -15140.026670624717 763.0991400590391 0 -699.3572722746455 0 0
          4932.753478402433 1919.5197691875253 0 -7713.2257182640715 0 0
          -6518.412427351502 -632.9460828364797 0 -507.7482908877282 0 0
          39713.552127354815 1720.3167960785452 0 -4747.568636400219 0 0
          -34724.470265164986 -3487.677165295036 0 6098.275523431797 0 0
          <InformationKey name="L2_NORM_RANGE" location="vtkDataArray" length="2">
            <Value index="0">
              6568.7235932
            </Value>
            <Value index="1">
              40033.300144
            </Value>
          </InformationKey>
        </DataArray>
        <DataArray type="Float64" Name="Nodal Strain" NumberOfComponents="6" format="ascii" RangeMin="0" RangeMax="0">
          0 0 0 0 0 0
          0 0 0 0 0 0
          0 0 0 0 0 0
          0 0 0 0 0 0
          0 0 0 0 0 0
          0 0 0 0 0 0
          0 0 0 0 0 0
          0 0 0 0 0 0
          0 0 0 0 0 0
          0 0 0 0 0 0
          0 0 0 0 0 0
          0 0 0 0 0 0
          0 0 0 0 0 0
          <InformationKey name="L2_NORM_RANGE" location="vtkDataArray" length="2">
            <Value index="0">
              0
            </Value>
            <Value index="1">
              0
            </Value>
          </InformationKey>
        </DataArray>
        <DataArray type="Float64" Name="Sld_traction" NumberOfComponents="3" format="ascii" RangeMin="97.99286241119218" RangeMax="13428.972932809244">
          -10167.47605424633 7102.342670642169 0 -10398.358252464457 6378.115868251908 0
          -8844.79385256876 6252.977787524577 0 -11668.028105718171 6647.889451118612 0
          -6659.362369705402 4361.368432695928 0 -11545.80624765094 6503.482431330344 0
          -3179.953465728033 2045.6970374860305 0 -9654.26758751255 5414.921419899716 0
          -1452.2267206174338 883.83123375259 0 -3140.6466235406365 -1389.761499910947 0
          -55.46988477487251 -80.78176134871786 0 -7905.944563151386 5626.910044780304 0
          -10802.571720355896 7373.538761395065 0
          <InformationKey name="L2_NORM_RANGE" location="vtkDataArray" length="2">
            <Value index="0">
              97.992862411
            </Value>
            <Value index="1">
              13428.972933
            </Value>
          </InformationKey>
        </DataArray>
        <DataArray type="Float64" Name="Velocity" NumberOfComponents="3" format="ascii" RangeMin="5.205385845863918" RangeMax="12.13588177097769">
          -0.3118273119851806 -6.424354066581385 0 0.020512061199253417 -7.115670371635225 0
          -0.28876682676480614 -7.0948558330306 0 0.08727683230480252 -7.922920279885613 0
          -0.5229846258863172 -7.8757180313711475 0 0.007669291932407309 -9.441323620110424 0
          -0.6765368813804354 -9.36527946197889 0 -0.23025431567355514 -10.635773049834762 0
          -0.8901579047092445 -10.55509824599437 0 -0.3457866695372328 -12.130954535333109 0
          -1.1270432692196755 -12.059239331763836 0 0.1417761395122418 -6.4578262324615725 0
          -0.4248707044230917 -5.188017606836299 0
          <InformationKey name="L2_NORM_RANGE" location="vtkDataArray" length="2">
            <Value index="0">
              5.2053858459
            </Value>
            <Value index="1">
              12.135881771
            </Value>
          </InformationKey>
        </DataArray>
        <DataArray type="Float64" Name="Acceleration" NumberOfComponents="3" format="ascii" RangeMin="239.82839795994553" RangeMax="2712.995622399166">
          -86.51380124902516 -2340.169046298992 0 -308.0786711808246 -1027.7491427310879 0
          -324.7966206653232 -1126.2744870128545 0 -100.04289390793528 -2083.259822898247 0
          -329.51671310125175 -1948.8656491718966 0 -935.650425335461 -1037.9394462698874 0
          9.11518028938167 -1368.756998495107 0 325.1589468820157 509.1948554092037 0
          221.94770055847766 90.86736864704699 0 773.4355371442452 -200.91851746591783 0
          83.32517768208595 -821.805131857458 0 -791.5524413846953 -2257.0123475503765 0
          -702.020056355989 -2620.594033350258 0
          <InformationKey name="L2_NORM_RANGE" location="vtkDataArray" length="2">
            <Value index="0">
              239.82839796
            </Value>
            <Value index="1">
              2712.9956224
            </Value>
          </InformationKey>
        </DataArray>
        <DataArray type="Float64" Name="Sigma" NumberOfComponents="6" format="ascii" RangeMin="4015.629530017223" RangeMax="80750.59192851694">
          -55705.306838874225 55705.30683887043 0 17734.025960848092 0 0
          54787.08426074337 -54787.0842607426 0 -21014.637877302095 0 0
          -53128.59437918174 53128.59437918442 0 19049.958124303193 0 0
          46800.756508656894 -46800.75650865937 0 -23229.17636959778 0 0
          -43843.633743301936 43843.63374331294 0 17489.127929482725 0 0
          32053.036032824137 -32053.036032831667 0 -21992.468658203346 0 0
          -30105.747633014267 30105.747633007923 0 11139.28593729475 0 0
          16731.96503901187 -16731.965038987386 0 -13929.540557658145 0 0
          -19234.360159043536 19234.36015904216 0 6051.3219816382625 0 0
          8588.668434965686 -8588.668434982552 0 -15954.340782274667 0 0
          -562.6204824726906 562.6204824886257 0 3936.012818542745 0 0
          55818.38223015837 -55818.38223015721 0 -15614.894686078127 0 0
          -50706.370094229766 50706.370094231745 0 15218.996658929169 0 0
          <InformationKey name="L2_NORM_RANGE" location="vtkDataArray" length="2">
            <Value index="0">
              4015.62953
            </Value>
            <Value index="1">
              80750.591929
            </Value>
          </InformationKey>
        </DataArray>
        <DataArray type="Float64" Name="Press" format="ascii" RangeMin="-63961.79429370557" RangeMax="63062.35372478851">
          -63961.79429370557 63062.35372478851 -61297.39416215312 56134.75979503857 -50267.95598947133 41443.23412692512
          -33404.346650263054 25007.28573552286 -20553.226530539665 11539.081110418258 -2644.285800130686 62614.73780603381
          -58850.796561042254
        </DataArray>
        <DataArray type="Float64" Name="Dev strain" NumberOfComponents="6" format="ascii" RangeMin="0" RangeMax="0">
          0 0 0 0 0 0
          0 0 0 0 0 0
          0 0 0 0 0 0
          0 0 0 0 0 0
          0 0 0 0 0 0
          0 0 0 0 0 0
          0 0 0 0 0 0
          0 0 0 0 0 0
          0 0 0 0 0 0
          0 0 0 0 0 0
          0 0 0 0 0 0
          0 0 0 0 0 0
          0 0 0 0 0 0
          <InformationKey name="L2_NORM_RANGE" location="vtkDataArray" length="2">
            <Value index="0">
              0
            </Value>
            <Value index="1">
              0
            </Value>
          </InformationKey>
        </DataArray>
        <DataArray type="Float64" Name="J2 Stresses" format="ascii" RangeMin="4189591.03423997" RangeMax="3181705129.207925">
          3181705129.207925 3112028353.0722866 2913372766.8421903 2325209468.485176 1998731618.7507393 1148314288.342278
          937376963.3407564 328466679.1031666 379115235.1591394 137400472.9351589 4189591.03423997 3176648028.806322
          2629040432.9592233
        </DataArray>
      </PointData>
      <CellData>
        <DataArray type="UInt8" Name="vtkGhostType" format="ascii" RangeMin="0" RangeMax="1">
          1 1 0 0 0 0
          0 0 0 0 0
        </DataArray>
        <DataArray type="Float64" Name="Gauss Stress" NumberOfComponents="6" format="ascii" RangeMin="7878.915058306359" RangeMax="39444.265962006975">
          -36930.38258388655 -3201.5194485896855 0 5779.375977899713 0 0
          38871.8189630481 2271.712528362449 0 -6298.5022008440465 0 0
          -38747.88389612759 -2716.672591252648 0 5256.448735949731 0 0
          -35200.68732347089 -1753.0395809159627 0 4436.636561396048 0 0
          35452.98858263085 3146.824322485473 0 -8397.952040865563 0 0
          -28041.80461876711 -110.90772310669172 0 2211.981736191376 0 0
          27440.065576890494 4099.959711438086 0 -9244.172366106137 0 0
          -20519.47673277527 1219.2851025942773 0 1087.0224537582899 0 0
          17241.808883668895 4788.973257791264 0 -8260.907759522248 0 0
          -7622.2478089342085 -150.0396712346199 0 -1989.001994031219 0 0
          7359.8045434451615 3302.2890001578917 0 -7944.18645276485 0 0
          <InformationKey name="L2_NORM_RANGE" location="vtkDataArray" length="2">
            <Value index="0">
              7878.9150583
            </Value>
            <Value index="1">
              39444.265962
            </Value>
          </InformationKey>
        </DataArray>
        <DataArray type="Float64" Name="Gauss Strain" NumberOfComponents="6" format="ascii" RangeMin="0" RangeMax="0">
          0 0 0 0 0 0
          0 0 0 0 0 0
          0 0 0 0 0 0
          0 0 0 0 0 0
          0 0 0 0 0 0
          0 0 0 0 0 0
          0 0 0 0 0 0
          0 0 0 0 0 0
          0 0 0 0 0 0
          0 0 0 0 0 0
          0 0 0 0 0 0
          <InformationKey name="L2_NORM_RANGE" location="vtkDataArray" length="2">
            <Value index="0">
              0
            </Value>
            <Value index="1">
              0
            </Value>
          </InformationKey>
        </DataArray>
      </CellData>
      <Points>
        <DataArray type="Float32" Name="Points" NumberOfComponents="3" format="ascii" RangeMin="0.4000000059604645" RangeMax="1.0012492197622458">
          0.5 0 0 0.6000000238418579 0.05000000074505806 0
          0.6000000238418579 0 0 0.699999988079071 0.05000000074505806 0
          0.699999988079071 0 0 0.800000011920929 0.05000000074505806 0
          0.800000011920929 0 0 0.8999999761581421 0.05000000074505806 0
          0.8999999761581421 0 0 1 0.05000000074505806 0
          1 0 0 0.5 0.05000000074505806 0
          0.4000000059604645 0 0
          <InformationKey name="L2_NORM_RANGE" location="vtkDataArray" length="2">
            <Value index="0">
              0.40000000596
            </Value>
            <Value index="1">
              1.0012492198
            </Value>
          </InformationKey>
        </DataArray>
      </Points>
      <Cells>
        <DataArray type="Int64" Name="connectivity" format="ascii" RangeMin="0" RangeMax="12">
          0 11 12 1 11 0
          2 1 0 4 3 2
          3 1 2 6 5 4
          5 3 4 8 7 6
          7 5 6 10 9 8
          9 7 8
        </DataArray>
        <DataArray type="Int64" Name="offsets" format="ascii" RangeMin="3" RangeMax="33">
          3 6 9 12 15 18
          21 24 27 30 33
        </DataArray>
        <DataArray type="UInt8" Name="types" format="ascii" RangeMin="5" RangeMax="5">
          5 5 5 5 5 5
          5 5 5 5 5
        </DataArray>
      </Cells>
    </Piece>
  </UnstructuredGrid>
</VTKFile>
