<?xml version="1.0"?>
<VTKFile type="UnstructuredGrid" version="0.1" byte_order="LittleEndian" header_type="UInt32" compressor="vtkZLibDataCompressor">
  <UnstructuredGrid>
    <Piece NumberOfPoints="13" NumberOfCells="11">
      <PointData>
        <DataArray type="Float64" Name="Disp" NumberOfComponents="3" format="ascii" RangeMin="0" RangeMax="0.0012082257109346489">
          0 0 0 0 0 0
          -0.000022127536978802718 0.00004821043846271202 0 0.00003338960623582444 0.00004835288082364361 0
          -0.00004714554332706342 0.00022954597245043208 0 0.00007487614764514977 0.00023051945208694535 0
          -0.00006966836436448384 0.0005470611007949832 0 0.00011347203786292925 0.000550378057948971 0
          -0.000058520441686905856 0.0009524292204590619 0 0.00011764297410003484 0.0009553741713875033 0
          0.000035177434430096015 0.0012053244451819128 0 0.00003320109322650991 0.0012077694548100239 0
          0.0002632244497252724 0.0008452394160268564 0
          <InformationKey name="L2_NORM_RANGE" location="vtkDataArray" length="2">
            <Value index="0">
              0
            </Value>
            <Value index="1">
              0.0012082257109
            </Value>
          </InformationKey>
        </DataArray>
        <DataArray type="Float64" Name="Nodal Stress" NumberOfComponents="6" format="ascii" RangeMin="724.8154335455539" RangeMax="18210.698336138325">
          -1762.2233911508374 449.4770304254015 0 795.0548248611642 0 0
          1686.0454898464995 423.67181738113493 0 77.36464477322421 0 0
          -972.9038715204423 -88.94315752524642 0 285.2586161175897 0 0
          1811.2342148836897 -70.72320049587088 0 21.089466691417424 0 0
          385.9651919825323 -139.35123704432834 0 597.4692594752735 0 0
          668.0724845109431 -133.23006233790005 0 450.6699006875001 0 0
          2880.6601582069775 -183.6569544201288 0 1142.4668729739615 0 0
          -1689.0777242100048 -554.9756685615355 0 1217.907666230682 0 0
          7275.517178948867 -292.10031348850185 0 1778.1468136122771 0 0
          -5931.78694392274 -1144.4750969564757 0 2170.166389179347 0 0
          13007.379201261665 -381.1348197859193 0 1971.2480858943013 0 0
          -11446.589507867799 -1744.697334558267 0 3082.3952133248754 0 0
          18187.705468662356 -230.91816370943 0 885.2008115052967 0 0
          <InformationKey name="L2_NORM_RANGE" location="vtkDataArray" length="2">
            <Value index="0">
              724.81543355
            </Value>
            <Value index="1">
              18210.698336
            </Value>
          </InformationKey>
        </DataArray>
        <DataArray type="Float64" Name="Nodal Strain" NumberOfComponents="6" format="ascii" RangeMin="0" RangeMax="0">
          0 0 0 0 0 0
          0 0 0 0 0 0
          0 0 0 0 0 0
          0 0 0 0 0 0
          0 0 0 0 0 0
          0 0 0 0 0 0
          0 0 0 0 0 0
          0 0 0 0 0 0
          0 0 0 0 0 0
          0 0 0 0 0 0
          0 0 0 0 0 0
          0 0 0 0 0 0
          0 0 0 0 0 0
          <InformationKey name="L2_NORM_RANGE" location="vtkDataArray" length="2">
            <Value index="0">
              0
            </Value>
            <Value index="1">
              0
            </Value>
          </InformationKey>
        </DataArray>
        <DataArray type="Float64" Name="Sld_traction" NumberOfComponents="3" format="ascii" RangeMin="193.11425380628566" RangeMax="5437.374619481483">
          1075.0742876311351 -130.02777518565352 0 -536.9158226942054 -521.1661768623395 0
          681.9857757929879 -291.38216606687814 0 303.0053606706823 -115.68010068689739 0
          985.1101406035327 -202.81628668217985 0 -76.93217256792963 177.12864208573612 0
          1471.8265767992034 -50.63303765556265 0 -1003.4697890021386 884.6616909216838 0
          1780.6726367182416 248.79053742669933 0 -2485.501760052297 1959.3093109088616 0
          1191.83297059572 714.2299822540889 0 -4466.511655371429 3100.857362893782 0
          -993.7135676500147 1445.3518958157135 0
          <InformationKey name="L2_NORM_RANGE" location="vtkDataArray" length="2">
            <Value index="0">
              193.11425381
            </Value>
            <Value index="1">
              5437.3746195
            </Value>
          </InformationKey>
        </DataArray>
        <DataArray type="Float64" Name="Velocity" NumberOfComponents="3" format="ascii" RangeMin="0" RangeMax="1.130174202052474">
          0 0 0 0 0 0
          -0.032521362216717975 0.07626948915139552 0 0.05269031507553813 0.07714856490012534 0
          -0.06336606850346509 0.3426326508984556 0 0.10210346468459905 0.3440532423957236 0
          -0.07663805301274955 0.7365307301815776 0 0.12823650976092216 0.7415602778764637 0
          -0.029626562823978433 1.1240623757216504 0 0.08465881096672653 1.126998940864918 0
          0.1280161613818028 1.110389683486174 0 -0.07739398268417211 1.1090697182692193 0
          0.39541363675299324 0.20262038411371358 0
          <InformationKey name="L2_NORM_RANGE" location="vtkDataArray" length="2">
            <Value index="0">
              0
            </Value>
            <Value index="1">
              1.1301742021
            </Value>
          </InformationKey>
        </DataArray>
        <DataArray type="Float64" Name="Acceleration" NumberOfComponents="3" format="ascii" RangeMin="0" RangeMax="1401.5576160656815">
          0 0 0 0 0 0
          -48.14045548454235 117.53420356579431 0 75.55598080905479 116.50099683730136 0
          -87.1219408055549 484.98316686083194 0 114.49086261180842 482.9652145756611 0
          -75.00121703331223 886.2805392096316 0 84.23971003278761 891.500384539258 0
          30.435659446427714 1035.6401055581916 0 -72.63053389439634 1034.892169285401 0
          257.5264589852987 370.10224501660207 0 -340.0392770309402 354.385668477689 0
          462.4016018245657 -1323.0829565003821 0
          <InformationKey name="L2_NORM_RANGE" location="vtkDataArray" length="2">
            <Value index="0">
              0
            </Value>
            <Value index="1">
              1401.5576161
            </Value>
          </InformationKey>
        </DataArray>
        <DataArray type="Float64" Name="Sigma" NumberOfComponents="6" format="ascii" RangeMin="303.9457916599669" RangeMax="35567.684474420246">
          -2378.878624545847 2378.8786245474184 0 1571.401158193832 0 0
          2251.9107140670967 -2251.91071406845 0 -333.6435460761131 0 0
          -1917.5543081276992 1917.554308126273 0 371.0605291331067 0 0
          2254.5583274887904 -2254.5583274900273 0 -359.4971466208099 0 0
          -433.8541018703254 433.85410186985973 0 1012.231881006468 0 0
          214.32930517281784 -214.329305171741 0 -22.559746375787654 0 0
          2734.429314303263 -2734.42931430303 0 1489.7641900657 0 0
          -3333.2736057239526 3333.273605725466 0 899.3557811152496 0 0
          8651.833638493772 -8651.833638493568 0 2005.208635948682 0 0
          -9791.780976262104 9791.780976261703 0 2251.8815380212964 0 0
          17001.93860509315 -17001.938605094092 0 1513.7256064068497 0 0
          -17971.15339699246 17971.153396992377 0 4595.789584680204 0 0
          25137.622303414813 -25137.62230341458 0 -1122.5278320161415 0 0
          <InformationKey name="L2_NORM_RANGE" location="vtkDataArray" length="2">
            <Value index="0">
              303.94579166
            </Value>
            <Value index="1">
              35567.684474
            </Value>
          </InformationKey>
        </DataArray>
        <DataArray type="Float64" Name="Press" format="ascii" RangeMin="-21156.685574554675" RangeMax="26491.408795288866">
          -1679.2732199333332 3228.4023605410184 -2495.3486421254056 2194.159619819533 -566.2910966819618 171.6958046606669
          2640.569627112898 -4163.1329889961125 8888.729807747477 -11715.958010009868 17676.895462740278 -21156.685574554675
          26491.408795288866
        </DataArray>
        <DataArray type="Float64" Name="Dev strain" NumberOfComponents="6" format="ascii" RangeMin="0" RangeMax="0">
          0 0 0 0 0 0
          0 0 0 0 0 0
          0 0 0 0 0 0
          0 0 0 0 0 0
          0 0 0 0 0 0
          0 0 0 0 0 0
          0 0 0 0 0 0
          0 0 0 0 0 0
          0 0 0 0 0 0
          0 0 0 0 0 0
          0 0 0 0 0 0
          0 0 0 0 0 0
          0 0 0 0 0 0
          <InformationKey name="L2_NORM_RANGE" location="vtkDataArray" length="2">
            <Value index="0">
              0
            </Value>
            <Value index="1">
              0
            </Value>
          </InformationKey>
        </DataArray>
        <DataArray type="Float64" Name="J2 Stresses" format="ascii" RangeMin="46064.28659476705" RangeMax="632215072.2525446">
          6276388.910318108 5098931.368092788 3711436.0036865 5115342.801658967 444382.72694097785 46064.28659476705
          8031953.010420904 11312923.135877362 75859440.72659141 97146717.30240482 289638757.6342458 328242674.8948959
          632215072.2525446
        </DataArray>
      </PointData>
      <CellData>
        <DataArray type="UInt8" Name="vtkGhostType" format="ascii" RangeMin="0" RangeMax="0">
          0 0 0 0 0 0
          0 0 0 0 0
        </DataArray>
        <DataArray type="Float64" Name="Gauss Stress" NumberOfComponents="6" format="ascii" RangeMin="534.5777287054258" RangeMax="15818.986746144146">
          1838.7093572211118 112.76620160098031 0 -107.36005452127218 0 0
          -996.9139067080571 366.1009056958402 0 536.272713750275 0 0
          1278.1992861965066 -78.4897343312235 0 210.05832933662342 0 0
          -321.443400499023 -256.876678827243 0 341.26508783958843 0 0
          -578.4608478234738 -322.1175236572843 0 788.8534082683873 0 0
          1586.9596175657869 -89.6433941711025 0 826.4787748987935 0 0
          -3821.1940449169338 -839.0467492549682 0 1718.8153183617428 0 0
          5139.718597645782 -228.94096706895684 0 1464.776202376544 0 0
          -8652.247963328566 -1478.2507845547598 0 2787.132243036117 0 0
          10237.219509267574 -337.4413356160244 0 1923.6052601256094 0 0
          15726.675398329997 -385.59627601394345 0 1662.3291196903035 0 0
          <InformationKey name="L2_NORM_RANGE" location="vtkDataArray" length="2">
            <Value index="0">
              534.57772871
            </Value>
            <Value index="1">
              15818.986746
            </Value>
          </InformationKey>
        </DataArray>
        <DataArray type="Float64" Name="Gauss Strain" NumberOfComponents="6" format="ascii" RangeMin="0" RangeMax="0">
          0 0 0 0 0 0
          0 0 0 0 0 0
          0 0 0 0 0 0
          0 0 0 0 0 0
          0 0 0 0 0 0
          0 0 0 0 0 0
          0 0 0 0 0 0
          0 0 0 0 0 0
          0 0 0 0 0 0
          0 0 0 0 0 0
          0 0 0 0 0 0
          <InformationKey name="L2_NORM_RANGE" location="vtkDataArray" length="2">
            <Value index="0">
              0
            </Value>
            <Value index="1">
              0
            </Value>
          </InformationKey>
        </DataArray>
      </CellData>
      <Points>
        <DataArray type="Float32" Name="Points" NumberOfComponents="3" format="ascii" RangeMin="0" RangeMax="0.6020797527609908">
          0 0.05000000074505806 0 0 0 0
          0.10000000149011612 0.05000000074505806 0 0.10000000149011612 0 0
          0.20000000298023224 0.05000000074505806 0 0.20000000298023224 0 0
          0.30000001192092896 0.05000000074505806 0 0.30000001192092896 0 0
          0.4000000059604645 0.05000000074505806 0 0.4000000059604645 0 0
          0.5 0.05000000074505806 0 0.5 0 0
          0.6000000238418579 0.05000000074505806 0
          <InformationKey name="L2_NORM_RANGE" location="vtkDataArray" length="2">
            <Value index="0">
              0
            </Value>
            <Value index="1">
              0.60207975276
            </Value>
          </InformationKey>
        </DataArray>
      </Points>
      <Cells>
        <DataArray type="Int64" Name="connectivity" format="ascii" RangeMin="0" RangeMax="12">
          3 2 1 2 0 1
          5 4 3 4 2 3
          7 6 5 6 4 5
          9 8 7 8 6 7
          11 10 9 10 8 9
          12 10 11
        </DataArray>
        <DataArray type="Int64" Name="offsets" format="ascii" RangeMin="3" RangeMax="33">
          3 6 9 12 15 18
          21 24 27 30 33
        </DataArray>
        <DataArray type="UInt8" Name="types" format="ascii" RangeMin="5" RangeMax="5">
          5 5 5 5 5 5
          5 5 5 5 5
        </DataArray>
      </Cells>
    </Piece>
  </UnstructuredGrid>
</VTKFile>
