<?xml version="1.0"?>
<VTKFile type="UnstructuredGrid" version="0.1" byte_order="LittleEndian" header_type="UInt32" compressor="vtkZLibDataCompressor">
  <UnstructuredGrid>
    <Piece NumberOfPoints="13" NumberOfCells="11">
      <PointData>
        <DataArray type="Float64" Name="Disp" NumberOfComponents="3" format="ascii" RangeMin="0" RangeMax="0.0033090369207356284">
          0 0 0 0 0 0
          -0.00021246061619932945 0.0005553786848824819 0 0.0003643447936635298 0.000567541620379687 0
          -0.0003661604833465593 0.0021448922619994072 0 0.00037544262464934367 0.0021544908005548223 0
          -0.00013531647658705684 0.0033020414432263345 0 0.00015050219639587943 0.003305612565270096 0
          0.00026055438065348917 0.0032038923161266906 0 -0.00024274372209132263 0.003203347992941058 0
          0.0007263728015232475 0.0012535388414053536 0 -0.0007286078449113003 0.0012728252450352265 0
          0.0010889748753722674 -0.0025790325699707323 0
          <InformationKey name="L2_NORM_RANGE" location="vtkDataArray" length="2">
            <Value index="0">
              0
            </Value>
            <Value index="1">
              0.0033090369207
            </Value>
          </InformationKey>
        </DataArray>
        <DataArray type="Float64" Name="Nodal Stress" NumberOfComponents="6" format="ascii" RangeMin="5066.181145780313" RangeMax="28330.664156330047">
          -15418.354470504108 -4035.6884620142428 0 9132.643517220326 0 0
          4967.098061815783 -3474.856103045669 0 5815.45388184833 0 0
          -2258.173686544539 -1722.7341035544682 0 4928.013507168196 0 0
          3772.4074003149067 -1379.6102314291495 0 3087.362858046535 0 0
          7562.882379096332 -1262.0801298880158 0 5224.108211734789 0 0
          -7321.643624506466 -2082.066707056174 0 4303.74649130145 0 0
          18110.386269484545 -796.4543413731865 0 3260.3754852542597 0 0
          -16940.23256945373 -2285.1662988423723 0 4280.234375048901 0 0
          25528.82119538157 80.50629185381486 0 432.04665925183576 0 0
          -23998.43082645464 -2133.742940722415 0 3545.596028547718 0 0
          28188.372622439896 1081.6105448534825 0 -2621.5070220212474 0 0
          -27029.52587454132 -1698.2142509589635 0 2884.0087280209636 0 0
          27239.5248469756 1704.444201097166 0 -4405.743677994752 0 0
          <InformationKey name="L2_NORM_RANGE" location="vtkDataArray" length="2">
            <Value index="0">
              5066.1811458
            </Value>
            <Value index="1">
              28330.664156
            </Value>
          </InformationKey>
        </DataArray>
        <DataArray type="Float64" Name="Nodal Strain" NumberOfComponents="6" format="ascii" RangeMin="0" RangeMax="0">
          0 0 0 0 0 0
          0 0 0 0 0 0
          0 0 0 0 0 0
          0 0 0 0 0 0
          0 0 0 0 0 0
          0 0 0 0 0 0
          0 0 0 0 0 0
          0 0 0 0 0 0
          0 0 0 0 0 0
          0 0 0 0 0 0
          0 0 0 0 0 0
          0 0 0 0 0 0
          0 0 0 0 0 0
          <InformationKey name="L2_NORM_RANGE" location="vtkDataArray" length="2">
            <Value index="0">
              0
            </Value>
            <Value index="1">
              0
            </Value>
          </InformationKey>
        </DataArray>
        <DataArray type="Float64" Name="Sld_traction" NumberOfComponents="3" format="ascii" RangeMin="2094.744483440812" RangeMax="13884.525439942183">
          12494.127725604261 -6056.138957181262 0 -3769.1609874128044 -278.16197916079346 0
          6337.982725665559 -1369.0264156073206 0 -2011.3591021935542 1971.274467521695 0
          6096.091170658248 -872.3731073586674 0 -4270.094060745947 2978.1729483820623 0
          2001.8225950381232 616.9771056534829 0 -6856.5499914479315 4214.340009806662 0
          -2369.164366347029 2371.132074530283 0 -7460.922118695093 4735.0948756714015 0
          -5900.330517625957 3780.5887371475383 0 -7049.727297182827 4586.398617196588 0
          -7625.100659426149 4380.769951378678 0
          <InformationKey name="L2_NORM_RANGE" location="vtkDataArray" length="2">
            <Value index="0">
              2094.7444834
            </Value>
            <Value index="1">
              13884.52544
            </Value>
          </InformationKey>
        </DataArray>
        <DataArray type="Float64" Name="Velocity" NumberOfComponents="3" format="ascii" RangeMin="0" RangeMax="3.3448900121856866">
          0 0 0 0 0 0
          -0.14224096114655346 0.4118205649615265 0 0.2598243763862612 0.42763345836765787 0
          -0.20116549796559985 1.397674414568034 0 0.11434571761793824 1.4060693994023126 0
          0.103787445794696 1.4574797160065054 0 -0.1981057142763981 1.4468821292811413 0
          0.383939206332351 0.25625146900973994 0 -0.44956407974402524 0.2511562422641418 0
          0.41242714844184225 -1.6869051342211643 0 -0.5137982114225289 -1.647936659689486 0
          0.1848549786160384 -3.339778110967917 0
          <InformationKey name="L2_NORM_RANGE" location="vtkDataArray" length="2">
            <Value index="0">
              0
            </Value>
            <Value index="1">
              3.3448900122
            </Value>
          </InformationKey>
        </DataArray>
        <DataArray type="Float64" Name="Acceleration" NumberOfComponents="3" format="ascii" RangeMin="0" RangeMax="2454.9467150613978">
          0 0 0 0 0 0
          14.142567944478827 41.22143433840307 0 1.793996945430706 58.874131684260306 0
          130.81155339616902 -215.1737294691095 0 -221.97831619481798 -212.42961210370163 0
          296.18880298476546 -1357.5990457634416 0 -343.3577421609167 -1375.668016114822 0
          171.38694411833785 -2448.9568981867615 0 -90.70482423816111 -2444.3823844125786 0
          -345.481770092727 -2128.817142817123 0 342.4276990934966 -2061.3052581041884 0
          -519.5256392872884 -174.62591992684156 0
          <InformationKey name="L2_NORM_RANGE" location="vtkDataArray" length="2">
            <Value index="0">
              0
            </Value>
            <Value index="1">
              2454.9467151
            </Value>
          </InformationKey>
        </DataArray>
        <DataArray type="Float64" Name="Sigma" NumberOfComponents="6" format="ascii" RangeMin="5416.772192195629" RangeMax="56916.498651434886">
          -15768.340083774441 15768.340083774689 0 13101.737723386548 0 0
          14060.904248695355 -14060.904248696475 0 6176.153790640389 0 0
          -5289.5560981274175 5289.556098125613 0 4150.9448314678175 0 0
          3816.95375947759 -3816.9537594793655 0 450.7205100170959 0 0
          8488.961954224687 -8488.961954227096 0 7903.416623798235 0 0
          -12468.600602026803 12468.600602029459 0 4063.9261254512076 0 0
          24580.69745545066 -24580.697455451005 0 2085.44605849433 0 0
          -26661.668443592534 26661.66844359201 0 6830.619836646902 0 0
          35570.310705427284 -35570.31070542751 0 -3063.391405262675 0 0
          -36056.72897232164 36056.72897232234 0 8301.302297276603 0 0
          39770.92647661262 -39770.92647661286 0 -8719.78400664353 0 0
          -39303.87329276507 39303.87329276391 0 9560.087174411128 0 0
          38703.18539333369 -38703.18539333552 0 -11699.770545444797 0 0
          <InformationKey name="L2_NORM_RANGE" location="vtkDataArray" length="2">
            <Value index="0">
              5416.7721922
            </Value>
            <Value index="1">
              56916.498651
            </Value>
          </InformationKey>
        </DataArray>
        <DataArray type="Float64" Name="Press" format="ascii" RangeMin="-44173.87932389602" RangeMax="43955.53484731728">
          -21045.818203331997 8797.172809421201 -5613.622267792685 2986.2221918389114 7223.928287476141 -15587.903852454387
          25252.310072901542 -30919.873073547034 37986.05072969636 -41010.903587565925 43955.53484731728 -44173.87932389602
          43754.709314442065
        </DataArray>
        <DataArray type="Float64" Name="Dev strain" NumberOfComponents="6" format="ascii" RangeMin="0" RangeMax="0">
          0 0 0 0 0 0
          0 0 0 0 0 0
          0 0 0 0 0 0
          0 0 0 0 0 0
          0 0 0 0 0 0
          0 0 0 0 0 0
          0 0 0 0 0 0
          0 0 0 0 0 0
          0 0 0 0 0 0
          0 0 0 0 0 0
          0 0 0 0 0 0
          0 0 0 0 0 0
          0 0 0 0 0 0
          <InformationKey name="L2_NORM_RANGE" location="vtkDataArray" length="2">
            <Value index="0">
              0
            </Value>
            <Value index="1">
              0
            </Value>
          </InformationKey>
        </DataArray>
        <DataArray type="Float64" Name="J2 Stresses" format="ascii" RangeMin="14619923.246534403" RangeMax="1600735251.0887656">
          291554431.8406742 207245247.20240527 32286989.46369975 14619923.246534403 87678473.64262724 159594874.8611775
          605297958.7121294 722508906.0342424 1267593095.4061027 1317315609.1411762 1600735251.0887656 1567643272.5092707
          1532157717.2948434
        </DataArray>
      </PointData>
      <CellData>
        <DataArray type="UInt8" Name="vtkGhostType" format="ascii" RangeMin="0" RangeMax="0">
          0 0 0 0 0 0
          0 0 0 0 0
        </DataArray>
        <DataArray type="Float64" Name="Gauss Stress" NumberOfComponents="6" format="ascii" RangeMin="4854.5704758112315" RangeMax="27843.55768037732">
          6252.69154783765 -2139.509725527599 0 3592.6063773751002 0 0
          -8286.419864969996 -3621.7585761665514 0 7809.612115164917 0 0
          -1846.8127538212902 -1738.3561616054467 0 4139.354419755512 0 0
          3870.962609032411 -806.6104680194936 0 4168.360655094383 0 0
          -11935.01281442286 -2235.2984209764727 0 4326.664006864147 0 0
          12496.464438523954 -1237.5747665751146 0 4684.26293591459 0 0
          -20364.270880634507 -2265.5464069765894 0 4022.843576220276 0 0
          21935.942482112103 -390.283996078545 0 1950.8914966261846 0 0
          -25606.307950872928 -1879.857425223766 0 3047.2018216814017 0 0
          26738.396733055342 548.7245932432256 0 -1160.624371543202 0 0
          27568.86780501486 1455.3754202262817 0 -3619.822459225734 0 0
          <InformationKey name="L2_NORM_RANGE" location="vtkDataArray" length="2">
            <Value index="0">
              4854.5704758
            </Value>
            <Value index="1">
              27843.55768
            </Value>
          </InformationKey>
        </DataArray>
        <DataArray type="Float64" Name="Gauss Strain" NumberOfComponents="6" format="ascii" RangeMin="0" RangeMax="0">
          0 0 0 0 0 0
          0 0 0 0 0 0
          0 0 0 0 0 0
          0 0 0 0 0 0
          0 0 0 0 0 0
          0 0 0 0 0 0
          0 0 0 0 0 0
          0 0 0 0 0 0
          0 0 0 0 0 0
          0 0 0 0 0 0
          0 0 0 0 0 0
          <InformationKey name="L2_NORM_RANGE" location="vtkDataArray" length="2">
            <Value index="0">
              0
            </Value>
            <Value index="1">
              0
            </Value>
          </InformationKey>
        </DataArray>
      </CellData>
      <Points>
        <DataArray type="Float32" Name="Points" NumberOfComponents="3" format="ascii" RangeMin="0" RangeMax="0.6020797527609908">
          0 0.05000000074505806 0 0 0 0
          0.10000000149011612 0.05000000074505806 0 0.10000000149011612 0 0
          0.20000000298023224 0.05000000074505806 0 0.20000000298023224 0 0
          0.30000001192092896 0.05000000074505806 0 0.30000001192092896 0 0
          0.4000000059604645 0.05000000074505806 0 0.4000000059604645 0 0
          0.5 0.05000000074505806 0 0.5 0 0
          0.6000000238418579 0.05000000074505806 0
          <InformationKey name="L2_NORM_RANGE" location="vtkDataArray" length="2">
            <Value index="0">
              0
            </Value>
            <Value index="1">
              0.60207975276
            </Value>
          </InformationKey>
        </DataArray>
      </Points>
      <Cells>
        <DataArray type="Int64" Name="connectivity" format="ascii" RangeMin="0" RangeMax="12">
          3 2 1 2 0 1
          5 4 3 4 2 3
          7 6 5 6 4 5
          9 8 7 8 6 7
          11 10 9 10 8 9
          12 10 11
        </DataArray>
        <DataArray type="Int64" Name="offsets" format="ascii" RangeMin="3" RangeMax="33">
          3 6 9 12 15 18
          21 24 27 30 33
        </DataArray>
        <DataArray type="UInt8" Name="types" format="ascii" RangeMin="5" RangeMax="5">
          5 5 5 5 5 5
          5 5 5 5 5
        </DataArray>
      </Cells>
    </Piece>
  </UnstructuredGrid>
</VTKFile>
