<?xml version="1.0"?>
<VTKFile type="UnstructuredGrid" version="0.1" byte_order="LittleEndian" header_type="UInt32" compressor="vtkZLibDataCompressor">
  <UnstructuredGrid>
    <Piece NumberOfPoints="13" NumberOfCells="11">
      <PointData>
        <DataArray type="Float64" Name="Disp" NumberOfComponents="3" format="ascii" RangeMin="0.010308880778995892" RangeMax="0.07762261116599503">
          -0.0023062600234904883 -0.016578136194044798 0 0.0015008949634507515 -0.025219037673070425 0
          -0.003284791975975306 -0.024952155109692495 0 0.0013997333986099847 -0.03601356973645846 0
          -0.004496503964259956 -0.03562006250656197 0 0.0009264865460969548 -0.04885290400317914 0
          -0.005866765963895902 -0.04832919631040627 0 0.00005293095278697049 -0.06313365827696132 0
          -0.00717623934946823 -0.0625555568954705 0 -0.0011854780964843104 -0.07761355813200431 0
          -0.008351201698827512 -0.07701514641635303 0 0.0013857538146027522 -0.016748044292578024 0
          -0.0015968801519546895 -0.010184448767402392 0
          <InformationKey name="L2_NORM_RANGE" location="vtkDataArray" length="2">
            <Value index="0">
              0.010308880779
            </Value>
            <Value index="1">
              0.077622611166
            </Value>
          </InformationKey>
        </DataArray>
        <DataArray type="Float64" Name="Nodal Stress" NumberOfComponents="6" format="ascii" RangeMin="7667.580396003503" RangeMax="38619.63636750576">
          -33664.56072360633 -3237.7955786004945 0 6055.7782236260055 0 0
          38022.235513823754 2136.5665024698706 0 -6420.358500131961 0 0
          -34950.679434135534 -2466.2821770575124 0 5211.016367937751 0 0
          32930.942047202334 3396.7650004948955 0 -8661.150173311133 0 0
          -31708.197253853865 -1083.638812221109 0 3651.3115233814588 0 0
          23265.09314335688 4286.0895848813925 0 -9180.53944273927 0 0
          -23383.866702728435 535.2071524280823 0 1684.898496306453 0 0
          12459.85430219636 4414.032760595991 0 -7144.148067665254 0 0
          -16247.952986675664 711.7486205969184 0 -636.6303416793236 0 0
          4944.256660683265 1924.3126158767188 0 -8185.242667765188 0 0
          -7596.75617606178 -735.388283701707 0 -735.0434020101741 0 0
          37524.97832279284 1397.3437140313838 0 -4162.855385402187 0 0
          -31033.5087304865 -2975.121850876848 0 5401.547071163088 0 0
          <InformationKey name="L2_NORM_RANGE" location="vtkDataArray" length="2">
            <Value index="0">
              7667.580396
            </Value>
            <Value index="1">
              38619.636368
            </Value>
          </InformationKey>
        </DataArray>
        <DataArray type="Float64" Name="Nodal Strain" NumberOfComponents="6" format="ascii" RangeMin="0" RangeMax="0">
          0 0 0 0 0 0
          0 0 0 0 0 0
          0 0 0 0 0 0
          0 0 0 0 0 0
          0 0 0 0 0 0
          0 0 0 0 0 0
          0 0 0 0 0 0
          0 0 0 0 0 0
          0 0 0 0 0 0
          0 0 0 0 0 0
          0 0 0 0 0 0
          0 0 0 0 0 0
          0 0 0 0 0 0
          <InformationKey name="L2_NORM_RANGE" location="vtkDataArray" length="2">
            <Value index="0">
              0
            </Value>
            <Value index="1">
              0
            </Value>
          </InformationKey>
        </DataArray>
        <DataArray type="Float64" Name="Sld_traction" NumberOfComponents="3" format="ascii" RangeMin="184.7836411714743" RangeMax="11990.673218434948">
          -9290.946174920078 6776.38967799028 0 -7929.590162321322 5418.465940890337 0
          -7869.638793468807 5895.345806706304 0 -9918.657436225934 5919.901226782698 0
          -5601.224425656256 4059.624905040198 0 -10404.510709431794 5960.067208397252 0
          -2589.3851516656377 2008.6156659189076 0 -8915.918784477912 5311.645133599959 0
          -1030.8375200831836 919.3321180201991 0 -3024.2167468437788 -1764.8309945407673 0
          93.38511354898729 -159.44972440249285 0 -6268.0373818827975 4946.465081306627 0
          -8835.453732345619 6473.966341530391 0
          <InformationKey name="L2_NORM_RANGE" location="vtkDataArray" length="2">
            <Value index="0">
              184.78364117
            </Value>
            <Value index="1">
              11990.673218
            </Value>
          </InformationKey>
        </DataArray>
        <DataArray type="Float64" Name="Velocity" NumberOfComponents="3" format="ascii" RangeMin="6.209063741586037" RangeMax="11.5808688064714">
          -0.8175072968930954 -7.797041863968866 0 -0.36258137571797655 -9.012195030717583 0
          -0.9203130551364161 -8.940674891840168 0 -0.5387101860975331 -10.002459201655853 0
          -0.8524844478160524 -9.973023431533445 0 -0.5959380615473931 -10.315626706798472 0
          -0.8297856712914492 -10.316873264959408 0 -0.479286161694176 -11.002827687969312 0
          -0.8095213000758046 -11.001994975464171 0 -0.5134220435521596 -11.569482275274767 0
          -0.7683505514607183 -11.552282533587892 0 -0.16625872068430472 -7.873300334756242 0
          -0.848190661159128 -6.150857269470722 0
          <InformationKey name="L2_NORM_RANGE" location="vtkDataArray" length="2">
            <Value index="0">
              6.2090637416
            </Value>
            <Value index="1">
              11.580868806
            </Value>
          </InformationKey>
        </DataArray>
        <DataArray type="Float64" Name="Acceleration" NumberOfComponents="3" format="ascii" RangeMin="600.1637721169649" RangeMax="2802.9891518862128">
          -924.8461685668044 -405.20654847597143 0 -458.1082026536353 -2765.3001754336265 0
          -938.2958360778969 -2565.363630606281 0 -1151.931142896736 -2075.818020642232 0
          -329.4829307582186 -2245.745151152697 0 -271.56428162413977 -710.666727106207 0
          -315.6127601114092 -534.4306074659298 0 -823.2226389232574 -1243.3041316783006 0
          -60.67449129159786 -984.6608275866497 0 -1108.7062851740989 1323.8630375825996 0
          634.0602578358282 1835.7187282093437 0 175.48272099160226 -573.9358570389618 0
          -144.6198571160835 694.9147080814105 0
          <InformationKey name="L2_NORM_RANGE" location="vtkDataArray" length="2">
            <Value index="0">
              600.16377212
            </Value>
            <Value index="1">
              2802.9891519
            </Value>
          </InformationKey>
        </DataArray>
        <DataArray type="Float64" Name="Sigma" NumberOfComponents="6" format="ascii" RangeMin="4129.075791709626" RangeMax="76713.94306517439">
          -49187.860951736526 49187.86095173798 0 17593.086959754008 0 0
          52603.572289041724 -52603.57228904152 0 -18728.51904102304 0 0
          -50146.209231459885 50146.20923145926 0 18379.943444068038 0 0
          46497.08760637622 -46497.08760637829 0 -22356.217703837938 0 0
          -43760.32848132685 43760.3284813349 0 17111.606528521457 0 0
          32789.260050916055 -32789.260050918165 0 -21785.677144065274 0 0
          -30126.912513920768 30126.912513922787 0 11289.188542048756 0 0
          18020.222819576913 -18020.222819571867 0 -13718.180830208676 0 0
          -20840.7322832148 20840.732283208727 0 6494.80565905386 0 0
          9194.897849686782 -9194.89784968218 0 -17153.14155675629 0 0
          -1038.4506755909117 1038.45067560195 0 3859.081144830867 0 0
          51138.19079760359 -51138.1907976054 0 -13996.731472282543 0 0
          -45466.348806606926 45466.34880660705 0 14408.779660455208 0 0
          <InformationKey name="L2_NORM_RANGE" location="vtkDataArray" length="2">
            <Value index="0">
              4129.0757917
            </Value>
            <Value index="1">
              76713.943065
            </Value>
          </InformationKey>
        </DataArray>
        <DataArray type="Float64" Name="Press" format="ascii" RangeMin="-58005.318515148334" RangeMax="59807.43397123912">
          -57510.518950641665 59807.43397123912 -58005.318515148334 55271.90385472911 -49949.217485997 41689.55724130802
          -33582.866572162115 26495.60419735597 -22298.272263110706 12216.690766815558 -3291.3537116210637 57028.9601381534
          -52812.021216987625
        </DataArray>
        <DataArray type="Float64" Name="Dev strain" NumberOfComponents="6" format="ascii" RangeMin="0" RangeMax="0">
          0 0 0 0 0 0
          0 0 0 0 0 0
          0 0 0 0 0 0
          0 0 0 0 0 0
          0 0 0 0 0 0
          0 0 0 0 0 0
          0 0 0 0 0 0
          0 0 0 0 0 0
          0 0 0 0 0 0
          0 0 0 0 0 0
          0 0 0 0 0 0
          0 0 0 0 0 0
          0 0 0 0 0 0
          <InformationKey name="L2_NORM_RANGE" location="vtkDataArray" length="2">
            <Value index="0">
              0
            </Value>
            <Value index="1">
              0
            </Value>
          </InformationKey>
        </DataArray>
        <DataArray type="Float64" Name="J2 Stresses" format="ascii" RangeMin="4801506.626243962" RangeMax="2854825173.935919">
          2496824842.2008057 2854825173.935919 2599097880.5371056 2286929273.3804703 1988168118.2907126 1193789506.8430307
          939492302.1059778 371775551.7896857 444881747.2377245 158103712.7826622 4801506.626243962 2664091681.0289965
          2119092106.6299393
        </DataArray>
      </PointData>
      <CellData>
        <DataArray type="UInt8" Name="vtkGhostType" format="ascii" RangeMin="0" RangeMax="1">
          1 1 0 0 0 0
          0 0 0 0 0
        </DataArray>
        <DataArray type="Float64" Name="Gauss Stress" NumberOfComponents="6" format="ascii" RangeMin="8979.500325145018" RangeMax="38326.60488312588">
          -32269.866330071934 -3259.1870229120896 0 6001.711715975559 0 0
          37959.92576455323 1590.657674613968 0 -5044.054517850525 0 0
          -34146.30046290186 -2992.6352001317236 0 5748.1704542663365 0 0
          -33364.027417608915 -1757.727346666784 0 4378.444089583855 0 0
          35342.823324925994 2706.5228822864483 0 -7568.264433597647 0 0
          -27646.835920394224 -248.18195750385712 0 2205.03930883498 0 0
          27512.754262001865 3828.7414780261975 0 -9010.096106460589 0 0
          -20777.652205158505 1187.2957798809293 0 1355.2711236313148 0 0
          18428.288407691365 4639.908169978209 0 -8071.5564774084005 0 0
          -8685.740105678378 -229.5500329292384 0 -2266.4182509571874 0 0
          7596.137029036574 3346.544771671832 0 -8125.505575970368 0 0
          <InformationKey name="L2_NORM_RANGE" location="vtkDataArray" length="2">
            <Value index="0">
              8979.5003251
            </Value>
            <Value index="1">
              38326.604883
            </Value>
          </InformationKey>
        </DataArray>
        <DataArray type="Float64" Name="Gauss Strain" NumberOfComponents="6" format="ascii" RangeMin="0" RangeMax="0">
          0 0 0 0 0 0
          0 0 0 0 0 0
          0 0 0 0 0 0
          0 0 0 0 0 0
          0 0 0 0 0 0
          0 0 0 0 0 0
          0 0 0 0 0 0
          0 0 0 0 0 0
          0 0 0 0 0 0
          0 0 0 0 0 0
          0 0 0 0 0 0
          <InformationKey name="L2_NORM_RANGE" location="vtkDataArray" length="2">
            <Value index="0">
              0
            </Value>
            <Value index="1">
              0
            </Value>
          </InformationKey>
        </DataArray>
      </CellData>
      <Points>
        <DataArray type="Float32" Name="Points" NumberOfComponents="3" format="ascii" RangeMin="0.4000000059604645" RangeMax="1.0012492197622458">
          0.5 0 0 0.6000000238418579 0.05000000074505806 0
          0.6000000238418579 0 0 0.699999988079071 0.05000000074505806 0
          0.699999988079071 0 0 0.800000011920929 0.05000000074505806 0
          0.800000011920929 0 0 0.8999999761581421 0.05000000074505806 0
          0.8999999761581421 0 0 1 0.05000000074505806 0
          1 0 0 0.5 0.05000000074505806 0
          0.4000000059604645 0 0
          <InformationKey name="L2_NORM_RANGE" location="vtkDataArray" length="2">
            <Value index="0">
              0.40000000596
            </Value>
            <Value index="1">
              1.0012492198
            </Value>
          </InformationKey>
        </DataArray>
      </Points>
      <Cells>
        <DataArray type="Int64" Name="connectivity" format="ascii" RangeMin="0" RangeMax="12">
          0 11 12 1 11 0
          2 1 0 4 3 2
          3 1 2 6 5 4
          5 3 4 8 7 6
          7 5 6 10 9 8
          9 7 8
        </DataArray>
        <DataArray type="Int64" Name="offsets" format="ascii" RangeMin="3" RangeMax="33">
          3 6 9 12 15 18
          21 24 27 30 33
        </DataArray>
        <DataArray type="UInt8" Name="types" format="ascii" RangeMin="5" RangeMax="5">
          5 5 5 5 5 5
          5 5 5 5 5
        </DataArray>
      </Cells>
    </Piece>
  </UnstructuredGrid>
</VTKFile>
