<?xml version="1.0"?>
<VTKFile type="UnstructuredGrid" version="0.1" byte_order="LittleEndian" header_type="UInt32" compressor="vtkZLibDataCompressor">
  <UnstructuredGrid>
    <Piece NumberOfPoints="13" NumberOfCells="11">
      <PointData>
        <DataArray type="Float64" Name="Disp" NumberOfComponents="3" format="ascii" RangeMin="0.037320933300363054" RangeMax="0.17882461650283527">
          -0.009388945244567815 -0.055678782033132854 0 -0.0011632743476596053 -0.0786204067955454 0
          -0.01252775532586503 -0.07721148232370934 0 -0.003851781049079375 -0.10244357678574072 0
          -0.016032013117163606 -0.10079166232140016 0 -0.007105411478088798 -0.1274527028417581 0
          -0.019738086856009453 -0.12565678406694786 0 -0.010709450730381216 -0.1529800184419305 0
          -0.02341467899843344 -0.1511586760295861 0 -0.014423125429771082 -0.1782420178303174 0
          -0.027011507511970456 -0.17643948076832144 0 0.0008270731896291877 -0.05679981178436276 0
          -0.0067152765023411835 -0.03671181177641948 0
          <InformationKey name="L2_NORM_RANGE" location="vtkDataArray" length="2">
            <Value index="0">
              0.0373209333
            </Value>
            <Value index="1">
              0.1788246165
            </Value>
          </InformationKey>
        </DataArray>
        <DataArray type="Float64" Name="Nodal Stress" NumberOfComponents="6" format="ascii" RangeMin="1918.3614192374507" RangeMax="68326.76135517082">
          -55186.023551197664 -4417.8292716557535 0 11981.771002555146 0 0
          39728.759830712406 9502.214563190126 0 -17825.526127504738 0 0
          -43081.87835676233 -2631.1889635027023 0 9248.205133810363 0 0
          25935.59155538556 8873.607574392963 0 -14552.773699574873 0 0
          -29490.88847764676 -607.4600431780707 0 6139.349688490155 0 0
          13126.89390805732 7021.281942673844 0 -10002.419974332957 0 0
          -16793.805491286996 605.973793908728 0 2762.0239383817043 0 0
          4260.682758830714 4273.630165188958 0 -5571.579806297476 0 0
          -8221.748994863621 741.2704315755924 0 747.503647540145 0 0
          468.42329564641767 3100.0955007997404 0 -3335.986262945362 0 0
          900.3220731234225 778.1927881847972 0 1504.6417127949896 0 0
          52817.14613464546 9675.432004813512 0 -19879.748304173583 0 0
          -66869.59548822291 -5275.469923769722 0 13006.649592085696 0 0
          <InformationKey name="L2_NORM_RANGE" location="vtkDataArray" length="2">
            <Value index="0">
              1918.3614192
            </Value>
            <Value index="1">
              68326.761355
            </Value>
          </InformationKey>
        </DataArray>
        <DataArray type="Float64" Name="Nodal Strain" NumberOfComponents="6" format="ascii" RangeMin="0" RangeMax="0">
          0 0 0 0 0 0
          0 0 0 0 0 0
          0 0 0 0 0 0
          0 0 0 0 0 0
          0 0 0 0 0 0
          0 0 0 0 0 0
          0 0 0 0 0 0
          0 0 0 0 0 0
          0 0 0 0 0 0
          0 0 0 0 0 0
          0 0 0 0 0 0
          0 0 0 0 0 0
          0 0 0 0 0 0
          <InformationKey name="L2_NORM_RANGE" location="vtkDataArray" length="2">
            <Value index="0">
              0
            </Value>
            <Value index="1">
              0
            </Value>
          </InformationKey>
        </DataArray>
        <DataArray type="Float64" Name="Sld_traction" NumberOfComponents="3" format="ascii" RangeMin="568.9726924039094" RangeMax="21679.63791720516">
          -9982.47691601123 9295.256524590373 0 -15889.92255052796 11467.662591647824 0
          -7072.032601376412 6252.607827451467 0 -14140.257882365107 9701.729976258506 0
          -4785.78242859866 3092.6153778327457 0 -11052.886962344162 7206.496352848742 0
          -2154.310595319211 1045.4592847439494 0 -7159.368022769582 4518.768367480711 0
          -1432.2535779735902 441.03192143295337 0 -2195.529992169536 1001.6898592201497 0
          -487.48040902923805 -293.41570427303384 0 -17346.574243489544 13003.963328009842 0
          -12340.883525424526 11653.211638863295 0
          <InformationKey name="L2_NORM_RANGE" location="vtkDataArray" length="2">
            <Value index="0">
              568.9726924
            </Value>
            <Value index="1">
              21679.637917
            </Value>
          </InformationKey>
        </DataArray>
        <DataArray type="Float64" Name="Velocity" NumberOfComponents="3" format="ascii" RangeMin="0.4301045033374866" RangeMax="4.946756814912061">
          -0.6166281191241415 -0.4959344549716313 0 -0.3059884588463532 -1.771254202490332 0
          -0.7754815000511335 -1.7218652323726396 0 -0.5334349604516074 -2.1592884038183993 0
          -0.7619635697809648 -2.277781130160082 0 -0.3253141973700965 -2.8154535834677326 0
          -0.8405907728421017 -2.886568017709309 0 -0.5377995982321166 -4.060254161624279 0
          -1.0542542094033798 -4.026192554509844 0 -0.7313991046114385 -4.878960662780073 0
          -1.1096038858857606 -4.820703496618117 0 -0.2426790549064889 -0.5897322944114661 0
          -0.38664526462598897 -0.18840202529029515 0
          <InformationKey name="L2_NORM_RANGE" location="vtkDataArray" length="2">
            <Value index="0">
              0.43010450334
            </Value>
            <Value index="1">
              4.9467568149
            </Value>
          </InformationKey>
        </DataArray>
        <DataArray type="Float64" Name="Acceleration" NumberOfComponents="3" format="ascii" RangeMin="532.0538457685947" RangeMax="5706.979375435595">
          344.5972155870454 956.0385068344808 0 308.8896730964078 -3580.832443168021 0
          790.2575879063907 -3078.651184431479 0 -1913.1104554607346 3253.9592274205943 0
          -584.9371760359322 2033.0856563380303 0 785.7838886432676 1108.2632134580872 0
          -494.7507386324771 -195.71152602687926 0 -972.6180689618984 2723.227222356674 0
          877.2218347886865 1518.2192121788535 0 1667.0842253300398 3857.6487910043834 0
          3002.5388526756215 4853.284870046329 0 1229.7723690434382 708.4038615766318 0
          563.5975192369289 -1364.4420107797816 0
          <InformationKey name="L2_NORM_RANGE" location="vtkDataArray" length="2">
            <Value index="0">
              532.05384577
            </Value>
            <Value index="1">
              5706.9793754
            </Value>
          </InformationKey>
        </DataArray>
        <DataArray type="Float64" Name="Sigma" NumberOfComponents="6" format="ascii" RangeMin="7488.849551762545" RangeMax="131084.10014661445">
          -69248.12021972415 69248.1202197239 0 43534.30689239311 0 0
          53054.00844001026 -53054.00844001152 0 -46778.896801377814 0 0
          -52406.53344147335 52406.533441474545 0 35175.142446803104 0 0
          34223.28035281688 -34223.280352819056 0 -37212.354913667674 0 0
          -34178.2817997761 34178.28179978585 0 24860.24483750086 0 0
          16718.204352079534 -16718.20435208905 0 -24295.943067904547 0 0
          -17940.036379746358 17940.036379731955 0 12559.949429051634 0 0
          6199.735086303485 -6199.735086279784 0 -11749.718290536672 0 0
          -8468.595312632913 8468.595312632478 0 5061.357683730956 0 0
          -1184.3040744539585 1184.3040744370305 0 -7299.158535573651 0 0
          4948.578978486828 -4948.578978468612 0 4128.183851511327 0 0
          71256.34036610492 -71256.34036610235 0 -52808.11273551247 0 0
          -86435.88717545531 86435.88717545362 0 47336.203139160454 0 0
          <InformationKey name="L2_NORM_RANGE" location="vtkDataArray" length="2">
            <Value index="0">
              7488.8495518
            </Value>
            <Value index="1">
              131084.10015
            </Value>
          </InformationKey>
        </DataArray>
        <DataArray type="Float64" Name="Press" format="ascii" RangeMin="-106848.04935834178" RangeMax="95745.68901713242">
          -88039.70405864512 75841.17186027864 -67156.81364412564 53834.306707011514 -43480.034287077724 30691.449997445336
          -21936.989394371296 13539.5785161296 -10559.573388657438 4256.997317951409 4829.802896656467 95745.68901713242
          -106848.04935834178
        </DataArray>
        <DataArray type="Float64" Name="Dev strain" NumberOfComponents="6" format="ascii" RangeMin="0" RangeMax="0">
          0 0 0 0 0 0
          0 0 0 0 0 0
          0 0 0 0 0 0
          0 0 0 0 0 0
          0 0 0 0 0 0
          0 0 0 0 0 0
          0 0 0 0 0 0
          0 0 0 0 0 0
          0 0 0 0 0 0
          0 0 0 0 0 0
          0 0 0 0 0 0
          0 0 0 0 0 0
          0 0 0 0 0 0
          <InformationKey name="L2_NORM_RANGE" location="vtkDataArray" length="2">
            <Value index="0">
              0
            </Value>
            <Value index="1">
              0
            </Value>
          </InformationKey>
        </DataArray>
        <DataArray type="Float64" Name="J2 Stresses" format="ascii" RangeMin="14722004.972607616" RangeMax="8031341623.715859">
          5269111123.115618 3361794108.041236 3055767408.8905497 1517422757.6627681 1322662890.1303613 427071569.14776486
          361282987.721448 72950685.11693855 78121441.96981008 14722004.972607616 28748909.38420132 5774640235.041659
          8031341623.715859
        </DataArray>
      </PointData>
      <CellData>
        <DataArray type="UInt8" Name="vtkGhostType" format="ascii" RangeMin="0" RangeMax="1">
          1 1 0 0 0 0
          0 0 0 0 0
        </DataArray>
        <DataArray type="Float64" Name="Gauss Stress" NumberOfComponents="6" format="ascii" RangeMin="2407.6943914455087" RangeMax="62683.60221053387">
          -61189.91047630969 -4904.7991235930995 0 12687.465765347035 0 0
          46203.12846838567 9494.976077458656 0 -18684.2342148324 0 0
          -49318.663687893124 -3584.9002071017276 0 10643.51751260614 0 0
          -36388.025370874806 -1480.3354452501694 0 7607.677456878766 0 0
          32463.140091506124 9215.969857269502 0 -16272.036422747467 0 0
          -23375.229170482206 224.84671447502296 0 4374.750399549315 0 0
          19269.64177416649 8094.173170752293 0 -12216.017714690455 0 0
          -13055.293624324973 417.30411306183805 0 1957.1962740819722 0 0
          9090.647392613435 5772.045353522251 0 -7828.570643129863 0 0
          -2059.0311942165335 1077.1824115171112 0 630.1276665562109 0 0
          1261.2793815467312 3563.388915404433 0 -4662.506380793124 0 0
          <InformationKey name="L2_NORM_RANGE" location="vtkDataArray" length="2">
            <Value index="0">
              2407.6943914
            </Value>
            <Value index="1">
              62683.602211
            </Value>
          </InformationKey>
        </DataArray>
        <DataArray type="Float64" Name="Gauss Strain" NumberOfComponents="6" format="ascii" RangeMin="0" RangeMax="0">
          0 0 0 0 0 0
          0 0 0 0 0 0
          0 0 0 0 0 0
          0 0 0 0 0 0
          0 0 0 0 0 0
          0 0 0 0 0 0
          0 0 0 0 0 0
          0 0 0 0 0 0
          0 0 0 0 0 0
          0 0 0 0 0 0
          0 0 0 0 0 0
          <InformationKey name="L2_NORM_RANGE" location="vtkDataArray" length="2">
            <Value index="0">
              0
            </Value>
            <Value index="1">
              0
            </Value>
          </InformationKey>
        </DataArray>
      </CellData>
      <Points>
        <DataArray type="Float32" Name="Points" NumberOfComponents="3" format="ascii" RangeMin="0.4000000059604645" RangeMax="1.0012492197622458">
          0.5 0 0 0.6000000238418579 0.05000000074505806 0
          0.6000000238418579 0 0 0.699999988079071 0.05000000074505806 0
          0.699999988079071 0 0 0.800000011920929 0.05000000074505806 0
          0.800000011920929 0 0 0.8999999761581421 0.05000000074505806 0
          0.8999999761581421 0 0 1 0.05000000074505806 0
          1 0 0 0.5 0.05000000074505806 0
          0.4000000059604645 0 0
          <InformationKey name="L2_NORM_RANGE" location="vtkDataArray" length="2">
            <Value index="0">
              0.40000000596
            </Value>
            <Value index="1">
              1.0012492198
            </Value>
          </InformationKey>
        </DataArray>
      </Points>
      <Cells>
        <DataArray type="Int64" Name="connectivity" format="ascii" RangeMin="0" RangeMax="12">
          0 11 12 1 11 0
          2 1 0 4 3 2
          3 1 2 6 5 4
          5 3 4 8 7 6
          7 5 6 10 9 8
          9 7 8
        </DataArray>
        <DataArray type="Int64" Name="offsets" format="ascii" RangeMin="3" RangeMax="33">
          3 6 9 12 15 18
          21 24 27 30 33
        </DataArray>
        <DataArray type="UInt8" Name="types" format="ascii" RangeMin="5" RangeMax="5">
          5 5 5 5 5 5
          5 5 5 5 5
        </DataArray>
      </Cells>
    </Piece>
  </UnstructuredGrid>
</VTKFile>
