<?xml version="1.0"?>
<VTKFile type="UnstructuredGrid" version="0.1" byte_order="LittleEndian" header_type="UInt32" compressor="vtkZLibDataCompressor">
  <UnstructuredGrid>
    <Piece NumberOfPoints="13" NumberOfCells="11">
      <PointData>
        <DataArray type="Float64" Name="Disp" NumberOfComponents="3" format="ascii" RangeMin="0" RangeMax="0.08029917933832392">
          0 0 0 0 0 0
          0.0011114568246881028 -0.0020219664788788554 0 -0.0011736235747907852 -0.0019896152714155074 0
          0.002060350478960028 -0.009339002059402478 0 -0.0028110051845179835 -0.009129851034302295 0
          0.0024198761805832676 -0.02160711611954442 0 -0.004725877357530649 -0.021089678180575624 0
          0.0019236130964602077 -0.038032379214272785 0 -0.007078477066381178 -0.03718998321754049 0
          0.0005998586746785849 -0.05781622224861116 0 -0.00992359896384707 -0.05664596088430667 0
          -0.001521663261012059 -0.08028476034297165 0
          <InformationKey name="L2_NORM_RANGE" location="vtkDataArray" length="2">
            <Value index="0">
              0
            </Value>
            <Value index="1">
              0.080299179338
            </Value>
          </InformationKey>
        </DataArray>
        <DataArray type="Float64" Name="Nodal Stress" NumberOfComponents="6" format="ascii" RangeMin="38483.122218384335" RangeMax="130665.3821555661">
          126624.76380734523 -6709.3280428934795 0 -31537.21930999954 0 0
          -76200.63997949305 -14878.032138395343 0 5056.3649223512375 0 0
          97326.30595830937 4644.0293451042135 0 -11393.220520821464 0 0
          -94987.8123922306 -4652.40257793315 0 9830.952346168378 0 0
          81343.41744777073 6171.913142904924 0 -18320.35374683524 0 0
          -91120.03161636062 -6488.921023269636 0 11111.702434660927 0 0
          74973.87596079099 8329.639477901786 0 -20240.92446413251 0 0
          -82409.76455463434 -5538.713448915682 0 13498.16768674387 0 0
          62292.547566946705 9763.591354303757 0 -21064.882699267095 0 0
          -71695.91766488244 -5417.98547689845 0 13645.883443571707 0 0
          48133.273782306445 10839.298357786929 0 -19739.778647920364 0 0
          -58930.44138904717 -3869.3360933071463 0 11826.372496435793 0 0
          32942.710445620185 10677.94907843951 0 -16784.21662304754 0 0
          <InformationKey name="L2_NORM_RANGE" location="vtkDataArray" length="2">
            <Value index="0">
              38483.122218
            </Value>
            <Value index="1">
              130665.38216
            </Value>
          </InformationKey>
        </DataArray>
        <DataArray type="Float64" Name="Nodal Strain" NumberOfComponents="6" format="ascii" RangeMin="0" RangeMax="0">
          0 0 0 0 0 0
          0 0 0 0 0 0
          0 0 0 0 0 0
          0 0 0 0 0 0
          0 0 0 0 0 0
          0 0 0 0 0 0
          0 0 0 0 0 0
          0 0 0 0 0 0
          0 0 0 0 0 0
          0 0 0 0 0 0
          0 0 0 0 0 0
          0 0 0 0 0 0
          0 0 0 0 0 0
          <InformationKey name="L2_NORM_RANGE" location="vtkDataArray" length="2">
            <Value index="0">
              0
            </Value>
            <Value index="1">
              0
            </Value>
          </InformationKey>
        </DataArray>
        <DataArray type="Float64" Name="Sld_traction" NumberOfComponents="3" format="ascii" RangeMin="12493.901554903121" RangeMax="55447.42640737829">
          -53957.14013281336 12768.873242756144 0 21544.720946164576 19294.373638008095 0
          -22186.09443529258 16157.138874633383 0 -20612.51472148185 16749.116427159264 0
          -20203.788795599718 13709.591841623636 0 -16816.462421232023 14980.640092213958 0
          -19261.797467637076 14550.280186510294 0 -14184.072588029147 13561.63205849116 0
          -18566.217658512687 14690.523448210937 0 -11451.314564939483 12090.135004881366 0
          -17288.295670248182 14680.674576885547 0 -8107.926513355222 9505.740566502016 0
          -15549.94382602823 13458.3525053147 0
          <InformationKey name="L2_NORM_RANGE" location="vtkDataArray" length="2">
            <Value index="0">
              12493.901555
            </Value>
            <Value index="1">
              55447.426407
            </Value>
          </InformationKey>
        </DataArray>
        <DataArray type="Float64" Name="Velocity" NumberOfComponents="3" format="ascii" RangeMin="0" RangeMax="1.610716429627797">
          0 0 0 0 0 0
          0.012378374828401331 -0.0003181496274873019 0 -0.06569729911436574 -0.030731193989063266 0
          -0.062113599666002356 -0.30250104117168497 0 -0.23873590086768737 -0.32243805952826066 0
          -0.14471609677782882 -0.622500442159867 0 -0.207084483165159 -0.6537958297060202 0
          -0.11513702595351874 -0.7406465221340316 0 -0.3397558634540002 -0.7679408569517193 0
          -0.2117499749947166 -1.4430886340853317 0 -0.45267931943436956 -1.4384232473760048 0
          -0.4107893678585541 -1.5574528923621693 0
          <InformationKey name="L2_NORM_RANGE" location="vtkDataArray" length="2">
            <Value index="0">
              0
            </Value>
            <Value index="1">
              1.6107164296
            </Value>
          </InformationKey>
        </DataArray>
        <DataArray type="Float64" Name="Acceleration" NumberOfComponents="3" format="ascii" RangeMin="0" RangeMax="4041.829422928982">
          0 0 0 0 0 0
          108.74335080539095 -0.013614265517503554 0 -435.8695256126861 -400.1546991728779 0
          -199.91254378277281 -1555.737794536959 0 -359.87253985771287 -2131.147836475059 0
          -421.10062867936614 -633.0778661160305 0 766.9605913374538 -668.6119474764648 0
          612.7239512641944 95.17677729604043 0 -469.81871689295133 205.36434745693327 0
          -1167.9142092198936 -2415.116540924363 0 -16.69961620750155 -2841.016091643228 0
          -518.4914911208097 4008.4350634243465 0
          <InformationKey name="L2_NORM_RANGE" location="vtkDataArray" length="2">
            <Value index="0">
              0
            </Value>
            <Value index="1">
              4041.8294229
            </Value>
          </InformationKey>
        </DataArray>
        <DataArray type="Float64" Name="Sigma" NumberOfComponents="6" format="ascii" RangeMin="79013.45787441518" RangeMax="198471.83579377263">
          128736.04672699586 -128736.04672699606 0 -66505.51506493699 0 0
          -130077.60435210651 130077.60435211101 0 31290.52960764605 0 0
          139273.69459859657 -139273.69459859174 0 -24428.376717770196 0 0
          -135244.43911111035 135244.43911111075 0 31760.737229361654 0 0
          118434.73493053383 -118434.73493052972 0 -48389.6573720571 0 0
          -120092.21860691413 120092.21860691532 0 42954.766686471856 0 0
          107592.79749227833 -107592.79749227625 0 -53235.59454597308 0 0
          -107860.55405670247 107860.55405670116 0 48569.64211833277 0 0
          88571.58918734842 -88571.58918734596 0 -56703.3043282242 0 0
          -88996.74604140231 88996.74604139756 0 48820.58183621059 0 0
          67612.93122576205 -67612.93122575938 0 -52884.675490599235 0 0
          -70034.67026880388 70034.67026880659 0 42535.23802693567 0 0
          46106.957407842565 -46106.9574078389 0 -44625.36814923887 0 0
          <InformationKey name="L2_NORM_RANGE" location="vtkDataArray" length="2">
            <Value index="0">
              79013.457874
            </Value>
            <Value index="1">
              198471.83579
            </Value>
          </InformationKey>
        </DataArray>
        <DataArray type="Float64" Name="Press" format="ascii" RangeMin="-167019.1687146839" RangeMax="163829.07207612912">
          121510.48408372689 -167019.1687146839 163829.07207612912 -148455.2189085811 133888.42513994442 -140529.84658441698
          130985.82787298666 -128172.11001244435 113634.79264918971 -110668.19603710108 94420.50294073467 -88952.73663135854
          71008.3010527459
        </DataArray>
        <DataArray type="Float64" Name="Dev strain" NumberOfComponents="6" format="ascii" RangeMin="0" RangeMax="0">
          0 0 0 0 0 0
          0 0 0 0 0 0
          0 0 0 0 0 0
          0 0 0 0 0 0
          0 0 0 0 0 0
          0 0 0 0 0 0
          0 0 0 0 0 0
          0 0 0 0 0 0
          0 0 0 0 0 0
          0 0 0 0 0 0
          0 0 0 0 0 0
          0 0 0 0 0 0
          0 0 0 0 0 0
          <InformationKey name="L2_NORM_RANGE" location="vtkDataArray" length="2">
            <Value index="0">
              0
            </Value>
            <Value index="1">
              0
            </Value>
          </InformationKey>
        </DataArray>
        <DataArray type="Float64" Name="J2 Stresses" format="ascii" RangeMin="2623707392.022216" RangeMax="19546348404.408802">
          17678715610.408432 17164957464.765488 19546348404.408802 18543244417.817024 14612176173.211594 14883418965.203302
          12284717203.879997 12223651655.294426 8648742591.606998 8516283108.66397 5270705694.375946 5357166658.162291
          2623707392.022216
        </DataArray>
      </PointData>
      <CellData>
        <DataArray type="UInt8" Name="vtkGhostType" format="ascii" RangeMin="0" RangeMax="0">
          0 0 0 0 0 0
          0 0 0 0 0
        </DataArray>
        <DataArray type="Float64" Name="Gauss Stress" NumberOfComponents="6" format="ascii" RangeMin="45382.575728392236" RangeMax="97915.64329659789">
          -92564.55480391874 -8532.322227501954 0 12874.296706412504 0 0
          85417.5081395527 -6537.249842768233 0 -19881.12072502038 0 0
          -97332.85438018147 -6064.905855185787 0 8775.282181258808 0 0
          90575.42290850417 8932.762629827223 0 -13685.765620155222 0 0
          -86025.36796507101 -5785.384517511483 0 12762.938086277187 0 0
          76759.9067481374 6136.364204207808 0 -19556.828410519454 0 0
          -77830.40810370405 -5639.934163200988 0 13562.306542106397 0 0
          68250.78104421879 9381.559295603667 0 -20456.418918621504 0 0
          -65539.63827072305 -4593.981547760064 0 12823.714790849017 0 0
          54858.291308177184 10066.441727038502 0 -20255.799327537614 0 0
          40053.76190897426 10930.282999110119 0 -18324.93520430081 0 0
          <InformationKey name="L2_NORM_RANGE" location="vtkDataArray" length="2">
            <Value index="0">
              45382.575728
            </Value>
            <Value index="1">
              97915.643297
            </Value>
          </InformationKey>
        </DataArray>
        <DataArray type="Float64" Name="Gauss Strain" NumberOfComponents="6" format="ascii" RangeMin="0" RangeMax="0">
          0 0 0 0 0 0
          0 0 0 0 0 0
          0 0 0 0 0 0
          0 0 0 0 0 0
          0 0 0 0 0 0
          0 0 0 0 0 0
          0 0 0 0 0 0
          0 0 0 0 0 0
          0 0 0 0 0 0
          0 0 0 0 0 0
          0 0 0 0 0 0
          <InformationKey name="L2_NORM_RANGE" location="vtkDataArray" length="2">
            <Value index="0">
              0
            </Value>
            <Value index="1">
              0
            </Value>
          </InformationKey>
        </DataArray>
      </CellData>
      <Points>
        <DataArray type="Float32" Name="Points" NumberOfComponents="3" format="ascii" RangeMin="0" RangeMax="0.6020797527609908">
          0 0.05000000074505806 0 0 0 0
          0.10000000149011612 0.05000000074505806 0 0.10000000149011612 0 0
          0.20000000298023224 0.05000000074505806 0 0.20000000298023224 0 0
          0.30000001192092896 0.05000000074505806 0 0.30000001192092896 0 0
          0.4000000059604645 0.05000000074505806 0 0.4000000059604645 0 0
          0.5 0.05000000074505806 0 0.5 0 0
          0.6000000238418579 0.05000000074505806 0
          <InformationKey name="L2_NORM_RANGE" location="vtkDataArray" length="2">
            <Value index="0">
              0
            </Value>
            <Value index="1">
              0.60207975276
            </Value>
          </InformationKey>
        </DataArray>
      </Points>
      <Cells>
        <DataArray type="Int64" Name="connectivity" format="ascii" RangeMin="0" RangeMax="12">
          3 2 1 2 0 1
          5 4 3 4 2 3
          7 6 5 6 4 5
          9 8 7 8 6 7
          11 10 9 10 8 9
          12 10 11
        </DataArray>
        <DataArray type="Int64" Name="offsets" format="ascii" RangeMin="3" RangeMax="33">
          3 6 9 12 15 18
          21 24 27 30 33
        </DataArray>
        <DataArray type="UInt8" Name="types" format="ascii" RangeMin="5" RangeMax="5">
          5 5 5 5 5 5
          5 5 5 5 5
        </DataArray>
      </Cells>
    </Piece>
  </UnstructuredGrid>
</VTKFile>
