<?xml version="1.0"?>
<VTKFile type="UnstructuredGrid" version="0.1" byte_order="LittleEndian" header_type="UInt32" compressor="vtkZLibDataCompressor">
  <UnstructuredGrid>
    <Piece NumberOfPoints="13" NumberOfCells="11">
      <PointData>
        <DataArray type="Float64" Name="Disp" NumberOfComponents="3" format="ascii" RangeMin="0.016169725620807276" RangeMax="0.08782678254627849">
          -0.0034524037255689224 -0.024546324684550355 0 0.0009588619888818023 -0.035046828273025764 0
          -0.0044898812487578245 -0.034682472432929996 0 0.0005261994625500813 -0.04670036236888632 0
          -0.005634335408267757 -0.04628378447556186 0 -0.000032359406132238333 -0.059746163908697934 0
          -0.006843530249507687 -0.05928678423496987 0 -0.000826792613858388 -0.07382494950077616 0
          -0.007876376288255826 -0.07335658071264324 0 -0.0018458068161712267 -0.08780738425456405 0
          -0.008784651297788633 -0.08734458774238799 0 0.0012402377237109752 -0.024839650554379176 0
          -0.0025677801627722084 -0.01596453982073598 0
          <InformationKey name="L2_NORM_RANGE" location="vtkDataArray" length="2">
            <Value index="0">
              0.016169725621
            </Value>
            <Value index="1">
              0.087826782546
            </Value>
          </InformationKey>
        </DataArray>
        <DataArray type="Float64" Name="Nodal Stress" NumberOfComponents="6" format="ascii" RangeMin="2025.9239966938737" RangeMax="30141.197831963185">
          -27317.05601325493 -1507.9367760945415 0 3763.690380080606 0 0
          26115.523839274134 2833.9918476900375 0 -5678.3767937132725 0 0
          -24802.432842899856 -1101.4956912260982 0 3143.045353153683 0 0
          21263.132486201455 2681.1739170896494 0 -5609.845856505923 0 0
          -20293.648202707627 -465.41989928752315 0 1854.9637317779984 0 0
          13561.532303505497 2970.9178819306776 0 -5655.06198583003 0 0
          -14701.970292065795 624.0971331131284 0 -328.6398730806074 0 0
          5909.326953608484 2502.8686392750215 0 -4381.982296663972 0 0
          -8123.5164082536685 886.98846115417 0 -912.372272350542 0 0
          2838.4775597235684 2400.030391356519 0 -3024.1230058668716 0 0
          -1939.0244302954482 574.0764155965628 0 -122.42780792489036 0 0
          29232.215103473933 2782.4278511386015 0 -5757.785449911785 0 0
          -29826.648643163695 -1781.3506424067898 0 3961.0134248195236 0 0
          <InformationKey name="L2_NORM_RANGE" location="vtkDataArray" length="2">
            <Value index="0">
              2025.9239967
            </Value>
            <Value index="1">
              30141.197832
            </Value>
          </InformationKey>
        </DataArray>
        <DataArray type="Float64" Name="Nodal Strain" NumberOfComponents="6" format="ascii" RangeMin="0" RangeMax="0">
          0 0 0 0 0 0
          0 0 0 0 0 0
          0 0 0 0 0 0
          0 0 0 0 0 0
          0 0 0 0 0 0
          0 0 0 0 0 0
          0 0 0 0 0 0
          0 0 0 0 0 0
          0 0 0 0 0 0
          0 0 0 0 0 0
          0 0 0 0 0 0
          0 0 0 0 0 0
          0 0 0 0 0 0
          <InformationKey name="L2_NORM_RANGE" location="vtkDataArray" length="2">
            <Value index="0">
              0
            </Value>
            <Value index="1">
              0
            </Value>
          </InformationKey>
        </DataArray>
        <DataArray type="Float64" Name="Sld_traction" NumberOfComponents="3" format="ascii" RangeMin="971.7873571000694" RangeMax="9303.082216432183">
          -5423.732518470159 4561.702507871841 0 -6230.600394587832 5269.932715833849 0
          -3848.228909722608 3627.3703513568234 0 -5791.140717371608 4526.76625312565 0
          -2024.922469346778 2517.5557940172207 0 -5726.022797292138 4037.448642698328 0
          647.1092598778232 994.4798530030616 0 -4620.887474937561 3165.2643510304297 0
          849.6481494060286 471.6658665098087 0 -159.81638471317163 1081.2828985981007 0
          981.3137280913219 23.31732403772948 0 -7288.660063074491 5781.243223618922 0
          -6749.812293276332 5249.931100240146 0
          <InformationKey name="L2_NORM_RANGE" location="vtkDataArray" length="2">
            <Value index="0">
              971.7873571
            </Value>
            <Value index="1">
              9303.0822164
            </Value>
          </InformationKey>
        </DataArray>
        <DataArray type="Float64" Name="Velocity" NumberOfComponents="3" format="ascii" RangeMin="5.518765860917724" RangeMax="11.652614339239985">
          -1.4747801072637725 -8.13933511704225 0 -0.7214845734199218 -10.643386169193095 0
          -1.4898654904286213 -10.519959754634833 0 -1.2083576860222736 -11.37112606319987 0
          -1.4231784401995489 -11.354420506466344 0 -1.3217538429109932 -11.470893104239119 0
          -1.1237428999321206 -11.5983025841678 0 -1.280160971596541 -10.379754759660354 0
          -0.5907525774993891 -10.600052658881308 0 -0.807235395821673 -8.818169969844718 0
          -0.09854864646152361 -9.106600118482024 0 -0.12477346109924925 -8.309912188846061 0
          -1.09360936047591 -5.4093248371964515 0
          <InformationKey name="L2_NORM_RANGE" location="vtkDataArray" length="2">
            <Value index="0">
              5.5187658609
            </Value>
            <Value index="1">
              11.652614339
            </Value>
          </InformationKey>
        </DataArray>
        <DataArray type="Float64" Name="Acceleration" NumberOfComponents="3" format="ascii" RangeMin="313.2598367589813" RangeMax="4211.124815967279">
          -389.69945217455006 -279.3799576707952 0 -259.6981927502552 -497.08210151739604 0
          -200.80903450651363 -593.2060949830511 0 -187.36385695274498 -661.5157024458031 0
          -811.9050540087746 -517.0489987130995 0 -1180.06728110306 -1599.866067775085 0
          -272.30169716993373 -2028.4280309508567 0 -778.5269808814726 2489.449988296214 0
          498.21193644442883 1788.5454607523757 0 521.079580635072 4178.7615732774975 0
          705.5435521625611 3055.6461020023926 0 -92.51220182149132 -299.2878511406757 0
          -346.21754151748064 788.1501564671312 0
          <InformationKey name="L2_NORM_RANGE" location="vtkDataArray" length="2">
            <Value index="0">
              313.25983676
            </Value>
            <Value index="1">
              4211.124816
            </Value>
          </InformationKey>
        </DataArray>
        <DataArray type="Float64" Name="Sigma" NumberOfComponents="6" format="ascii" RangeMin="2258.3632939605295" RangeMax="60630.78615792774">
          -38400.939178545734 38400.939178542954 0 13268.616550001792 0 0
          35966.1998272927 -35966.199827288 0 -14890.79043038115 0 0
          -34788.27889143738 34788.27889142789 0 12078.869652732432 0 0
          30057.597134046002 -30057.597134041 0 -13951.022845405483 0 0
          -27437.885918861604 27437.885918862885 0 9782.73459819092 0 0
          19361.00787180657 -19361.007871806654 0 -12329.20497198287 0 0
          -18623.83860687785 18623.83860687047 0 4144.912318081551 0 0
          9283.143046699442 -9283.143046705736 0 -7723.12409233616 0 0
          -10159.442902413259 10159.442902398434 0 1554.486378964391 0 0
          2921.8887382998296 -2921.8887382901453 0 -5303.132951584508 0 0
          1105.6762361616602 -1105.6762361651772 0 1629.4676704602778 0 0
          39852.44463974297 -39852.4446397421 0 -15401.75713875514 0 0
          -41679.929704859824 41679.92970486421 0 14200.674270043788 0 0
          <InformationKey name="L2_NORM_RANGE" location="vtkDataArray" length="2">
            <Value index="0">
              2258.363294
            </Value>
            <Value index="1">
              60630.786158
            </Value>
          </InformationKey>
        </DataArray>
        <DataArray type="Float64" Name="Press" format="ascii" RangeMin="-48200.833820006184" RangeMax="47087.98480912669">
          -44270.62433608029 43007.367665024794 -39762.56884932105 36209.78960410993 -31382.229686823324 25366.41171685239
          -19927.925770495392 13217.718550205667 -10801.703387411326 7231.31610057316 420.24562872324145 47087.98480912669
          -48200.833820006184
        </DataArray>
        <DataArray type="Float64" Name="Dev strain" NumberOfComponents="6" format="ascii" RangeMin="0" RangeMax="0">
          0 0 0 0 0 0
          0 0 0 0 0 0
          0 0 0 0 0 0
          0 0 0 0 0 0
          0 0 0 0 0 0
          0 0 0 0 0 0
          0 0 0 0 0 0
          0 0 0 0 0 0
          0 0 0 0 0 0
          0 0 0 0 0 0
          0 0 0 0 0 0
          0 0 0 0 0 0
          0 0 0 0 0 0
          <InformationKey name="L2_NORM_RANGE" location="vtkDataArray" length="2">
            <Value index="0">
              0
            </Value>
            <Value index="1">
              0
            </Value>
          </InformationKey>
        </DataArray>
        <DataArray type="Float64" Name="J2 Stresses" format="ascii" RangeMin="1886311.161485315" RangeMax="1787631327.6332107">
          1518646176.0820076 1349001439.9269636 1246699121.250023 952116905.0807165 776763057.7511594 412850949.6224494
          351142438.9860425 101088406.26194844 103818387.06284097 15568238.574520428 1886311.161485315 1647520874.5040426
          1787631327.6332107
        </DataArray>
      </PointData>
      <CellData>
        <DataArray type="UInt8" Name="vtkGhostType" format="ascii" RangeMin="0" RangeMax="1">
          1 1 0 0 0 0
          0 0 0 0 0
        </DataArray>
        <DataArray type="Float64" Name="Gauss Stress" NumberOfComponents="6" format="ascii" RangeMin="3325.61703545028" RangeMax="28870.586549623433">
          -28537.299196874133 -1718.3497010982387 0 4022.5112270968148 0 0
          27747.477808853728 2802.340949861351 0 -5674.643673044835 0 0
          -26082.94792102232 -1267.6024258979 0 3485.5652574510264 0 0
          -22367.858869429147 -922.1470852615569 0 2636.8604685059568 0 0
          23563.368829905008 2739.6901166375264 0 -5587.647874351402 0 0
          -17548.153464799736 252.32430448678952 0 532.8139814298684 0 0
          17391.563573709995 2737.7508490514074 0 -5499.164406399145 0 0
          -12337.349690097573 662.7426182873711 0 -674.5751317634058 0 0
          9558.83893606361 2878.630728306914 0 -5302.472248745826 0 0
          -3094.0065286888976 993.9120899427287 0 -706.3929673866129 0 0
          3897.640048651173 2533.9141269233514 0 -3823.923554985426 0 0
          <InformationKey name="L2_NORM_RANGE" location="vtkDataArray" length="2">
            <Value index="0">
              3325.6170355
            </Value>
            <Value index="1">
              28870.58655
            </Value>
          </InformationKey>
        </DataArray>
        <DataArray type="Float64" Name="Gauss Strain" NumberOfComponents="6" format="ascii" RangeMin="0" RangeMax="0">
          0 0 0 0 0 0
          0 0 0 0 0 0
          0 0 0 0 0 0
          0 0 0 0 0 0
          0 0 0 0 0 0
          0 0 0 0 0 0
          0 0 0 0 0 0
          0 0 0 0 0 0
          0 0 0 0 0 0
          0 0 0 0 0 0
          0 0 0 0 0 0
          <InformationKey name="L2_NORM_RANGE" location="vtkDataArray" length="2">
            <Value index="0">
              0
            </Value>
            <Value index="1">
              0
            </Value>
          </InformationKey>
        </DataArray>
      </CellData>
      <Points>
        <DataArray type="Float32" Name="Points" NumberOfComponents="3" format="ascii" RangeMin="0.4000000059604645" RangeMax="1.0012492197622458">
          0.5 0 0 0.6000000238418579 0.05000000074505806 0
          0.6000000238418579 0 0 0.699999988079071 0.05000000074505806 0
          0.699999988079071 0 0 0.800000011920929 0.05000000074505806 0
          0.800000011920929 0 0 0.8999999761581421 0.05000000074505806 0
          0.8999999761581421 0 0 1 0.05000000074505806 0
          1 0 0 0.5 0.05000000074505806 0
          0.4000000059604645 0 0
          <InformationKey name="L2_NORM_RANGE" location="vtkDataArray" length="2">
            <Value index="0">
              0.40000000596
            </Value>
            <Value index="1">
              1.0012492198
            </Value>
          </InformationKey>
        </DataArray>
      </Points>
      <Cells>
        <DataArray type="Int64" Name="connectivity" format="ascii" RangeMin="0" RangeMax="12">
          0 11 12 1 11 0
          2 1 0 4 3 2
          3 1 2 6 5 4
          5 3 4 8 7 6
          7 5 6 10 9 8
          9 7 8
        </DataArray>
        <DataArray type="Int64" Name="offsets" format="ascii" RangeMin="3" RangeMax="33">
          3 6 9 12 15 18
          21 24 27 30 33
        </DataArray>
        <DataArray type="UInt8" Name="types" format="ascii" RangeMin="5" RangeMax="5">
          5 5 5 5 5 5
          5 5 5 5 5
        </DataArray>
      </Cells>
    </Piece>
  </UnstructuredGrid>
</VTKFile>
