<?xml version="1.0"?>
<VTKFile type="UnstructuredGrid" version="0.1" byte_order="LittleEndian" header_type="UInt32" compressor="vtkZLibDataCompressor">
  <UnstructuredGrid>
    <Piece NumberOfPoints="13" NumberOfCells="11">
      <PointData>
        <DataArray type="Float64" Name="Disp" NumberOfComponents="3" format="ascii" RangeMin="0" RangeMax="0.010967845543764423">
          0 0 0 0 0 0
          -0.00015072847532029184 0.0004896178757176012 0 0.00031375547768977357 0.0004965558272503961 0
          -0.00015657919214746114 0.0016173649361065 0 0.0001714814497123414 0.001607075073642261 0
          0.00026088653057094416 0.0015730133784733012 0 -0.000204037262317016 0.0015687958225855843 0
          0.0007292157260556419 -0.00026864745617229124 0 -0.0007304490051571102 -0.0002451846608273883 0
          0.0011912436084094004 -0.004340403556847974 0 -0.0014448877787641002 -0.0042572716359753245 0
          0.0015104233790257774 -0.010863344654753686 0
          <InformationKey name="L2_NORM_RANGE" location="vtkDataArray" length="2">
            <Value index="0">
              0
            </Value>
            <Value index="1">
              0.010967845544
            </Value>
          </InformationKey>
        </DataArray>
        <DataArray type="Float64" Name="Nodal Stress" NumberOfComponents="6" format="ascii" RangeMin="7428.541353759318" RangeMax="37849.657746429155">
          -8161.590241755902 -5133.434008729523 0 8864.780312373196 0 0
          -2022.0216523881288 -4786.592655351992 0 8042.2975685056335 0 0
          5370.644018459987 -1696.7243067776365 0 5907.849933118442 0 0
          -5572.022283312675 -2200.786943836655 0 4392.303626414894 0 0
          15047.180035724017 -1147.9431487064198 0 4889.833520871289 0 0
          -17900.004273880077 -2773.753357521345 0 4807.839744545255 0 0
          25726.30108582222 -215.5839588794794 0 1873.9432780339453 0 0
          -27980.915393192983 -2812.7246792153596 0 4962.133869146117 0 0
          33069.22841347097 618.2266073910373 0 -1021.3820221484694 0 0
          -34743.80121678268 -2991.8065716735637 0 5192.338299700831 0 0
          36184.112990473455 1535.5164456041532 0 -4279.126915538946 0 0
          -37450.18870174616 -2524.5920337678126 0 4868.921111341272 0 0
          34551.02585594342 2694.351289730166 0 -7101.454853256703 0 0
          <InformationKey name="L2_NORM_RANGE" location="vtkDataArray" length="2">
            <Value index="0">
              7428.5413538
            </Value>
            <Value index="1">
              37849.657746
            </Value>
          </InformationKey>
        </DataArray>
        <DataArray type="Float64" Name="Nodal Strain" NumberOfComponents="6" format="ascii" RangeMin="0" RangeMax="0">
          0 0 0 0 0 0
          0 0 0 0 0 0
          0 0 0 0 0 0
          0 0 0 0 0 0
          0 0 0 0 0 0
          0 0 0 0 0 0
          0 0 0 0 0 0
          0 0 0 0 0 0
          0 0 0 0 0 0
          0 0 0 0 0 0
          0 0 0 0 0 0
          0 0 0 0 0 0
          0 0 0 0 0 0
          <InformationKey name="L2_NORM_RANGE" location="vtkDataArray" length="2">
            <Value index="0">
              0
            </Value>
            <Value index="1">
              0
            </Value>
          </InformationKey>
        </DataArray>
        <DataArray type="Float64" Name="Sld_traction" NumberOfComponents="3" format="ascii" RangeMin="2266.0225340268557" RangeMax="12501.344982958499">
          10821.211105835357 -6259.793653618877 0 -2537.6916189352432 618.1973729090839 0
          5789.6018447398055 -408.7959088335015 0 -4492.86720918537 3860.1089682647257 0
          4719.644398977499 293.57396929905923 0 -6154.808074749307 4646.719954200028 0
          -184.84110537719286 2258.471140059228 0 -8672.891292392578 5804.80309836615 0
          -4299.487337320456 3940.3069730382213 0 -9893.291536497298 6573.309263565897 0
          -7842.04124922811 5154.906843257464 0 -9624.204182219606 6309.641566899743 0
          -10373.003039773406 5984.103622126366 0
          <InformationKey name="L2_NORM_RANGE" location="vtkDataArray" length="2">
            <Value index="0">
              2266.022534
            </Value>
            <Value index="1">
              12501.344983
            </Value>
          </InformationKey>
        </DataArray>
        <DataArray type="Float64" Name="Velocity" NumberOfComponents="3" format="ascii" RangeMin="0" RangeMax="5.4762115554573425">
          0 0 0 0 0 0
          0.24980826253911592 -0.6224323796712605 0 -0.3914306627845602 -0.6573443842632717 0
          0.4077362621974145 -2.295764020473995 0 -0.28375966187026147 -2.320122086405566 0
          0.16949184217825172 -3.175568234623203 0 -0.027323609275431454 -3.179092354735472 0
          0.12296172027723679 -3.3516969438236868 0 -0.034930223589847126 -3.3516357300066857 0
          0.27172685404652475 -4.026328671780716 0 -0.2815825685893195 -3.995979119007308 0
          0.30250042216941775 -5.467850262645444 0
          <InformationKey name="L2_NORM_RANGE" location="vtkDataArray" length="2">
            <Value index="0">
              0
            </Value>
            <Value index="1">
              5.4762115555
            </Value>
          </InformationKey>
        </DataArray>
        <DataArray type="Float64" Name="Acceleration" NumberOfComponents="3" format="ascii" RangeMin="0" RangeMax="2659.661447684309">
          0 0 0 0 0 0
          197.48320999857816 -538.1825878410102 0 -322.2738847527401 -576.026399381031 0
          118.76944552703486 -1697.4228495213238 0 -83.78939345610166 -1678.97745246647 0
          -195.50607375544774 -1313.8408612180974 0 173.08279848334678 -1357.241947194098 0
          324.3452689480782 -940.5797082466224 0 -77.86090531050024 -1052.1697203089684 0
          531.6510123161294 -2605.9827738113368 0 26.024314457303035 -2516.580848849162 0
          -255.89805075950403 -2267.8910752484744 0
          <InformationKey name="L2_NORM_RANGE" location="vtkDataArray" length="2">
            <Value index="0">
              0
            </Value>
            <Value index="1">
              2659.6614477
            </Value>
          </InformationKey>
        </DataArray>
        <DataArray type="Float64" Name="Sigma" NumberOfComponents="6" format="ascii" RangeMin="10620.210529493233" RangeMax="76163.3000628938">
          -8203.315491714966 8203.315491718808 0 10032.934522188989 0 0
          3638.9002522698866 -3638.900252270687 0 10628.52750874092 0 0
          6711.418265110449 -6711.418265111002 0 4764.724696373885 0 0
          -8715.672863909109 8715.672863908985 0 2279.5189419782528 0 0
          20503.25614971952 -20503.256149722205 0 6469.850392942535 0 0
          -26017.60718953299 26017.607189533468 0 5924.72822496777 0 0
          36792.16717183143 -36792.16717183697 0 -1303.7157069121567 0 0
          -40788.51036410949 40788.51036411142 0 9548.349836444222 0 0
          47630.01021729695 -47630.01021729821 0 -7059.123382020945 0 0
          -49615.38959298898 49615.389592989726 0 13143.403773683669 0 0
          52322.568641852835 -52322.56864185369 0 -13849.640109224067 0 0
          -52670.300434612545 52670.30043461031 0 15891.103823395752 0 0
          50109.60752259907 -50109.60752259753 0 -19046.128528253685 0 0
          <InformationKey name="L2_NORM_RANGE" location="vtkDataArray" length="2">
            <Value index="0">
              10620.210529
            </Value>
            <Value index="1">
              76163.300063
            </Value>
          </InformationKey>
        </DataArray>
        <DataArray type="Float64" Name="Press" format="ascii" RangeMin="-59973.763737547684" RangeMax="58239.02822999567">
          -15211.053010265117 -4203.48861061233 8035.546130168543 -11289.4602850757 20033.30333968123 -30843.0312354582
          39300.94899640231 -46648.95337004552 51791.16384363952 -56778.778313342 58239.02822999567 -59973.763737547684
          57706.923032894
        </DataArray>
        <DataArray type="Float64" Name="Dev strain" NumberOfComponents="6" format="ascii" RangeMin="0" RangeMax="0">
          0 0 0 0 0 0
          0 0 0 0 0 0
          0 0 0 0 0 0
          0 0 0 0 0 0
          0 0 0 0 0 0
          0 0 0 0 0 0
          0 0 0 0 0 0
          0 0 0 0 0 0
          0 0 0 0 0 0
          0 0 0 0 0 0
          0 0 0 0 0 0
          0 0 0 0 0 0
          0 0 0 0 0 0
          <InformationKey name="L2_NORM_RANGE" location="vtkDataArray" length="2">
            <Value index="0">
              0
            </Value>
            <Value index="1">
              0
            </Value>
          </InformationKey>
        </DataArray>
        <DataArray type="Float64" Name="J2 Stresses" format="ascii" RangeMin="41482994.29698838" RangeMax="2837292343.0537148">
          92459328.83827518 41482994.29698838 50718785.48732066 77262005.12238993 430848253.7678311 685691485.0037835
          1354088483.8613062 1686495323.8729267 2281075679.0305204 2504874150.153636 2785604322.0702033 2837292343.0537148
          2601661519.0475297
        </DataArray>
      </PointData>
      <CellData>
        <DataArray type="UInt8" Name="vtkGhostType" format="ascii" RangeMin="0" RangeMax="0">
          0 0 0 0 0 0
          0 0 0 0 0
        </DataArray>
        <DataArray type="Float64" Name="Gauss Stress" NumberOfComponents="6" format="ascii" RangeMin="6903.273658656706" RangeMax="36622.5033994337">
          -1940.9190373494243 -3030.6828063307307 0 5890.923715697685 0 0
          -3077.330821681176 -4508.666172123928 0 8475.395575767932 0 0
          -12109.73736152509 -2623.0547590441392 0 4891.365853296185 0 0
          11759.463578564986 -573.2041220500505 0 4504.698010431557 0 0
          -22734.995330304166 -2725.695075764499 0 4723.12078483328 0 0
          19923.01241088111 -928.8650104667884 0 3696.954303666049 0 0
          -31470.15252651651 -2954.2260333150216 0 5210.876742702317 0 0
          29358.94216500508 269.83081499084983 0 395.17024917037224 0 0
          -36158.87840221424 -2850.130811715891 0 5061.622495951787 0 0
          34529.534342151346 971.4081647103358 0 -2588.453239187118 0 0
          35244.687751727135 2070.103931833692 0 -5668.221604694002 0 0
          <InformationKey name="L2_NORM_RANGE" location="vtkDataArray" length="2">
            <Value index="0">
              6903.2736587
            </Value>
            <Value index="1">
              36622.503399
            </Value>
          </InformationKey>
        </DataArray>
        <DataArray type="Float64" Name="Gauss Strain" NumberOfComponents="6" format="ascii" RangeMin="0" RangeMax="0">
          0 0 0 0 0 0
          0 0 0 0 0 0
          0 0 0 0 0 0
          0 0 0 0 0 0
          0 0 0 0 0 0
          0 0 0 0 0 0
          0 0 0 0 0 0
          0 0 0 0 0 0
          0 0 0 0 0 0
          0 0 0 0 0 0
          0 0 0 0 0 0
          <InformationKey name="L2_NORM_RANGE" location="vtkDataArray" length="2">
            <Value index="0">
              0
            </Value>
            <Value index="1">
              0
            </Value>
          </InformationKey>
        </DataArray>
      </CellData>
      <Points>
        <DataArray type="Float32" Name="Points" NumberOfComponents="3" format="ascii" RangeMin="0" RangeMax="0.6020797527609908">
          0 0.05000000074505806 0 0 0 0
          0.10000000149011612 0.05000000074505806 0 0.10000000149011612 0 0
          0.20000000298023224 0.05000000074505806 0 0.20000000298023224 0 0
          0.30000001192092896 0.05000000074505806 0 0.30000001192092896 0 0
          0.4000000059604645 0.05000000074505806 0 0.4000000059604645 0 0
          0.5 0.05000000074505806 0 0.5 0 0
          0.6000000238418579 0.05000000074505806 0
          <InformationKey name="L2_NORM_RANGE" location="vtkDataArray" length="2">
            <Value index="0">
              0
            </Value>
            <Value index="1">
              0.60207975276
            </Value>
          </InformationKey>
        </DataArray>
      </Points>
      <Cells>
        <DataArray type="Int64" Name="connectivity" format="ascii" RangeMin="0" RangeMax="12">
          3 2 1 2 0 1
          5 4 3 4 2 3
          7 6 5 6 4 5
          9 8 7 8 6 7
          11 10 9 10 8 9
          12 10 11
        </DataArray>
        <DataArray type="Int64" Name="offsets" format="ascii" RangeMin="3" RangeMax="33">
          3 6 9 12 15 18
          21 24 27 30 33
        </DataArray>
        <DataArray type="UInt8" Name="types" format="ascii" RangeMin="5" RangeMax="5">
          5 5 5 5 5 5
          5 5 5 5 5
        </DataArray>
      </Cells>
    </Piece>
  </UnstructuredGrid>
</VTKFile>
