<?xml version="1.0"?>
<VTKFile type="UnstructuredGrid" version="0.1" byte_order="LittleEndian" header_type="UInt32" compressor="vtkZLibDataCompressor">
  <UnstructuredGrid>
    <Piece NumberOfPoints="13" NumberOfCells="11">
      <PointData>
        <DataArray type="Float64" Name="Disp" NumberOfComponents="3" format="ascii" RangeMin="0" RangeMax="0.07742326302659511">
          0 0 0 0 0 0
          0.0011774432231688092 -0.0022132495342206257 0 -0.001280975355297643 -0.002165819007138612 0
          0.002158366978492897 -0.009932581863337817 0 -0.0028015417076327188 -0.009726104578986098 0
          0.002481900574578964 -0.022036468101434746 0 -0.004421190386370347 -0.021583748800036565 0
          0.0021116993650088568 -0.03771070463952986 0 -0.006424534911183371 -0.03697461256676127 0
          0.000979589559920883 -0.05640531595884359 0 -0.008895772746023132 -0.05535007754949686 0
          -0.0009563543842609082 -0.07741735621924216 0
          <InformationKey name="L2_NORM_RANGE" location="vtkDataArray" length="2">
            <Value index="0">
              0
            </Value>
            <Value index="1">
              0.077423263027
            </Value>
          </InformationKey>
        </DataArray>
        <DataArray type="Float64" Name="Nodal Stress" NumberOfComponents="6" format="ascii" RangeMin="40516.6419160925" RangeMax="139124.43334076417">
          134662.18297126074 -1410.2087939639252 0 -34924.42899978245 0 0
          -70563.18600395876 -10733.59690162151 0 1523.2144652823758 0 0
          98905.2849804069 6054.069648210733 0 -14023.827021280851 0 0
          -88085.59204270534 -3697.5146250169687 0 7900.592011581726 0 0
          80652.3692137878 6785.990850559211 0 -19476.492250973366 0 0
          -80379.5481893769 -5614.6797886742415 0 9215.308160829016 0 0
          73703.69526500891 7536.055148777673 0 -19620.5895020367 0 0
          -69708.9674981854 -5580.500002256834 0 11669.587083550381 0 0
          62320.437106172256 8151.776427510669 0 -19986.985198222515 0 0
          -60809.813186828 -5156.909423568151 0 11833.874024859384 0 0
          49685.65576858906 8973.545371822162 0 -19052.021194887864 0 0
          -50779.87523513409 -3653.5305847347345 0 10728.195970468763 0 0
          35885.58443685902 8832.215230528343 0 -16607.681231994695 0 0
          <InformationKey name="L2_NORM_RANGE" location="vtkDataArray" length="2">
            <Value index="0">
              40516.641916
            </Value>
            <Value index="1">
              139124.43334
            </Value>
          </InformationKey>
        </DataArray>
        <DataArray type="Float64" Name="Nodal Strain" NumberOfComponents="6" format="ascii" RangeMin="0" RangeMax="0">
          0 0 0 0 0 0
          0 0 0 0 0 0
          0 0 0 0 0 0
          0 0 0 0 0 0
          0 0 0 0 0 0
          0 0 0 0 0 0
          0 0 0 0 0 0
          0 0 0 0 0 0
          0 0 0 0 0 0
          0 0 0 0 0 0
          0 0 0 0 0 0
          0 0 0 0 0 0
          0 0 0 0 0 0
          <InformationKey name="L2_NORM_RANGE" location="vtkDataArray" length="2">
            <Value index="0">
              0
            </Value>
            <Value index="1">
              0
            </Value>
          </InformationKey>
        </DataArray>
        <DataArray type="Float64" Name="Sld_traction" NumberOfComponents="3" format="ascii" RangeMin="13218.889095032566" RangeMax="61914.870041014365">
          -59509.68613991317 17089.423270687766 0 21073.92674183531 17601.37542678501 0
          -23961.47937239653 16701.31417566166 0 -18266.085520047258 14973.570431571326 0
          -21296.10983066946 13767.835365430608 0 -15212.59825474333 13767.349415653307 0
          -19416.542708644603 13411.697514056084 0 -14143.540765379792 13031.223235815793 0
          -18624.182424350525 12700.029048635497 0 -12547.25337672397 11160.723779163078 0
          -17871.458792723715 12065.734777129479 0 -10309.917416021239 8273.127086029372 0
          -16385.236964340926 10657.845992530914 0
          <InformationKey name="L2_NORM_RANGE" location="vtkDataArray" length="2">
            <Value index="0">
              13218.889095
            </Value>
            <Value index="1">
              61914.870041
            </Value>
          </InformationKey>
        </DataArray>
        <DataArray type="Float64" Name="Velocity" NumberOfComponents="3" format="ascii" RangeMin="0" RangeMax="0.7904698618920195">
          0 0 0 0 0 0
          -0.036789931893507447 0.09001025040751069 0 0.03532611093363633 0.044857194397870156 0
          -0.0644942879304588 0.34286537757286256 0 0.13588903730860064 0.27408835077330995 0
          -0.02559001645117659 0.7900555383120966 0 0.12727915562558087 0.7775642387924295 0
          0.10913026069821338 0.6621053201748376 0 -0.1948379176896361 0.7140036059738664 0
          -0.062353685676901804 -0.1992593566268711 0 -0.36971687796522457 -0.1614745123003517 0
          -0.10785146795104095 -0.6348469501161449 0
          <InformationKey name="L2_NORM_RANGE" location="vtkDataArray" length="2">
            <Value index="0">
              0
            </Value>
            <Value index="1">
              0.79046986189
            </Value>
          </InformationKey>
        </DataArray>
        <DataArray type="Float64" Name="Acceleration" NumberOfComponents="3" format="ascii" RangeMin="0" RangeMax="2178.9007091684084">
          0 0 0 0 0 0
          -57.55601485701027 406.35020398146975 0 115.02234913766273 248.1562420843129 0
          -85.54699152840368 657.1240755996857 0 13.66100683757503 447.2651772799552 0
          12.026248253870506 414.1096768363609 0 -132.56598314544047 812.5968940216583 0
          -115.59406190918048 -877.3567138388948 0 -947.2122131096346 -440.3692517485413 0
          -1590.4231075026123 -1489.3497371458218 0 -838.4196979048793 -1624.95839217704 0
          -705.1636548870322 1308.0179384196472 0
          <InformationKey name="L2_NORM_RANGE" location="vtkDataArray" length="2">
            <Value index="0">
              0
            </Value>
            <Value index="1">
              2178.9007092
            </Value>
          </InformationKey>
        </DataArray>
        <DataArray type="Float64" Name="Sigma" NumberOfComponents="6" format="ascii" RangeMin="80604.32240944314" RangeMax="199879.01413494846">
          132470.52289841507 -132470.5228984141 0 -69675.97446466141 0 0
          -130406.51619960871 130406.51619961344 0 26682.052784818152 0 0
          137610.253933231 -137610.25393323146 0 -27027.81985462518 0 0
          -128576.8243710071 128576.82437100429 0 30413.55608155901 0 0
          112782.1921971649 -112782.1921971724 0 -49190.45004709601 0 0
          -109323.98735695574 109323.9873569644 0 39268.03695056962 0 0
          100942.62071559469 -100942.62071559655 0 -49771.31631124005 0 0
          -94671.63909888972 94671.6390988752 0 43701.82114956357 0 0
          84049.20798375599 -84049.20798375367 0 -52418.35213708397 0 0
          -79575.56129391913 79575.56129391864 0 44011.96028617592 0 0
          66460.92972667134 -66460.92972667085 0 -50013.13459173078 0 0
          -64322.80105354737 64322.80105354918 0 40006.7004556811 0 0
          48033.80869185158 -48033.8086918534 0 -43388.51502638101 0 0
          <InformationKey name="L2_NORM_RANGE" location="vtkDataArray" length="2">
            <Value index="0">
              80604.322409
            </Value>
            <Value index="1">
              199879.01413
            </Value>
          </InformationKey>
        </DataArray>
        <DataArray type="Float64" Name="Press" format="ascii" RangeMin="-160623.89658146282" RangeMax="161112.57474162834">
          133007.6350972125 -160623.89658146282 161112.57474162834 -141279.80347787356 129211.23554853056 -127861.96842872511
          122177.13480655856 -113938.53571147475 105787.63958564543 -98817.00831033583 89206.33439339191 -80849.310514049
          68712.8842762987
        </DataArray>
        <DataArray type="Float64" Name="Dev strain" NumberOfComponents="6" format="ascii" RangeMin="0" RangeMax="0">
          0 0 0 0 0 0
          0 0 0 0 0 0
          0 0 0 0 0 0
          0 0 0 0 0 0
          0 0 0 0 0 0
          0 0 0 0 0 0
          0 0 0 0 0 0
          0 0 0 0 0 0
          0 0 0 0 0 0
          0 0 0 0 0 0
          0 0 0 0 0 0
          0 0 0 0 0 0
          0 0 0 0 0 0
          <InformationKey name="L2_NORM_RANGE" location="vtkDataArray" length="2">
            <Value index="0">
              0
            </Value>
            <Value index="1">
              0
            </Value>
          </InformationKey>
        </DataArray>
        <DataArray type="Float64" Name="J2 Stresses" format="ascii" RangeMin="2777887586.494107" RangeMax="19119207749.0919">
          18762124791.379417 17183842452.52238 19119207749.0919 16763245863.713978 13324747970.758049 12337228893.11259
          10808708658.770973 9440181542.616161 7751190272.888311 6816533117.300224 5042383588.056159 4537556755.712
          2777887586.494107
        </DataArray>
      </PointData>
      <CellData>
        <DataArray type="UInt8" Name="vtkGhostType" format="ascii" RangeMin="0" RangeMax="0">
          0 0 0 0 0 0
          0 0 0 0 0
        </DataArray>
        <DataArray type="Float64" Name="Gauss Stress" NumberOfComponents="6" format="ascii" RangeMin="46862.6938574654" RangeMax="94023.26766424277">
          -87388.07065169764 -6472.679560107256 0 10022.596337250661 0 0
          91056.85796313852 -2059.3157915513584 0 -23340.580511489483 0 0
          -88349.71862962206 -4937.305609090612 0 6830.380995010877 0 0
          90286.54285722475 9076.128350961924 0 -15268.23794005407 0 0
          -74225.45835796403 -5523.454531132749 0 11066.18059629772 0 0
          75975.74249405596 6375.192123519826 0 -19897.90980258882 0 0
          -65721.96561507267 -5589.970675708328 0 11765.143099551842 0 0
          68115.47609373009 7902.016360084752 0 -19495.949099586822 0 0
          -55965.805683929364 -4340.850603398648 0 11335.175383375417 0 0
          55703.847361736596 8414.12975073188 0 -19473.175480879618 0 0
          42413.9485068724 8965.990263555525 0 -17798.316387476898 0 0
          <InformationKey name="L2_NORM_RANGE" location="vtkDataArray" length="2">
            <Value index="0">
              46862.693857
            </Value>
            <Value index="1">
              94023.267664
            </Value>
          </InformationKey>
        </DataArray>
        <DataArray type="Float64" Name="Gauss Strain" NumberOfComponents="6" format="ascii" RangeMin="0" RangeMax="0">
          0 0 0 0 0 0
          0 0 0 0 0 0
          0 0 0 0 0 0
          0 0 0 0 0 0
          0 0 0 0 0 0
          0 0 0 0 0 0
          0 0 0 0 0 0
          0 0 0 0 0 0
          0 0 0 0 0 0
          0 0 0 0 0 0
          0 0 0 0 0 0
          <InformationKey name="L2_NORM_RANGE" location="vtkDataArray" length="2">
            <Value index="0">
              0
            </Value>
            <Value index="1">
              0
            </Value>
          </InformationKey>
        </DataArray>
      </CellData>
      <Points>
        <DataArray type="Float32" Name="Points" NumberOfComponents="3" format="ascii" RangeMin="0" RangeMax="0.6020797527609908">
          0 0.05000000074505806 0 0 0 0
          0.10000000149011612 0.05000000074505806 0 0.10000000149011612 0 0
          0.20000000298023224 0.05000000074505806 0 0.20000000298023224 0 0
          0.30000001192092896 0.05000000074505806 0 0.30000001192092896 0 0
          0.4000000059604645 0.05000000074505806 0 0.4000000059604645 0 0
          0.5 0.05000000074505806 0 0.5 0 0
          0.6000000238418579 0.05000000074505806 0
          <InformationKey name="L2_NORM_RANGE" location="vtkDataArray" length="2">
            <Value index="0">
              0
            </Value>
            <Value index="1">
              0.60207975276
            </Value>
          </InformationKey>
        </DataArray>
      </Points>
      <Cells>
        <DataArray type="Int64" Name="connectivity" format="ascii" RangeMin="0" RangeMax="12">
          3 2 1 2 0 1
          5 4 3 4 2 3
          7 6 5 6 4 5
          9 8 7 8 6 7
          11 10 9 10 8 9
          12 10 11
        </DataArray>
        <DataArray type="Int64" Name="offsets" format="ascii" RangeMin="3" RangeMax="33">
          3 6 9 12 15 18
          21 24 27 30 33
        </DataArray>
        <DataArray type="UInt8" Name="types" format="ascii" RangeMin="5" RangeMax="5">
          5 5 5 5 5 5
          5 5 5 5 5
        </DataArray>
      </Cells>
    </Piece>
  </UnstructuredGrid>
</VTKFile>
