<?xml version="1.0"?>
<VTKFile type="UnstructuredGrid" version="0.1" byte_order="LittleEndian" header_type="UInt32" compressor="vtkZLibDataCompressor">
  <UnstructuredGrid>
    <Piece NumberOfPoints="13" NumberOfCells="11">
      <PointData>
        <DataArray type="Float64" Name="Disp" NumberOfComponents="3" format="ascii" RangeMin="0.00022160643443287702" RangeMax="0.006433226172248806">
          0.00004234535644753474 0.0003734413362527639 0 0.000028611619031493004 0.0004499266851820116 0
          -0.000006577153185444162 0.00045231604147859955 0 0.0001650064283503065 0.0001627310465355386 0
          -0.00016174402706934602 0.00016551411729341658 0 0.0004179683164828433 -0.0009743995296622038 0
          -0.0004772976568991876 -0.000965015362643748 0 0.0006914117883510137 -0.0034009804063057647 0
          -0.0007201056099864975 -0.003396034984717175 0 0.0006776720358583213 -0.006397433828897542 0
          -0.0007827524414415529 -0.0063660471587592 0 -0.000021529601181748213 0.00037192988245688535 0
          0.00004136341672326309 0.00021771191868850612 0
          <InformationKey name="L2_NORM_RANGE" location="vtkDataArray" length="2">
            <Value index="0">
              0.00022160643443
            </Value>
            <Value index="1">
              0.0064332261722
            </Value>
          </InformationKey>
        </DataArray>
        <DataArray type="Float64" Name="Nodal Stress" NumberOfComponents="6" format="ascii" RangeMin="1782.5154735330304" RangeMax="12955.562456756226">
          -4175.151740287518 -680.5639754545898 0 1308.170750269628 0 0
          8200.696917142248 -210.77359003093684 0 1350.5701014469896 0 0
          -7898.412705022759 -1149.589276994381 0 1997.5888712008527 0 0
          11911.855464865346 -217.64321794365185 0 853.0138602167888 0 0
          -10977.737538502732 -1247.8120994625585 0 2180.4923363759794 0 0
          12902.05510293684 392.9763151324332 0 -1108.6669055391694 0 0
          -11940.590537391356 -227.20398550225167 0 639.7840738395809 0 0
          9292.458906547212 1799.4906030786137 0 -3014.2696847155876 0 0
          -10950.573814243226 277.6503322785241 0 -1785.309910325213 0 0
          5565.632274833775 -320.4843381439289 0 -6020.731150565164 0 0
          -8500.445920700247 -1703.2634330832545 0 -2976.5116448524223 0 0
          4365.138973855595 -121.90710400501244 0 1063.060748068673 0 0
          -1639.0162669988529 -306.60726298288427 0 630.0627557505464 0 0
          <InformationKey name="L2_NORM_RANGE" location="vtkDataArray" length="2">
            <Value index="0">
              1782.5154735
            </Value>
            <Value index="1">
              12955.562457
            </Value>
          </InformationKey>
        </DataArray>
        <DataArray type="Float64" Name="Nodal Strain" NumberOfComponents="6" format="ascii" RangeMin="0" RangeMax="0">
          0 0 0 0 0 0
          0 0 0 0 0 0
          0 0 0 0 0 0
          0 0 0 0 0 0
          0 0 0 0 0 0
          0 0 0 0 0 0
          0 0 0 0 0 0
          0 0 0 0 0 0
          0 0 0 0 0 0
          0 0 0 0 0 0
          0 0 0 0 0 0
          0 0 0 0 0 0
          0 0 0 0 0 0
          <InformationKey name="L2_NORM_RANGE" location="vtkDataArray" length="2">
            <Value index="0">
              0
            </Value>
            <Value index="1">
              0
            </Value>
          </InformationKey>
        </DataArray>
        <DataArray type="Float64" Name="Sld_traction" NumberOfComponents="3" format="ascii" RangeMin="348.01651811081507" RangeMax="5719.960097602964">
          -1381.5969408079857 1212.6122092056241 0 1000.6348298596522 503.2603778911795 0
          -2769.234098468376 2025.768357667684 0 -434.58990478359766 852.8771707057141 0
          -3949.8442963733833 2365.5203659237895 0 -2918.7787403133443 1726.1891173413542 0
          -2600.680618738251 1599.5487147586082 0 -5096.297633382963 2597.247379466447 0
          -594.3689620877592 529.1238301569376 0 -1971.910938776632 -2372.2178359030686 0
          290.7754288950409 -191.22015277914699 0 1149.9943056449065 235.55108827628106 0
          -468.49311417594254 540.9584882214098 0
          <InformationKey name="L2_NORM_RANGE" location="vtkDataArray" length="2">
            <Value index="0">
              348.01651811
            </Value>
            <Value index="1">
              5719.9600976
            </Value>
          </InformationKey>
        </DataArray>
        <DataArray type="Float64" Name="Velocity" NumberOfComponents="3" format="ascii" RangeMin="0.2767610084654671" RangeMax="6.3714972116295145">
          0.05910545624212248 0.5595865188453009 0 0.07381202463456546 0.588005077575976 0
          -0.03643136586323898 0.5914180062148028 0 0.27673375300612835 0.0038840383578819804 0
          -0.2785794659974482 0.00837438687512071 0 0.5527921141866592 -1.7040100609394815 0
          -0.5854445812966714 -1.6971329145004932 0 0.6025355958755975 -4.318163107691452 0
          -0.5909642918655172 -4.2858083737352946 0 0.36813731044956116 -6.360853059021065 0
          -0.5944419537874911 -6.337131100358635 0 -0.014602090158114324 0.5563994419638811 0
          0.06790030378681697 0.34832556453307656 0
          <InformationKey name="L2_NORM_RANGE" location="vtkDataArray" length="2">
            <Value index="0">
              0.27676100847
            </Value>
            <Value index="1">
              6.3714972116
            </Value>
          </InformationKey>
        </DataArray>
        <DataArray type="Float64" Name="Acceleration" NumberOfComponents="3" format="ascii" RangeMin="533.1285902044224" RangeMax="3685.914996979881">
          67.04039917835095 744.5807303701479 0 180.80162241228987 552.3135695758574 0
          -119.41685071117925 556.4078589448127 0 446.90929862328727 -635.3880327106265 0
          -467.3417557124089 -628.5589216731835 0 539.2951908152634 -2918.4421251091107 0
          -432.5876975899353 -2928.470207426981 0 -355.50476990166464 -3668.7308055427507 0
          516.565272483921 -3559.093556072479 0 -1238.1389016350408 146.3230795059062 0
          753.2419506162471 115.66423360226327 0 27.71004409453555 737.8782380279835 0
          106.14754825421548 522.4545833782818 0
          <InformationKey name="L2_NORM_RANGE" location="vtkDataArray" length="2">
            <Value index="0">
              533.1285902
            </Value>
            <Value index="1">
              3685.914997
            </Value>
          </InformationKey>
        </DataArray>
        <DataArray type="Float64" Name="Sigma" NumberOfComponents="6" format="ascii" RangeMin="3663.66468294954" RangeMax="26730.598781835266">
          -6474.087735473091 6474.087735473506 0 1287.2592452895205 0 0
          10912.088334891381 -10912.088334891632 0 1228.0097743332663 0 0
          -12127.246329557653 12127.246329558282 0 2678.411575707456 0 0
          16802.624021026957 -16802.624021026546 0 -327.99049111392014 0 0
          -16727.516631220227 16727.51663122098 0 4818.470353209157 0 0
          18688.16709540995 -18688.16709540967 0 -4003.714832944169 0 0
          -16976.940949420117 16976.940949420503 0 3254.4988514507727 0 0
          13406.85316982651 -13406.85316982829 0 -5071.802383568207 0 0
          -15996.526892057109 15996.526892057023 0 1513.9413526670628 0 0
          11691.599446760069 -11691.59944676019 0 -11259.985144493254 0 0
          -4644.718764968249 4644.718764968802 0 -1080.0013937917483 0 0
          5374.429397797263 -5374.429397797481 0 1236.9640557708553 0 0
          -2577.580271646475 2577.5802716459875 0 366.8770850462497 0 0
          <InformationKey name="L2_NORM_RANGE" location="vtkDataArray" length="2">
            <Value index="0">
              3663.6646829
            </Value>
            <Value index="1">
              26730.598782
            </Value>
          </InformationKey>
        </DataArray>
        <DataArray type="Float64" Name="Press" format="ascii" RangeMin="-19310.377454955255" RangeMax="20170.613677204256">
          -7641.392305663823 11413.056695746913 -14234.544164773364 17598.798164349115 -19310.377454955255 20170.613677204256
          -18913.159141885026 17450.62583066913 -15592.912703090391 10603.004924731722 -7708.755464604391 5590.472603745016
          -3068.4204514207813
        </DataArray>
        <DataArray type="Float64" Name="Dev strain" NumberOfComponents="6" format="ascii" RangeMin="0" RangeMax="0">
          0 0 0 0 0 0
          0 0 0 0 0 0
          0 0 0 0 0 0
          0 0 0 0 0 0
          0 0 0 0 0 0
          0 0 0 0 0 0
          0 0 0 0 0 0
          0 0 0 0 0 0
          0 0 0 0 0 0
          0 0 0 0 0 0
          0 0 0 0 0 0
          0 0 0 0 0 0
          0 0 0 0 0 0
          <InformationKey name="L2_NORM_RANGE" location="vtkDataArray" length="2">
            <Value index="0">
              0
            </Value>
            <Value index="1">
              0
            </Value>
          </InformationKey>
        </DataArray>
        <DataArray type="Float64" Name="J2 Stresses" format="ascii" RangeMin="6677569.755662868" RangeMax="353255022.50184214">
          42328071.09775162 119450673.82993983 148863575.6799981 282355068.43255043 285614226.7839508 353255022.50184214
          290864464.6936278 186174506.77180308 256461877.21313375 168390313.98703396 21865013.15829877 29267011.370725892
          6677569.755662868
        </DataArray>
      </PointData>
      <CellData>
        <DataArray type="UInt8" Name="vtkGhostType" format="ascii" RangeMin="0" RangeMax="1">
          1 1 0 0 0 0
          0 0 0 0 0
        </DataArray>
        <DataArray type="Float64" Name="Gauss Stress" NumberOfComponents="6" format="ascii" RangeMin="3123.7071322658703" RangeMax="12408.911582586275">
          -2932.192920887298 -480.70051467252574 0 963.7001287022085 0 0
          6391.52233034789 -150.09766779583327 0 1250.744358464547 0 0
          -6050.708501609879 -924.5446815167071 0 1731.2268651100812 0 0
          -9332.754131710144 -1297.9948385422608 0 2389.6304792675646 0 0
          10121.592240561124 -270.05177701240984 0 1192.8102863089339 0 0
          -11023.071134955479 -1012.2108114680702 0 1356.4181239052537 0 0
          12407.436290604935 -101.4133662057045 0 162.25500971702195 0 0
          -12207.35356198567 837.0562191143184 0 -101.12072648345702 0 0
          11275.386560601572 1196.667016723635 0 -1940.3394550205346 0 0
          -7216.103151076117 -1249.672344232476 0 -3608.6817285393136 0 0
          7187.547925613315 1119.5974425930028 0 -4939.282058464801 0 0
          <InformationKey name="L2_NORM_RANGE" location="vtkDataArray" length="2">
            <Value index="0">
              3123.7071323
            </Value>
            <Value index="1">
              12408.911583
            </Value>
          </InformationKey>
        </DataArray>
        <DataArray type="Float64" Name="Gauss Strain" NumberOfComponents="6" format="ascii" RangeMin="0" RangeMax="0">
          0 0 0 0 0 0
          0 0 0 0 0 0
          0 0 0 0 0 0
          0 0 0 0 0 0
          0 0 0 0 0 0
          0 0 0 0 0 0
          0 0 0 0 0 0
          0 0 0 0 0 0
          0 0 0 0 0 0
          0 0 0 0 0 0
          0 0 0 0 0 0
          <InformationKey name="L2_NORM_RANGE" location="vtkDataArray" length="2">
            <Value index="0">
              0
            </Value>
            <Value index="1">
              0
            </Value>
          </InformationKey>
        </DataArray>
      </CellData>
      <Points>
        <DataArray type="Float32" Name="Points" NumberOfComponents="3" format="ascii" RangeMin="0.4000000059604645" RangeMax="1.0012492197622458">
          0.5 0 0 0.6000000238418579 0.05000000074505806 0
          0.6000000238418579 0 0 0.699999988079071 0.05000000074505806 0
          0.699999988079071 0 0 0.800000011920929 0.05000000074505806 0
          0.800000011920929 0 0 0.8999999761581421 0.05000000074505806 0
          0.8999999761581421 0 0 1 0.05000000074505806 0
          1 0 0 0.5 0.05000000074505806 0
          0.4000000059604645 0 0
          <InformationKey name="L2_NORM_RANGE" location="vtkDataArray" length="2">
            <Value index="0">
              0.40000000596
            </Value>
            <Value index="1">
              1.0012492198
            </Value>
          </InformationKey>
        </DataArray>
      </Points>
      <Cells>
        <DataArray type="Int64" Name="connectivity" format="ascii" RangeMin="0" RangeMax="12">
          0 11 12 1 11 0
          2 1 0 4 3 2
          3 1 2 6 5 4
          5 3 4 8 7 6
          7 5 6 10 9 8
          9 7 8
        </DataArray>
        <DataArray type="Int64" Name="offsets" format="ascii" RangeMin="3" RangeMax="33">
          3 6 9 12 15 18
          21 24 27 30 33
        </DataArray>
        <DataArray type="UInt8" Name="types" format="ascii" RangeMin="5" RangeMax="5">
          5 5 5 5 5 5
          5 5 5 5 5
        </DataArray>
      </Cells>
    </Piece>
  </UnstructuredGrid>
</VTKFile>
