<?xml version="1.0"?>
<VTKFile type="UnstructuredGrid" version="0.1" byte_order="LittleEndian" header_type="UInt32" compressor="vtkZLibDataCompressor">
  <UnstructuredGrid>
    <Piece NumberOfPoints="13" NumberOfCells="11">
      <PointData>
        <DataArray type="Float64" Name="Disp" NumberOfComponents="3" format="ascii" RangeMin="0.03917593689767179" RangeMax="0.13929999602902754">
          -0.00810276012041631 -0.05458158026177612 0 -0.0014410359580037347 -0.07219250555243972 0
          -0.009871631601726282 -0.07134054546000403 0 -0.0031838890929151605 -0.08907287826222454 0
          -0.011593020403611376 -0.08822199548592136 0 -0.004909317366671181 -0.10584162413343427 0
          -0.013262459300141083 -0.1050120608243468 0 -0.006603148634653031 -0.12248141463671693 0
          -0.014901383852929603 -0.12165968578991894 0 -0.008250750463885952 -0.13905543502671794 0
          -0.016540529712263507 -0.13823560537491175 0 0.00010204867320258502 -0.055372188830228375 0
          -0.006365931508520673 -0.03865525769981602 0
          <InformationKey name="L2_NORM_RANGE" location="vtkDataArray" length="2">
            <Value index="0">
              0.039175936898
            </Value>
            <Value index="1">
              0.13929999603
            </Value>
          </InformationKey>
        </DataArray>
        <DataArray type="Float64" Name="Nodal Stress" NumberOfComponents="6" format="ascii" RangeMin="697.1447117275902" RangeMax="31670.183549101468">
          -18766.354506456035 462.83027839047804 0 1728.7498472935956 0 0
          7073.510385165175 4454.084445705063 0 -6423.876387977627 0 0
          -9006.330668466504 845.2961048913398 0 467.72907762834404 0 0
          1082.074365198413 2290.090614033029 0 -2758.848590343603 0 0
          -3110.730310602613 324.93105464835077 0 89.57262491481896 0 0
          -1681.3763715018076 730.4058319434365 0 -690.1061038822795 0 0
          -939.7804922881695 13.423024269095793 0 41.98288958072556 0 0
          -1619.1413451791495 -21.833232665938187 0 171.41618055678862 0 0
          672.9389995835307 6.768837690033239 0 181.98361125548558 0 0
          -291.3803832485024 276.337090014148 0 603.7075526988016 0 0
          839.0625093655447 285.373351478473 0 159.37693151863473 0 0
          17942.080029271823 5929.019863202776 0 -10140.60359693018 0 0
          -31406.180218185742 -829.9894080469754 0 3995.4333581159403 0 0
          <InformationKey name="L2_NORM_RANGE" location="vtkDataArray" length="2">
            <Value index="0">
              697.14471173
            </Value>
            <Value index="1">
              31670.183549
            </Value>
          </InformationKey>
        </DataArray>
        <DataArray type="Float64" Name="Nodal Strain" NumberOfComponents="6" format="ascii" RangeMin="0" RangeMax="0">
          0 0 0 0 0 0
          0 0 0 0 0 0
          0 0 0 0 0 0
          0 0 0 0 0 0
          0 0 0 0 0 0
          0 0 0 0 0 0
          0 0 0 0 0 0
          0 0 0 0 0 0
          0 0 0 0 0 0
          0 0 0 0 0 0
          0 0 0 0 0 0
          0 0 0 0 0 0
          0 0 0 0 0 0
          <InformationKey name="L2_NORM_RANGE" location="vtkDataArray" length="2">
            <Value index="0">
              0
            </Value>
            <Value index="1">
              0
            </Value>
          </InformationKey>
        </DataArray>
        <DataArray type="Float64" Name="Sld_traction" NumberOfComponents="3" format="ascii" RangeMin="37.40054034186512" RangeMax="15295.358647661878">
          -3558.208410512772 2440.41434817713 0 -8819.98374385262 5630.641776445536 0
          -1722.9792546406436 831.9373795853559 0 -4481.834986899071 2992.9152143044607 0
          -756.9600677886497 431.3293221645707 0 -1721.426804431114 1082.9273436891335 0
          -297.0062699253909 180.772445379014 0 -273.8974057589751 167.8652302385962 0
          -232.70673089858494 75.93182391261217 0 170.27344944545217 534.1821522460134 0
          14.87385852576401 -34.315721621714985 0 -13012.19443145452 8039.327847440293 0
          -6608.871312966504 4878.646380622146 0
          <InformationKey name="L2_NORM_RANGE" location="vtkDataArray" length="2">
            <Value index="0">
              37.400540342
            </Value>
            <Value index="1">
              15295.358648
            </Value>
          </InformationKey>
        </DataArray>
        <DataArray type="Float64" Name="Velocity" NumberOfComponents="3" format="ascii" RangeMin="0.40725430655070227" RangeMax="11.56696619791133">
          -0.7455517366507265 -1.7375622328326241 0 -0.23813532388160308 -3.646685964813659 0
          -1.0026465797913182 -3.4978612738110764 0 -0.5624551441461205 -5.11455159851384 0
          -1.555277065287105 -4.932002398248036 0 -0.8972656027446511 -7.648027810511287 0
          -2.0944861712695784 -7.443041250529133 0 -1.5267745536392208 -9.621695214814707 0
          -2.423540635356186 -9.465874959330657 0 -1.8325679655085139 -11.42087569652237 0
          -2.735000628841841 -11.23831580106982 0 0.11001561859242454 -1.8910959220791053 0
          -0.33065423481400613 -0.23774744415799187 0
          <InformationKey name="L2_NORM_RANGE" location="vtkDataArray" length="2">
            <Value index="0">
              0.40725430655
            </Value>
            <Value index="1">
              11.566966198
            </Value>
          </InformationKey>
        </DataArray>
        <DataArray type="Float64" Name="Acceleration" NumberOfComponents="3" format="ascii" RangeMin="483.9266742809217" RangeMax="4236.36980780328">
          -442.49401269864256 -504.10242358828873 0 -1233.6613275862117 2630.0816211818847 0
          -256.13271207976345 2697.0933092506048 0 -178.40148638457367 2095.331658166576 0
          -913.2326523571778 2041.0034639294709 0 266.91271012358357 497.7219498164013 0
          -22.979234334109833 483.380782479001 0 1001.8902594383214 1261.284720256493 0
          782.1611252081448 1089.4526351513446 0 2512.5210290560244 -3410.8748477507143 0
          847.062574286947 -1831.392066777713 0 -736.476375966616 -457.7361439375604 0
          -972.7317375605329 1659.2008388650697 0
          <InformationKey name="L2_NORM_RANGE" location="vtkDataArray" length="2">
            <Value index="0">
              483.92667428
            </Value>
            <Value index="1">
              4236.3698078
            </Value>
          </InformationKey>
        </DataArray>
        <DataArray type="Float64" Name="Sigma" NumberOfComponents="6" format="ascii" RangeMin="420.4091220754422" RangeMax="58357.84215214028">
          -22110.082531772405 22110.08253177495 0 11384.910274872067 0 0
          8922.108434081569 -8922.108434079615 0 -13644.358559313734 0 0
          -9280.274491640583 9280.27449164052 0 5095.9163071625535 0 0
          1290.3634774977945 -1290.3634774926613 0 -5234.016772438545 0 0
          -1748.6643325450277 1748.6643325324003 0 1411.1679056171215 0 0
          -1853.4342766722111 1853.434276680111 0 -1072.9797541720436 0 0
          284.01449619560117 -284.01449620589665 0 124.1586155686091 0 0
          -1710.763431888785 1710.7634318927476 0 317.8543920626762 0 0
          1453.1395467821676 -1453.1395467914408 0 -142.41569385367075 0 0
          -941.02899482878 941.0289948446484 0 1259.057857789162 0 0
          297.6338819115212 -297.63388191253205 0 -239.5672189304762 0 0
          23632.720126474513 -23632.720126470624 0 -22910.616398667513 0 0
          -38631.29511832734 38631.295118325375 0 20515.453093111773 0 0
          <InformationKey name="L2_NORM_RANGE" location="vtkDataArray" length="2">
            <Value index="0">
              420.40912208
            </Value>
            <Value index="1">
              58357.842152
            </Value>
          </InformationKey>
        </DataArray>
        <DataArray type="Float64" Name="Press" format="ascii" RangeMin="-47044.10393370908" RangeMax="35744.434190264146">
          -26295.757073082805 17063.461662842165 -10737.514791958369 5047.192452458436 -2472.9127485010104 -691.1570759575225
          149.22388318180128 -1956.789133347691 1315.0212575345522 -342.9932963755846 638.4218802633904 35744.434190264146
          -47044.10393370908
        </DataArray>
        <DataArray type="Float64" Name="Dev strain" NumberOfComponents="6" format="ascii" RangeMin="0" RangeMax="0">
          0 0 0 0 0 0
          0 0 0 0 0 0
          0 0 0 0 0 0
          0 0 0 0 0 0
          0 0 0 0 0 0
          0 0 0 0 0 0
          0 0 0 0 0 0
          0 0 0 0 0 0
          0 0 0 0 0 0
          0 0 0 0 0 0
          0 0 0 0 0 0
          0 0 0 0 0 0
          0 0 0 0 0 0
          <InformationKey name="L2_NORM_RANGE" location="vtkDataArray" length="2">
            <Value index="0">
              0
            </Value>
            <Value index="1">
              0
            </Value>
          </InformationKey>
        </DataArray>
        <DataArray type="Float64" Name="J2 Stresses" format="ascii" RangeMin="84518.07450714362" RangeMax="1597597916.4231431">
          521259795.0535655 126146149.03327152 92615585.39259562 8513770.797595577 3555675.6623540195 3723040.006173859
          84518.07450714362 2951969.373533056 2116685.0998997143 1281842.241438555 102934.04075854286 689729546.5179048
          1597597916.4231431
        </DataArray>
      </PointData>
      <CellData>
        <DataArray type="UInt8" Name="vtkGhostType" format="ascii" RangeMin="0" RangeMax="1">
          1 1 0 0 0 0
          0 0 0 0 0
        </DataArray>
        <DataArray type="Float64" Name="Gauss Stress" NumberOfComponents="6" format="ascii" RangeMin="253.05920442560807" RangeMax="25081.53971885726">
          -24901.361446717656 -162.2564309660106 0 2996.5823231054424 0 0
          12318.961602935728 5355.797583749407 0 -8390.021561036396 0 0
          -14146.019597176813 832.8127957122811 0 945.4893409069628 0 0
          -5967.2701448962525 525.1134195597721 0 424.35581344704315 0 0
          4101.778914427005 3480.3139678034922 0 -4594.153008196576 0 0
          -2110.9766847661226 101.07939057662767 0 154.11558900456237 0 0
          -142.87083457318113 1398.2859199065842 0 -1631.9428736644886 0 0
          -155.3844605141172 -172.97820124530904 0 99.86577125920482 0 0
          -1926.3018461629363 260.48696208118315 0 -210.32224884691936 0 0
          806.7314250957556 266.90180252101123 0 292.35831500167166 0 0
          -727.8046840413735 71.29723591907732 0 478.1655186660559 0 0
          <InformationKey name="L2_NORM_RANGE" location="vtkDataArray" length="2">
            <Value index="0">
              253.05920443
            </Value>
            <Value index="1">
              25081.539719
            </Value>
          </InformationKey>
        </DataArray>
        <DataArray type="Float64" Name="Gauss Strain" NumberOfComponents="6" format="ascii" RangeMin="0" RangeMax="0">
          0 0 0 0 0 0
          0 0 0 0 0 0
          0 0 0 0 0 0
          0 0 0 0 0 0
          0 0 0 0 0 0
          0 0 0 0 0 0
          0 0 0 0 0 0
          0 0 0 0 0 0
          0 0 0 0 0 0
          0 0 0 0 0 0
          0 0 0 0 0 0
          <InformationKey name="L2_NORM_RANGE" location="vtkDataArray" length="2">
            <Value index="0">
              0
            </Value>
            <Value index="1">
              0
            </Value>
          </InformationKey>
        </DataArray>
      </CellData>
      <Points>
        <DataArray type="Float32" Name="Points" NumberOfComponents="3" format="ascii" RangeMin="0.4000000059604645" RangeMax="1.0012492197622458">
          0.5 0 0 0.6000000238418579 0.05000000074505806 0
          0.6000000238418579 0 0 0.699999988079071 0.05000000074505806 0
          0.699999988079071 0 0 0.800000011920929 0.05000000074505806 0
          0.800000011920929 0 0 0.8999999761581421 0.05000000074505806 0
          0.8999999761581421 0 0 1 0.05000000074505806 0
          1 0 0 0.5 0.05000000074505806 0
          0.4000000059604645 0 0
          <InformationKey name="L2_NORM_RANGE" location="vtkDataArray" length="2">
            <Value index="0">
              0.40000000596
            </Value>
            <Value index="1">
              1.0012492198
            </Value>
          </InformationKey>
        </DataArray>
      </Points>
      <Cells>
        <DataArray type="Int64" Name="connectivity" format="ascii" RangeMin="0" RangeMax="12">
          0 11 12 1 11 0
          2 1 0 4 3 2
          3 1 2 6 5 4
          5 3 4 8 7 6
          7 5 6 10 9 8
          9 7 8
        </DataArray>
        <DataArray type="Int64" Name="offsets" format="ascii" RangeMin="3" RangeMax="33">
          3 6 9 12 15 18
          21 24 27 30 33
        </DataArray>
        <DataArray type="UInt8" Name="types" format="ascii" RangeMin="5" RangeMax="5">
          5 5 5 5 5 5
          5 5 5 5 5
        </DataArray>
      </Cells>
    </Piece>
  </UnstructuredGrid>
</VTKFile>
