<?xml version="1.0"?>
<VTKFile type="UnstructuredGrid" version="0.1" byte_order="LittleEndian" header_type="UInt32" compressor="vtkZLibDataCompressor">
  <UnstructuredGrid>
    <Piece NumberOfPoints="13" NumberOfCells="11">
      <PointData>
        <DataArray type="Float64" Name="Disp" NumberOfComponents="3" format="ascii" RangeMin="0.0008718209895862735" RangeMax="0.013416789996096568">
          0.00003320109322650991 0.0012077694548100239 0 0.0002632244497252724 0.0008452394160268564 0
          -0.00020271912024627265 0.0008479249944244871 0 0.0006111116125651918 -0.000770034238830819 0
          -0.0005933496714220828 -0.0007547125701796234 0 0.0009383966319757089 -0.004004698453087138 0
          -0.001048000067650148 -0.003955952448126021 0 0.001060828634349616 -0.00857974908222403 0
          -0.0013282765293110687 -0.008516430443850712 0 0.0008739046301089147 -0.013388298790243336 0
          -0.0014697274463336008 -0.013302189445570836 0 0.000035177434430096015 0.0012053244451819128 0
          0.00011764297410003484 0.0009553741713875033 0
          <InformationKey name="L2_NORM_RANGE" location="vtkDataArray" length="2">
            <Value index="0">
              0.00087182098959
            </Value>
            <Value index="1">
              0.013416789996
            </Value>
          </InformationKey>
        </DataArray>
        <DataArray type="Float64" Name="Nodal Stress" NumberOfComponents="6" format="ascii" RangeMin="6419.154286381465" RangeMax="20060.057638942442">
          -11446.589507867799 -1744.697334558267 0 3082.3952133248754 0 0
          18187.705468662356 -230.91816370943 0 885.2008115052967 0 0
          -16369.36906885959 -1839.016777952267 0 2945.015890477903 0 0
          19972.798447879595 598.4714407602386 0 -1770.6119204009271 0 0
          -17986.193469535378 -980.1252572202993 0 1614.5506199683107 0 0
          16497.153844626995 1792.9764972769553 0 -4343.718294544462 0 0
          -15468.85181624312 417.6281105200704 0 -177.32025812377742 0 0
          9498.034736989324 2477.7961483659114 0 -4500.083863531747 0 0
          -11153.56293761741 284.0075816595382 0 -1509.308028442193 0 0
          4635.178927982049 -337.91238866704975 0 -5736.3546431601635 0 0
          -7021.444646377423 -1653.9653100341457 0 -1947.31888515423 0 0
          13007.379201261665 -381.1348197859193 0 1971.2480858943013 0 0
          -5931.78694392274 -1144.4750969564757 0 2170.166389179347 0 0
          <InformationKey name="L2_NORM_RANGE" location="vtkDataArray" length="2">
            <Value index="0">
              6419.1542864
            </Value>
            <Value index="1">
              20060.057639
            </Value>
          </InformationKey>
        </DataArray>
        <DataArray type="Float64" Name="Nodal Strain" NumberOfComponents="6" format="ascii" RangeMin="0" RangeMax="0">
          0 0 0 0 0 0
          0 0 0 0 0 0
          0 0 0 0 0 0
          0 0 0 0 0 0
          0 0 0 0 0 0
          0 0 0 0 0 0
          0 0 0 0 0 0
          0 0 0 0 0 0
          0 0 0 0 0 0
          0 0 0 0 0 0
          0 0 0 0 0 0
          0 0 0 0 0 0
          0 0 0 0 0 0
          <InformationKey name="L2_NORM_RANGE" location="vtkDataArray" length="2">
            <Value index="0">
              0
            </Value>
            <Value index="1">
              0
            </Value>
          </InformationKey>
        </DataArray>
        <DataArray type="Float64" Name="Sld_traction" NumberOfComponents="3" format="ascii" RangeMin="145.92017805911465" RangeMax="7902.3257232784035">
          -4466.511655371429 3100.857362893782 0 -993.7135676500147 1445.3518958157135 0
          -5643.6808273388515 3653.2052544968774 0 -4546.183816076666 2533.298885181474 0
          -5022.234244861792 2943.1495802875243 0 -7062.510358086323 3545.0951015044616 0
          -2524.035584674591 1453.5563036242113 0 -7028.245264406131 3395.9472790896643 0
          -986.9260333569097 586.837155400846 0 -2460.9069744388885 -2110.6056551696997 0
          136.60389735097093 51.303738590176025 0 1191.83297059572 714.2299822540889 0
          -2485.501760052297 1959.3093109088616 0
          <InformationKey name="L2_NORM_RANGE" location="vtkDataArray" length="2">
            <Value index="0">
              145.92017806
            </Value>
            <Value index="1">
              7902.3257233
            </Value>
          </InformationKey>
        </DataArray>
        <DataArray type="Float64" Name="Velocity" NumberOfComponents="3" format="ascii" RangeMin="0.40810666528132106" RangeMax="7.620915694119648">
          -0.07739398268417211 1.1090697182692193 0 0.39541363675299324 0.20262038411371358 0
          -0.35585256825841793 0.19979989967697237 0 0.6154766154236424 -1.8694146090905972 0
          -0.5846318227080254 -1.8488277618212006 0 0.48806451679907203 -4.356587785910388 0
          -0.5559602402052491 -4.284741256464053 0 0.13629809612160732 -6.03937424414508 0
          -0.6253775467836251 -5.954982544531779 0 0.024327878051625618 -7.620876863670523 0
          -0.7795080559966049 -7.535153473264638 0 0.1280161613818028 1.110389683486174 0
          0.08465881096672653 1.126998940864918 0
          <InformationKey name="L2_NORM_RANGE" location="vtkDataArray" length="2">
            <Value index="0">
              0.40810666528
            </Value>
            <Value index="1">
              7.6209156941
            </Value>
          </InformationKey>
        </DataArray>
        <DataArray type="Float64" Name="Acceleration" NumberOfComponents="3" format="ascii" RangeMin="450.8830766882204" RangeMax="3119.7417459524754">
          -340.0392770309402 354.385668477689 0 462.4016018245657 -1323.0829565003821 0
          -519.4255540791787 -1339.6440720204735 0 230.57642621174085 -3111.209262186332 0
          -144.76295770874555 -3085.8453757194593 0 -668.7503855904376 -2386.713324832701 0
          491.55637977277985 -2246.7464765001396 0 -576.9702296063157 226.30853263549716 0
          -585.3917823201368 220.7452144795093 0 550.5200368391697 -2666.370688804822 0
          -1123.3741550344746 -2511.7089794142703 0 257.5264589852987 370.10224501660207 0
          -72.63053389439634 1034.892169285401 0
          <InformationKey name="L2_NORM_RANGE" location="vtkDataArray" length="2">
            <Value index="0">
              450.88307669
            </Value>
            <Value index="1">
              3119.741746
            </Value>
          </InformationKey>
        </DataArray>
        <DataArray type="Float64" Name="Sigma" NumberOfComponents="6" format="ascii" RangeMin="3785.169258958683" RangeMax="40652.668688336315">
          -17971.15339699246 17971.153396992377 0 4595.789584680204 0 0
          25137.622303414813 -25137.62230341458 0 -1122.5278320161415 0 0
          -24976.20382958362 24976.203829585444 0 6391.488515078739 0 0
          28420.38602067007 -28420.38602066956 0 -6099.408852984941 0 0
          -26692.519006060393 26692.51900606006 0 6879.048563940434 0 0
          23673.314875030737 -23673.31487503103 0 -10007.912981267973 0 0
          -21348.32701187973 21348.327011879002 0 3990.9408795137424 0 0
          13623.947387442786 -13623.947387438058 0 -7662.767014453576 0 0
          -15268.305021301223 15268.305021306045 0 2437.5242955914064 0 0
          9867.972244031207 -9867.97224403643 0 -10854.142157243348 0 0
          -2667.3129477088683 2667.3129477078705 0 313.67116051751066 0 0
          17001.93860509315 -17001.938605094092 0 1513.7256064068497 0 0
          -9791.780976262104 9791.780976261703 0 2251.8815380212964 0 0
          <InformationKey name="L2_NORM_RANGE" location="vtkDataArray" length="2">
            <Value index="0">
              3785.169259
            </Value>
            <Value index="1">
              40652.668688
            </Value>
          </InformationKey>
        </DataArray>
        <DataArray type="Float64" Name="Press" format="ascii" RangeMin="-29935.7280296392" RangeMax="31138.788425363884">
          -21156.685574554675 26491.408795288866 -28943.918352042885 31138.788425363884 -29935.7280296392 27581.2561231176
          -22966.52096842649 18669.66052353551 -15237.752769143275 8585.93671170095 -5349.5019276898065 17676.895462740278
          -11715.958010009868
        </DataArray>
        <DataArray type="Float64" Name="Dev strain" NumberOfComponents="6" format="ascii" RangeMin="0" RangeMax="0">
          0 0 0 0 0 0
          0 0 0 0 0 0
          0 0 0 0 0 0
          0 0 0 0 0 0
          0 0 0 0 0 0
          0 0 0 0 0 0
          0 0 0 0 0 0
          0 0 0 0 0 0
          0 0 0 0 0 0
          0 0 0 0 0 0
          0 0 0 0 0 0
          0 0 0 0 0 0
          0 0 0 0 0 0
          <InformationKey name="L2_NORM_RANGE" location="vtkDataArray" length="2">
            <Value index="0">
              0
            </Value>
            <Value index="1">
              0
            </Value>
          </InformationKey>
        </DataArray>
        <DataArray type="Float64" Name="J2 Stresses" format="ascii" RangeMin="7139155.76024781" RangeMax="817019038.652852">
          328242674.8948959 632215072.2525446 634023539.096549 817019038.652852 724320898.1751491 585465417.7325165
          459732968.48208165 200291441.99519414 234606519.39646536 126829976.70143366 7139155.76024781 289638757.6342458
          97146717.30240482
        </DataArray>
      </PointData>
      <CellData>
        <DataArray type="UInt8" Name="vtkGhostType" format="ascii" RangeMin="0" RangeMax="1">
          1 1 0 0 0 0
          0 0 0 0 0
        </DataArray>
        <DataArray type="Float64" Name="Gauss Stress" NumberOfComponents="6" format="ascii" RangeMin="7332.536525570946" RangeMax="19091.39984141207">
          -8652.247963328566 -1478.2507845547598 0 2787.132243036117 0 0
          15726.675398329997 -385.59627601394345 0 1662.3291196903035 0 0
          -13806.31001815666 -1933.153402715151 0 3288.2500892476014 0 0
          -16996.398257097386 -1497.5070471140866 0 2390.3760753447436 0 0
          19089.361121037044 34.824791370388766 0 -276.81605664078234 0 0
          -16562.841339285827 -317.82057734668615 0 287.35882072873414 0 0
          18061.832802827565 1127.7115430672527 0 -3076.091090104162 0 0
          -14175.765953257474 1152.6904772375788 0 -411.43394644947534 0 0
          13077.77697627347 2445.153475878844 0 -4559.913038735936 0 0
          -6689.654570037004 -1311.224086718216 0 -2700.9822337114765 0 0
          6747.153025421985 1264.7432853082462 0 -5359.794958701841 0 0
          <InformationKey name="L2_NORM_RANGE" location="vtkDataArray" length="2">
            <Value index="0">
              7332.5365256
            </Value>
            <Value index="1">
              19091.399841
            </Value>
          </InformationKey>
        </DataArray>
        <DataArray type="Float64" Name="Gauss Strain" NumberOfComponents="6" format="ascii" RangeMin="0" RangeMax="0">
          0 0 0 0 0 0
          0 0 0 0 0 0
          0 0 0 0 0 0
          0 0 0 0 0 0
          0 0 0 0 0 0
          0 0 0 0 0 0
          0 0 0 0 0 0
          0 0 0 0 0 0
          0 0 0 0 0 0
          0 0 0 0 0 0
          0 0 0 0 0 0
          <InformationKey name="L2_NORM_RANGE" location="vtkDataArray" length="2">
            <Value index="0">
              0
            </Value>
            <Value index="1">
              0
            </Value>
          </InformationKey>
        </DataArray>
      </CellData>
      <Points>
        <DataArray type="Float32" Name="Points" NumberOfComponents="3" format="ascii" RangeMin="0.4000000059604645" RangeMax="1.0012492197622458">
          0.5 0 0 0.6000000238418579 0.05000000074505806 0
          0.6000000238418579 0 0 0.699999988079071 0.05000000074505806 0
          0.699999988079071 0 0 0.800000011920929 0.05000000074505806 0
          0.800000011920929 0 0 0.8999999761581421 0.05000000074505806 0
          0.8999999761581421 0 0 1 0.05000000074505806 0
          1 0 0 0.5 0.05000000074505806 0
          0.4000000059604645 0 0
          <InformationKey name="L2_NORM_RANGE" location="vtkDataArray" length="2">
            <Value index="0">
              0.40000000596
            </Value>
            <Value index="1">
              1.0012492198
            </Value>
          </InformationKey>
        </DataArray>
      </Points>
      <Cells>
        <DataArray type="Int64" Name="connectivity" format="ascii" RangeMin="0" RangeMax="12">
          0 11 12 1 11 0
          2 1 0 4 3 2
          3 1 2 6 5 4
          5 3 4 8 7 6
          7 5 6 10 9 8
          9 7 8
        </DataArray>
        <DataArray type="Int64" Name="offsets" format="ascii" RangeMin="3" RangeMax="33">
          3 6 9 12 15 18
          21 24 27 30 33
        </DataArray>
        <DataArray type="UInt8" Name="types" format="ascii" RangeMin="5" RangeMax="5">
          5 5 5 5 5 5
          5 5 5 5 5
        </DataArray>
      </Cells>
    </Piece>
  </UnstructuredGrid>
</VTKFile>
