<?xml version="1.0"?>
<VTKFile type="UnstructuredGrid" version="0.1" byte_order="LittleEndian" header_type="UInt32" compressor="vtkZLibDataCompressor">
  <UnstructuredGrid>
    <Piece NumberOfPoints="13" NumberOfCells="11">
      <PointData>
        <DataArray type="Float64" Name="Disp" NumberOfComponents="3" format="ascii" RangeMin="0.028437611972112854" RangeMax="0.10587355615137943">
          -0.006022475274804895 -0.04068740064587441 0 -0.00043978283832685444 -0.054657939870906794 0
          -0.007184469124226767 -0.05413722110110679 0 -0.0015077614476861343 -0.06804024319295329 0
          -0.00806482549520919 -0.06759035669018469 0 -0.0024796941593308295 -0.08081779787863604 0
          -0.008764948131941463 -0.0804341548311849 0 -0.0032654302505310583 -0.09324530550215164 0
          -0.009489101090656822 -0.09287949088697345 0 -0.0039641534643952295 -0.10574650299304994 0
          -0.010232381181506621 -0.10537793064724531 0 0.0005285984565284547 -0.0412076962619853 0
          -0.004744487807224338 -0.02803903725386369 0
          <InformationKey name="L2_NORM_RANGE" location="vtkDataArray" length="2">
            <Value index="0">
              0.028437611972
            </Value>
            <Value index="1">
              0.10587355615
            </Value>
          </InformationKey>
        </DataArray>
        <DataArray type="Float64" Name="Nodal Stress" NumberOfComponents="6" format="ascii" RangeMin="1253.764622271077" RangeMax="27977.501198447404">
          -14508.835193359035 1657.002515621207 0 -764.2416740538631 0 0
          1045.2545181461733 3457.374590654735 0 -4565.886495901196 0 0
          -3652.8590557491284 1947.9412249871818 0 -2295.7848166650783 0 0
          -3981.1750506276503 1077.9444707711239 0 -1014.5328355328521 0 0
          3242.7788017099997 553.2892148432278 0 -1886.4612043373247 0 0
          -3380.667821078384 -860.5369467412823 0 1464.25356049185 0 0
          4744.417314367166 -465.3976848670524 0 -634.7289695283166 0 0
          -1228.9033947441142 -922.6117463358798 0 1695.1008479315767 0 0
          2510.9508732539925 -417.5060081030356 0 -4.868073692204439 0 0
          -580.0228473950606 -929.5223815149941 0 1173.5222793393373 0 0
          807.3412327551086 -551.4779464702124 0 -784.8553602473488 0 0
          11280.141237763131 4795.965786412257 0 -7853.2785194165945 0 0
          -27934.639443293872 444.60817179695863 0 1482.8405362234641 0 0
          <InformationKey name="L2_NORM_RANGE" location="vtkDataArray" length="2">
            <Value index="0">
              1253.7646223
            </Value>
            <Value index="1">
              27977.501198
            </Value>
          </InformationKey>
        </DataArray>
        <DataArray type="Float64" Name="Nodal Strain" NumberOfComponents="6" format="ascii" RangeMin="0" RangeMax="0">
          0 0 0 0 0 0
          0 0 0 0 0 0
          0 0 0 0 0 0
          0 0 0 0 0 0
          0 0 0 0 0 0
          0 0 0 0 0 0
          0 0 0 0 0 0
          0 0 0 0 0 0
          0 0 0 0 0 0
          0 0 0 0 0 0
          0 0 0 0 0 0
          0 0 0 0 0 0
          0 0 0 0 0 0
          <InformationKey name="L2_NORM_RANGE" location="vtkDataArray" length="2">
            <Value index="0">
              0
            </Value>
            <Value index="1">
              0
            </Value>
          </InformationKey>
        </DataArray>
        <DataArray type="Float64" Name="Sld_traction" NumberOfComponents="3" format="ascii" RangeMin="372.14062036469227" RangeMax="12073.31280969874">
          -165.99437574263735 333.0683241427052 0 -5822.9896146389065 3815.2063304349826 0
          2373.1681756132593 -1155.9742636440876 0 -892.0600327360268 885.1529365857318 0
          2723.2740454759387 -614.2706773194341 0 2502.7749413201445 -945.6930462542693 0
          1561.6150003617515 193.70722166275837 0 2774.0527527942427 -989.0884578812289 0
          923.5975965224123 168.76498897670965 0 1029.4589051668293 -339.5366953063311 0
          851.8564033711131 128.04123592056916 0 -10271.72129343064 6344.810782909074 0
          -3573.638670973925 2867.2821370894208 0
          <InformationKey name="L2_NORM_RANGE" location="vtkDataArray" length="2">
            <Value index="0">
              372.14062036
            </Value>
            <Value index="1">
              12073.31281
            </Value>
          </InformationKey>
        </DataArray>
        <DataArray type="Float64" Name="Velocity" NumberOfComponents="3" format="ascii" RangeMin="6.703291528622531" RangeMax="10.251922521117166">
          -0.9974265526604307 -7.795608129619841 0 -0.562874134051679 -8.561362492608495 0
          -0.7806354149975486 -8.611739380818713 0 -0.5728777360571139 -8.673645296186836 0
          -0.6168178070694358 -8.67418764839842 0 -0.5812484542518114 -9.035260807536451 0
          -0.8969487649854478 -8.875081356025328 0 -1.0117788982296587 -9.916975089893254 0
          -1.317133678124153 -9.701790619731616 0 -1.5070560952809304 -10.140547189607963 0
          -1.6128358205592248 -10.024805710251968 0 -0.5278376996467511 -7.810893769204976 0
          -1.0520729518508112 -6.6202159950930985 0
          <InformationKey name="L2_NORM_RANGE" location="vtkDataArray" length="2">
            <Value index="0">
              6.7032915286
            </Value>
            <Value index="1">
              10.251922521
            </Value>
          </InformationKey>
        </DataArray>
        <DataArray type="Float64" Name="Acceleration" NumberOfComponents="3" format="ascii" RangeMin="281.2203643990371" RangeMax="4655.626599895409">
          1.7601050725288587 545.1509009770507 0 197.44628619796913 1128.369642800365 0
          1495.5388456645744 698.9920359099315 0 823.5380956745678 4518.922156275271 0
          750.0703046810213 4594.807240319163 0 997.2625430400867 662.0541648750332 0
          -669.3968271051028 667.5185931367641 0 -191.73591349559115 -1016.0454044162884 0
          -682.4338764457561 -1327.186956378489 0 -262.6997908793305 100.367889410325 0
          -349.0747810484818 -1336.6055935042968 0 143.6002239245895 689.6711470796567 0
          -222.11621301584728 967.9765598197741 0
          <InformationKey name="L2_NORM_RANGE" location="vtkDataArray" length="2">
            <Value index="0">
              281.2203644
            </Value>
            <Value index="1">
              4655.6265999
            </Value>
          </InformationKey>
        </DataArray>
        <DataArray type="Float64" Name="Sigma" NumberOfComponents="6" format="ascii" RangeMin="2306.782208663619" RangeMax="49774.347495739035">
          -16463.891500244834 16463.891500245845 0 4565.647756693199 0 0
          2008.5008064950634 -2008.5008064920585 0 -7294.88504271455 0 0
          -2625.962814925817 2625.962814909759 0 -2385.90247768293 0 0
          -5535.532844577472 5535.532844591682 0 751.9338439040857 0 0
          5644.443727487913 -5644.443727504342 0 -4713.618367295092 0 0
          -5192.359003860336 5192.359003871628 0 4806.326101637682 0 0
          6332.068631511105 -6332.06863151092 0 -3079.598550815921 0 0
          -2403.827153289547 2403.827153255369 0 3572.7111245366887 0 0
          2808.495644616716 -2808.4956446228534 0 -1177.748243807543 0 0
          -505.4942608188321 505.49426083116623 0 2614.47463602071 0 0
          207.31848732550705 -207.31848733034929 0 -2288.0739166012804 0 0
          17177.476961502714 -17177.47696150344 0 -16123.358931657274 0 0
          -34031.345839180634 34031.34583917998 0 12697.27015443846 0 0
          <InformationKey name="L2_NORM_RANGE" location="vtkDataArray" length="2">
            <Value index="0">
              2306.7822087
            </Value>
            <Value index="1">
              49774.347496
            </Value>
          </InformationKey>
        </DataArray>
        <DataArray type="Float64" Name="Press" format="ascii" RangeMin="-38606.92565606744" RangeMax="25761.991628839685">
          -17242.522489275823 7001.714271294415 -668.9856264547707 -4952.013432991538 6909.1286161881835 -7190.783580662985
          6257.111806232184 -3700.951278803266 2998.0306578370673 -2025.5612703035495 -230.3714074809909 25761.991628839685
          -38606.92565606744
        </DataArray>
        <DataArray type="Float64" Name="Dev strain" NumberOfComponents="6" format="ascii" RangeMin="0" RangeMax="0">
          0 0 0 0 0 0
          0 0 0 0 0 0
          0 0 0 0 0 0
          0 0 0 0 0 0
          0 0 0 0 0 0
          0 0 0 0 0 0
          0 0 0 0 0 0
          0 0 0 0 0 0
          0 0 0 0 0 0
          0 0 0 0 0 0
          0 0 0 0 0 0
          0 0 0 0 0 0
          0 0 0 0 0 0
          <InformationKey name="L2_NORM_RANGE" location="vtkDataArray" length="2">
            <Value index="0">
              0
            </Value>
            <Value index="1">
              0
            </Value>
          </InformationKey>
        </DataArray>
        <DataArray type="Float64" Name="J2 Stresses" format="ascii" RangeMin="1351801.5171457212" RangeMax="1198437666.9695933">
          276271008.1914002 17337912.4362904 8318813.363584338 30783474.999876708 37414294.520995796 32735784.673849054
          42466074.962712616 8969451.177657021 8234420.517296239 1964393.8533259183 1351801.5171457212 360056390.572732
          1198437666.9695933
        </DataArray>
      </PointData>
      <CellData>
        <DataArray type="UInt8" Name="vtkGhostType" format="ascii" RangeMin="0" RangeMax="1">
          1 1 0 0 0 0
          0 0 0 0 0
        </DataArray>
        <DataArray type="Float64" Name="Gauss Stress" NumberOfComponents="6" format="ascii" RangeMin="1266.2114595203977" RangeMax="21165.8923405192">
          -21135.07229814211 1076.7679538062698 0 379.8529931581288 0 0
          6081.089892870408 4266.365714369542 0 -6284.198739226209 0 0
          -9330.382451037254 2057.186554742455 0 -1705.046587901427 0 0
          -409.6407917578317 1268.393829579658 0 -2115.8623336913124 0 0
          -1590.7598803867074 2511.2366882858296 0 -2976.284558831131 0 0
          4253.203398965356 -269.5655044620835 0 -995.6302721577772 0 0
          -3439.0388394720794 -50.073425502456814 0 281.5471927488927 0 0
          4096.97610270142 -394.1819792041394 0 -228.21189002892504 0 0
          -1966.2468596242825 -1123.5018425393298 0 1766.4795584528167 0 0
          1084.139283725306 -589.4072970231697 0 -283.78250812937165 0 0
          -943.1025535871377 -875.8853739353555 0 1669.8125055832852 0 0
          <InformationKey name="L2_NORM_RANGE" location="vtkDataArray" length="2">
            <Value index="0">
              1266.2114595
            </Value>
            <Value index="1">
              21165.892341
            </Value>
          </InformationKey>
        </DataArray>
        <DataArray type="Float64" Name="Gauss Strain" NumberOfComponents="6" format="ascii" RangeMin="0" RangeMax="0">
          0 0 0 0 0 0
          0 0 0 0 0 0
          0 0 0 0 0 0
          0 0 0 0 0 0
          0 0 0 0 0 0
          0 0 0 0 0 0
          0 0 0 0 0 0
          0 0 0 0 0 0
          0 0 0 0 0 0
          0 0 0 0 0 0
          0 0 0 0 0 0
          <InformationKey name="L2_NORM_RANGE" location="vtkDataArray" length="2">
            <Value index="0">
              0
            </Value>
            <Value index="1">
              0
            </Value>
          </InformationKey>
        </DataArray>
      </CellData>
      <Points>
        <DataArray type="Float32" Name="Points" NumberOfComponents="3" format="ascii" RangeMin="0.4000000059604645" RangeMax="1.0012492197622458">
          0.5 0 0 0.6000000238418579 0.05000000074505806 0
          0.6000000238418579 0 0 0.699999988079071 0.05000000074505806 0
          0.699999988079071 0 0 0.800000011920929 0.05000000074505806 0
          0.800000011920929 0 0 0.8999999761581421 0.05000000074505806 0
          0.8999999761581421 0 0 1 0.05000000074505806 0
          1 0 0 0.5 0.05000000074505806 0
          0.4000000059604645 0 0
          <InformationKey name="L2_NORM_RANGE" location="vtkDataArray" length="2">
            <Value index="0">
              0.40000000596
            </Value>
            <Value index="1">
              1.0012492198
            </Value>
          </InformationKey>
        </DataArray>
      </Points>
      <Cells>
        <DataArray type="Int64" Name="connectivity" format="ascii" RangeMin="0" RangeMax="12">
          0 11 12 1 11 0
          2 1 0 4 3 2
          3 1 2 6 5 4
          5 3 4 8 7 6
          7 5 6 10 9 8
          9 7 8
        </DataArray>
        <DataArray type="Int64" Name="offsets" format="ascii" RangeMin="3" RangeMax="33">
          3 6 9 12 15 18
          21 24 27 30 33
        </DataArray>
        <DataArray type="UInt8" Name="types" format="ascii" RangeMin="5" RangeMax="5">
          5 5 5 5 5 5
          5 5 5 5 5
        </DataArray>
      </Cells>
    </Piece>
  </UnstructuredGrid>
</VTKFile>
