<?xml version="1.0"?>
<VTKFile type="UnstructuredGrid" version="0.1" byte_order="LittleEndian" header_type="UInt32" compressor="vtkZLibDataCompressor">
  <UnstructuredGrid>
    <Piece NumberOfPoints="13" NumberOfCells="11">
      <PointData>
        <DataArray type="Float64" Name="Disp" NumberOfComponents="3" format="ascii" RangeMin="0" RangeMax="0.017236385214229544">
          0 0 0 0 0 0
          0.00009688031737901205 -0.00011176349752877357 0 -0.00004781999617150363 -0.00011545010718535826 0
          0.00025328308726805973 -0.000608740285791198 0 -0.00016074026564740765 -0.0006182493368961242 0
          0.0005213578291109232 -0.0018541480012907764 0 -0.0004235235379633645 -0.001842851615329372 0
          0.0009373748498039348 -0.004561793762737911 0 -0.0009603494691635796 -0.004515011329248881 0
          0.0013979951051887836 -0.009582481008969117 0 -0.0017415927190513503 -0.009467438228769672 0
          0.001671929620710113 -0.01715510497189402 0
          <InformationKey name="L2_NORM_RANGE" location="vtkDataArray" length="2">
            <Value index="0">
              0
            </Value>
            <Value index="1">
              0.017236385214
            </Value>
          </InformationKey>
        </DataArray>
        <DataArray type="Float64" Name="Nodal Stress" NumberOfComponents="6" format="ascii" RangeMin="8732.839973551303" RangeMax="40033.30014385935">
          14621.835228707725 724.7856223231153 0 -1184.3296762458297 0 0
          -8435.9715901577 -313.60991229459046 0 2235.738391811141 0 0
          14453.511514800497 448.72193792030873 0 1071.078324077814 0 0
          -13306.1470103083 -1554.119521258125 0 2326.953955583804 0 0
          19724.69629042807 -199.6245500631611 0 1302.8971988871008 0 0
          -19351.746255992068 -2463.5978205859974 0 3944.005104841066 0 0
          28614.511803239813 -205.81117384768802 0 1331.4225847086607 0 0
          -27159.68998567417 -3415.4014172308193 0 5851.549033081816 0 0
          36177.60172602915 395.7481148206558 0 -991.5047829739277 0 0
          -34724.470265164986 -3487.677165295036 0 6098.275523431797 0 0
          39713.552127354815 1720.3167960785452 0 -4747.568636400219 0 0
          -38960.463359916095 -2964.9940878751163 0 5593.538443734526 0 0
          38505.42912843349 2754.719300225627 0 -7637.891726702913 0 0
          <InformationKey name="L2_NORM_RANGE" location="vtkDataArray" length="2">
            <Value index="0">
              8732.8399736
            </Value>
            <Value index="1">
              40033.300144
            </Value>
          </InformationKey>
        </DataArray>
        <DataArray type="Float64" Name="Nodal Strain" NumberOfComponents="6" format="ascii" RangeMin="0" RangeMax="0">
          0 0 0 0 0 0
          0 0 0 0 0 0
          0 0 0 0 0 0
          0 0 0 0 0 0
          0 0 0 0 0 0
          0 0 0 0 0 0
          0 0 0 0 0 0
          0 0 0 0 0 0
          0 0 0 0 0 0
          0 0 0 0 0 0
          0 0 0 0 0 0
          0 0 0 0 0 0
          0 0 0 0 0 0
          <InformationKey name="L2_NORM_RANGE" location="vtkDataArray" length="2">
            <Value index="0">
              0
            </Value>
            <Value index="1">
              0
            </Value>
          </InformationKey>
        </DataArray>
        <DataArray type="Float64" Name="Sld_traction" NumberOfComponents="3" format="ascii" RangeMin="1728.4350015634122" RangeMax="13079.167773189103">
          -4060.0129400872825 1448.0933660985224 0 1818.8605397594952 674.2700352027846 0
          -392.08462472566015 1698.3989582809502 0 -3487.6181703106545 3127.5951101640458 0
          197.44174984851864 1717.1209363484763 0 -5914.738821002125 4673.428166602723 0
          -940.5719792234008 2536.655596717835 0 -9410.941106004948 6527.961142870057 0
          -4155.013723794579 4046.552006949249 0 -10802.571720355896 7373.538761395065 0
          -7905.944563151386 5626.910044780304 0 -10167.47605424633 7102.342670642169 0
          -10398.358252464457 6378.115868251908 0
          <InformationKey name="L2_NORM_RANGE" location="vtkDataArray" length="2">
            <Value index="0">
              1728.4350016
            </Value>
            <Value index="1">
              13079.167773
            </Value>
          </InformationKey>
        </DataArray>
        <DataArray type="Float64" Name="Velocity" NumberOfComponents="3" format="ascii" RangeMin="0" RangeMax="7.115699936227077">
          0 0 0 0 0 0
          0.24540932285949188 -0.5803303668214891 0 -0.3317202849379942 -0.5666674846082371 0
          0.41198829663362724 -2.156446423321401 0 -0.3806837688492366 -2.1305267346712045 0
          0.35145075490170635 -3.678754524904952 0 -0.41164894201726543 -3.644202521094441 0
          0.2933565272193491 -5.234595669307552 0 -0.4248707044230917 -5.188017606836299 0
          0.1417761395122418 -6.4578262324615725 0 -0.3118273119851806 -6.424354066581385 0
          0.020512061199253417 -7.115670371635225 0
          <InformationKey name="L2_NORM_RANGE" location="vtkDataArray" length="2">
            <Value index="0">
              0
            </Value>
            <Value index="1">
              7.1156999362
            </Value>
          </InformationKey>
        </DataArray>
        <DataArray type="Float64" Name="Acceleration" NumberOfComponents="3" format="ascii" RangeMin="0" RangeMax="2825.2655999510093">
          0 0 0 0 0 0
          -206.28108935782626 622.3866135405531 0 441.69464044587204 757.3801986911 0
          -110.26537665460938 1976.0580438265124 0 -110.05882050184863 2058.1681559351928 0
          559.423899202357 307.46828065459886 0 -941.7334639670148 427.02161447616027 0
          16.444344936146365 -2825.217742721109 0 -702.020056355989 -2620.594033350258 0
          -791.5524413846953 -2257.0123475503765 0 -86.51380124902516 -2340.169046298992 0
          -308.0786711808246 -1027.7491427310879 0
          <InformationKey name="L2_NORM_RANGE" location="vtkDataArray" length="2">
            <Value index="0">
              0
            </Value>
            <Value index="1">
              2825.2656
            </Value>
          </InformationKey>
        </DataArray>
        <DataArray type="Float64" Name="Sigma" NumberOfComponents="6" format="ascii" RangeMin="17942.122946248608" RangeMax="80750.59192851694">
          12180.086965922186 -12180.086965919989 0 -5021.02965769963 0 0
          -16010.102435211564 16010.102435213208 0 4802.338108203576 0 0
          19444.02771613981 -19444.027716139033 0 502.402502212366 0 0
          -19538.900156166077 19538.90015616612 0 2698.0652999127724 0 0
          26236.723357972645 -26236.72335797411 0 -134.98622775444528 0 0
          -28700.969219506496 28700.96921950849 0 6206.238329186848 0 0
          39040.316750448925 -39040.31675045095 0 -1856.1192445154884 0 0
          -40342.699496128495 40342.69949612842 0 11406.205718062953 0 0
          50215.017243041 -50215.017243040944 0 -7920.132706208806 0 0
          -50706.370094229766 50706.370094231745 0 15218.996658929169 0 0
          55818.38223015837 -55818.38223015721 0 -15614.894686078127 0 0
          -55705.306838874225 55705.30683887043 0 17734.025960848092 0 0
          54787.08426074337 -54787.0842607426 0 -21014.637877302095 0 0
          <InformationKey name="L2_NORM_RANGE" location="vtkDataArray" length="2">
            <Value index="0">
              17942.122946
            </Value>
            <Value index="1">
              80750.591929
            </Value>
          </InformationKey>
        </DataArray>
        <DataArray type="Float64" Name="Press" format="ascii" RangeMin="-63961.79429370557" RangeMax="63062.35372478851">
          13169.516350778853 -17018.60706589857 21372.81606639913 -22863.721364959005 27722.61833942691 -33230.18958389627
          41496.11116390706 -47313.8887658178 54488.81763311656 -58850.796561042254 62614.73780603381 -63961.79429370557
          63062.35372478851
        </DataArray>
        <DataArray type="Float64" Name="Dev strain" NumberOfComponents="6" format="ascii" RangeMin="0" RangeMax="0">
          0 0 0 0 0 0
          0 0 0 0 0 0
          0 0 0 0 0 0
          0 0 0 0 0 0
          0 0 0 0 0 0
          0 0 0 0 0 0
          0 0 0 0 0 0
          0 0 0 0 0 0
          0 0 0 0 0 0
          0 0 0 0 0 0
          0 0 0 0 0 0
          0 0 0 0 0 0
          0 0 0 0 0 0
          <InformationKey name="L2_NORM_RANGE" location="vtkDataArray" length="2">
            <Value index="0">
              0
            </Value>
            <Value index="1">
              0
            </Value>
          </InformationKey>
        </DataArray>
        <DataArray type="Float64" Name="J2 Stresses" format="ascii" RangeMin="154657203.20327556" RangeMax="3181705129.207925">
          154657203.20327556 262088992.81236964 378133315.89455545 383588508.40327597 688370207.8832467 833374982.6887834
          1525007626.637927 1660058784.8556163 2537230082.2398915 2629040432.9592233 3176648028.806322 3181705129.207925
          3112028353.0722866
        </DataArray>
      </PointData>
      <CellData>
        <DataArray type="UInt8" Name="vtkGhostType" format="ascii" RangeMin="0" RangeMax="0">
          0 0 0 0 0 0
          0 0 0 0 0
        </DataArray>
        <DataArray type="Float64" Name="Gauss Stress" NumberOfComponents="6" format="ascii" RangeMin="11064.644138317559" RangeMax="39444.265962006975">
          -11538.162413232096 -801.5124964060512 0 2667.6019701095715 0 0
          11045.912532709954 636.5710348111998 0 94.57031757210416 0 0
          -16791.47954237611 -2122.7155305759543 0 2923.105800448392 0 0
          17457.854652937807 29.954040973338124 0 1021.8271914568977 0 0
          -23017.106383664363 -3014.8717402070124 0 5252.108267578105 0 0
          24188.203602784273 -195.8436564929541 0 1405.044285638971 0 0
          -30836.640013686934 -3613.938448808092 0 6235.02322359444 0 0
          32527.891509522433 -80.53148871921576 0 543.3179224462178 0 0
          -36930.38258388655 -3201.5194485896855 0 5779.375977899713 0 0
          37859.92941902591 975.2431663805701 0 -2772.010244452591 0 0
          38871.8189630481 2271.712528362449 0 -6298.5022008440465 0 0
          <InformationKey name="L2_NORM_RANGE" location="vtkDataArray" length="2">
            <Value index="0">
              11064.644138
            </Value>
            <Value index="1">
              39444.265962
            </Value>
          </InformationKey>
        </DataArray>
        <DataArray type="Float64" Name="Gauss Strain" NumberOfComponents="6" format="ascii" RangeMin="0" RangeMax="0">
          0 0 0 0 0 0
          0 0 0 0 0 0
          0 0 0 0 0 0
          0 0 0 0 0 0
          0 0 0 0 0 0
          0 0 0 0 0 0
          0 0 0 0 0 0
          0 0 0 0 0 0
          0 0 0 0 0 0
          0 0 0 0 0 0
          0 0 0 0 0 0
          <InformationKey name="L2_NORM_RANGE" location="vtkDataArray" length="2">
            <Value index="0">
              0
            </Value>
            <Value index="1">
              0
            </Value>
          </InformationKey>
        </DataArray>
      </CellData>
      <Points>
        <DataArray type="Float32" Name="Points" NumberOfComponents="3" format="ascii" RangeMin="0" RangeMax="0.6020797527609908">
          0 0.05000000074505806 0 0 0 0
          0.10000000149011612 0.05000000074505806 0 0.10000000149011612 0 0
          0.20000000298023224 0.05000000074505806 0 0.20000000298023224 0 0
          0.30000001192092896 0.05000000074505806 0 0.30000001192092896 0 0
          0.4000000059604645 0.05000000074505806 0 0.4000000059604645 0 0
          0.5 0.05000000074505806 0 0.5 0 0
          0.6000000238418579 0.05000000074505806 0
          <InformationKey name="L2_NORM_RANGE" location="vtkDataArray" length="2">
            <Value index="0">
              0
            </Value>
            <Value index="1">
              0.60207975276
            </Value>
          </InformationKey>
        </DataArray>
      </Points>
      <Cells>
        <DataArray type="Int64" Name="connectivity" format="ascii" RangeMin="0" RangeMax="12">
          3 2 1 2 0 1
          5 4 3 4 2 3
          7 6 5 6 4 5
          9 8 7 8 6 7
          11 10 9 10 8 9
          12 10 11
        </DataArray>
        <DataArray type="Int64" Name="offsets" format="ascii" RangeMin="3" RangeMax="33">
          3 6 9 12 15 18
          21 24 27 30 33
        </DataArray>
        <DataArray type="UInt8" Name="types" format="ascii" RangeMin="5" RangeMax="5">
          5 5 5 5 5 5
          5 5 5 5 5
        </DataArray>
      </Cells>
    </Piece>
  </UnstructuredGrid>
</VTKFile>
