<?xml version="1.0"?>
<VTKFile type="UnstructuredGrid" version="0.1" byte_order="LittleEndian" header_type="UInt32" compressor="vtkZLibDataCompressor">
  <UnstructuredGrid>
    <Piece NumberOfPoints="13" NumberOfCells="11">
      <PointData>
        <DataArray type="Float64" Name="Disp" NumberOfComponents="3" format="ascii" RangeMin="0.03752861072951028" RangeMax="0.17217826177512668">
          -0.008895772746023132 -0.05535007754949686 0 -0.0009563543842609082 -0.07741735621924216 0
          -0.01181660133503159 -0.07606851750059235 0 -0.003581859868344229 -0.10005748337725845 0
          -0.015141493939967245 -0.09847643658159727 0 -0.0066967026744105835 -0.1237725915699801 0
          -0.018644251328879785 -0.12207862346101161 0 -0.010097143593841944 -0.1478199160396521 0
          -0.02206650290493469 -0.14611936094501926 0 -0.013552985155066326 -0.1716440223872961 0
          -0.025431354902271698 -0.1699576102510043 0 0.000979589559920883 -0.05640531595884359 0
          -0.006424534911183371 -0.03697461256676127 0
          <InformationKey name="L2_NORM_RANGE" location="vtkDataArray" length="2">
            <Value index="0">
              0.03752861073
            </Value>
            <Value index="1">
              0.17217826178
            </Value>
          </InformationKey>
        </DataArray>
        <DataArray type="Float64" Name="Nodal Stress" NumberOfComponents="6" format="ascii" RangeMin="1444.5113940547553" RangeMax="62164.84270917162">
          -50779.87523513409 -3653.5305847347345 0 10728.195970468763 0 0
          35885.58443685902 8832.215230528343 0 -16607.681231994695 0 0
          -38782.80522718386 -1909.7734089319808 0 8443.608190719317 0 0
          22446.740688297603 8049.651419886954 0 -12850.096509675985 0 0
          -26050.273259084235 179.71278130220145 0 5131.309534694876 0 0
          10520.929029301486 6168.389005810309 0 -8751.337177130252 0 0
          -14478.345134720834 955.2722332227196 0 2021.9367947523258 0 0
          3317.378972426603 3254.040897853835 0 -4683.6162643067155 0 0
          -5950.2928859340855 634.5319647956333 0 340.480943641405 0 0
          1040.5321489324053 2306.3633903632804 0 -2810.01265039311 0 0
          -80.91804781135578 751.1613581396633 0 1231.187252667192 0 0
          49685.65576858906 8973.545371822162 0 -19052.021194887864 0 0
          -60809.813186828 -5156.909423568151 0 11833.874024859384 0 0
          <InformationKey name="L2_NORM_RANGE" location="vtkDataArray" length="2">
            <Value index="0">
              1444.5113941
            </Value>
            <Value index="1">
              62164.842709
            </Value>
          </InformationKey>
        </DataArray>
        <DataArray type="Float64" Name="Nodal Strain" NumberOfComponents="6" format="ascii" RangeMin="0" RangeMax="0">
          0 0 0 0 0 0
          0 0 0 0 0 0
          0 0 0 0 0 0
          0 0 0 0 0 0
          0 0 0 0 0 0
          0 0 0 0 0 0
          0 0 0 0 0 0
          0 0 0 0 0 0
          0 0 0 0 0 0
          0 0 0 0 0 0
          0 0 0 0 0 0
          0 0 0 0 0 0
          0 0 0 0 0 0
          <InformationKey name="L2_NORM_RANGE" location="vtkDataArray" length="2">
            <Value index="0">
              0
            </Value>
            <Value index="1">
              0
            </Value>
          </InformationKey>
        </DataArray>
        <DataArray type="Float64" Name="Sld_traction" NumberOfComponents="3" format="ascii" RangeMin="823.7195782319376" RangeMax="21563.186107160822">
          -10309.917416021239 8273.127086029372 0 -16385.236964340926 10657.845992530914 0
          -7786.641045151692 5132.479917618342 0 -13758.837000222878 8832.238684816757 0
          -4748.828041188647 1936.1171657772036 0 -10363.674426369866 6139.417014120767 0
          -1892.5700600699656 250.57114807632675 0 -6266.366138177114 3275.530030815738 0
          -1176.8862088028598 147.72647033086594 0 -1838.7404086805027 591.6826542264338 0
          -753.3356832117555 -333.1655623897504 0 -17871.458792723715 12065.734777129479 0
          -12547.25337672397 11160.723779163078 0
          <InformationKey name="L2_NORM_RANGE" location="vtkDataArray" length="2">
            <Value index="0">
              823.71957823
            </Value>
            <Value index="1">
              21563.186107
            </Value>
          </InformationKey>
        </DataArray>
        <DataArray type="Float64" Name="Velocity" NumberOfComponents="3" format="ascii" RangeMin="0.2087876273174454" RangeMax="8.39728743731016">
          -0.36971687796522457 -0.1614745123003517 0 -0.10785146795104095 -0.6348469501161449 0
          -0.6468264816157439 -0.5640644138613358 0 -0.006407401018684021 -2.6128984131461355 0
          -1.0190747846117572 -2.3526703494456975 0 -0.4921034099863334 -4.544768960088273 0
          -1.3470802814172336 -4.269753194163176 0 -0.686814674846428 -6.259950642932476 0
          -1.64209797759412 -6.052437614623841 0 -1.0088814447980727 -8.317030223262545 0
          -2.050701333511755 -8.14303753801615 0 -0.062353685676901804 -0.1992593566268711 0
          -0.1948379176896361 0.7140036059738664 0
          <InformationKey name="L2_NORM_RANGE" location="vtkDataArray" length="2">
            <Value index="0">
              0.20878762732
            </Value>
            <Value index="1">
              8.3972874373
            </Value>
          </InformationKey>
        </DataArray>
        <DataArray type="Float64" Name="Acceleration" NumberOfComponents="3" format="ascii" RangeMin="1044.5745806545467" RangeMax="3323.729542845731">
          -838.4196979048793 -1624.95839217704 0 -705.1636548870322 1308.0179384196472 0
          -1047.5676247771698 763.0495474088716 0 859.0553365948875 -2346.7392087651215 0
          1099.1596056975168 -1883.307217766799 0 -452.20546341079375 2350.367539782994 0
          1507.7297557827408 2962.081878934613 0 1270.648222190521 1676.1657402597216 0
          298.4657015927942 2534.270908049141 0 -1112.1195449567713 3018.490329960561 0
          -1120.3439574236327 1791.3832127497371 0 -1590.4231075026123 -1489.3497371458218 0
          -947.2122131096346 -440.3692517485413 0
          <InformationKey name="L2_NORM_RANGE" location="vtkDataArray" length="2">
            <Value index="0">
              1044.5745807
            </Value>
            <Value index="1">
              3323.7295428
            </Value>
          </InformationKey>
        </DataArray>
        <DataArray type="Float64" Name="Sigma" NumberOfComponents="6" format="ascii" RangeMin="4806.844564293411" RangeMax="120837.049611104">
          -64322.80105354737 64322.80105354918 0 40006.7004556811 0 0
          48033.80869185158 -48033.8086918534 0 -43388.51502638101 0 0
          -47126.70153218512 47126.70153219493 0 32119.338340576745 0 0
          29852.002517265493 -29852.002517273155 0 -32687.919104856344 0 0
          -30369.792421934115 30369.792421946888 0 21109.133657484024 0 0
          13876.874167355247 -13876.874167363474 0 -20850.471041258883 0 0
          -15666.594606667808 15666.594606648378 0 10033.727905333299 0 0
          4975.591448856756 -4975.5914488249655 0 -9417.70985281314 0 0
          -5972.770830909107 5972.770830910824 0 3514.9785693930235 0 0
          -70.46347439862075 70.46347439806277 0 -5943.488312991358 0 0
          2189.5377467072526 -2189.537746699016 0 3676.6293771335504 0 0
          66460.92972667134 -66460.92972667085 0 -50013.13459173078 0 0
          -79575.56129391913 79575.56129391864 0 44011.96028617592 0 0
          <InformationKey name="L2_NORM_RANGE" location="vtkDataArray" length="2">
            <Value index="0">
              4806.8445643
            </Value>
            <Value index="1">
              120837.04961
            </Value>
          </InformationKey>
        </DataArray>
        <DataArray type="Float64" Name="Press" format="ascii" RangeMin="-98817.00831033583" RangeMax="89206.33439339191">
          -80849.310514049 68712.8842762987 -59695.44840544829 46987.23518525865 -37133.028072620706 25521.300201878643
          -17992.13710282134 10129.345157521171 -7398.002479816429 3910.8368666719507 2413.826116896138 89206.33439339191
          -98817.00831033583
        </DataArray>
        <DataArray type="Float64" Name="Dev strain" NumberOfComponents="6" format="ascii" RangeMin="0" RangeMax="0">
          0 0 0 0 0 0
          0 0 0 0 0 0
          0 0 0 0 0 0
          0 0 0 0 0 0
          0 0 0 0 0 0
          0 0 0 0 0 0
          0 0 0 0 0 0
          0 0 0 0 0 0
          0 0 0 0 0 0
          0 0 0 0 0 0
          0 0 0 0 0 0
          0 0 0 0 0 0
          0 0 0 0 0 0
          <InformationKey name="L2_NORM_RANGE" location="vtkDataArray" length="2">
            <Value index="0">
              0
            </Value>
            <Value index="1">
              0
            </Value>
          </InformationKey>
        </DataArray>
        <DataArray type="Float64" Name="J2 Stresses" format="ascii" RangeMin="8173476.4384382" RangeMax="6816533117.300224">
          4537556755.712 2777887586.494107 2478838971.1632323 1158267068.1424618 1033723172.6941359 301253172.3173194
          270611110.4889345 46929824.98372171 38762759.98439199 8836228.4328905 8173476.4384382 5042383588.056159
          6816533117.300224
        </DataArray>
      </PointData>
      <CellData>
        <DataArray type="UInt8" Name="vtkGhostType" format="ascii" RangeMin="0" RangeMax="1">
          1 1 0 0 0 0
          0 0 0 0 0
        </DataArray>
        <DataArray type="Float64" Name="Gauss Stress" NumberOfComponents="6" format="ascii" RangeMin="1931.1445167056258" RangeMax="57266.924055551004">
          -55965.805683929364 -4340.850603398648 0 11335.175383375417 0 0
          42413.9485068724 8965.990263555525 0 -17798.316387476898 0 0
          -45082.52284569317 -2805.3935831026265 0 9579.17458995895 0 0
          -32495.24424322136 -732.2499519805601 0 6846.85096440148 0 0
          28921.26024434701 8415.187126392484 0 -14652.365263553533 0 0
          -20587.79261160336 851.882629222795 0 3430.796840519482 0 0
          16244.863859067744 7338.807683942283 0 -10809.75216287707 0 0
          -10641.522804612252 467.6598545392126 0 1376.998873971061 0 0
          6948.12642204089 4824.212415679471 0 -6744.817662912909 0 0
          -1642.34535161627 926.7856874538437 0 416.03987784507217 0 0
          1858.178895975242 2569.9408002868713 0 -3948.739865470492 0 0
          <InformationKey name="L2_NORM_RANGE" location="vtkDataArray" length="2">
            <Value index="0">
              1931.1445167
            </Value>
            <Value index="1">
              57266.924056
            </Value>
          </InformationKey>
        </DataArray>
        <DataArray type="Float64" Name="Gauss Strain" NumberOfComponents="6" format="ascii" RangeMin="0" RangeMax="0">
          0 0 0 0 0 0
          0 0 0 0 0 0
          0 0 0 0 0 0
          0 0 0 0 0 0
          0 0 0 0 0 0
          0 0 0 0 0 0
          0 0 0 0 0 0
          0 0 0 0 0 0
          0 0 0 0 0 0
          0 0 0 0 0 0
          0 0 0 0 0 0
          <InformationKey name="L2_NORM_RANGE" location="vtkDataArray" length="2">
            <Value index="0">
              0
            </Value>
            <Value index="1">
              0
            </Value>
          </InformationKey>
        </DataArray>
      </CellData>
      <Points>
        <DataArray type="Float32" Name="Points" NumberOfComponents="3" format="ascii" RangeMin="0.4000000059604645" RangeMax="1.0012492197622458">
          0.5 0 0 0.6000000238418579 0.05000000074505806 0
          0.6000000238418579 0 0 0.699999988079071 0.05000000074505806 0
          0.699999988079071 0 0 0.800000011920929 0.05000000074505806 0
          0.800000011920929 0 0 0.8999999761581421 0.05000000074505806 0
          0.8999999761581421 0 0 1 0.05000000074505806 0
          1 0 0 0.5 0.05000000074505806 0
          0.4000000059604645 0 0
          <InformationKey name="L2_NORM_RANGE" location="vtkDataArray" length="2">
            <Value index="0">
              0.40000000596
            </Value>
            <Value index="1">
              1.0012492198
            </Value>
          </InformationKey>
        </DataArray>
      </Points>
      <Cells>
        <DataArray type="Int64" Name="connectivity" format="ascii" RangeMin="0" RangeMax="12">
          0 11 12 1 11 0
          2 1 0 4 3 2
          3 1 2 6 5 4
          5 3 4 8 7 6
          7 5 6 10 9 8
          9 7 8
        </DataArray>
        <DataArray type="Int64" Name="offsets" format="ascii" RangeMin="3" RangeMax="33">
          3 6 9 12 15 18
          21 24 27 30 33
        </DataArray>
        <DataArray type="UInt8" Name="types" format="ascii" RangeMin="5" RangeMax="5">
          5 5 5 5 5 5
          5 5 5 5 5
        </DataArray>
      </Cells>
    </Piece>
  </UnstructuredGrid>
</VTKFile>
