<?xml version="1.0"?>
<VTKFile type="UnstructuredGrid" version="0.1" byte_order="LittleEndian" header_type="UInt32" compressor="vtkZLibDataCompressor">
  <UnstructuredGrid>
    <Piece NumberOfPoints="13" NumberOfCells="11">
      <PointData>
        <DataArray type="Float64" Name="Disp" NumberOfComponents="3" format="ascii" RangeMin="0" RangeMax="0.035059942788211736">
          0 0 0 0 0 0
          0.0004488057755616385 -0.0007855882282749695 0 -0.0004593715291925962 -0.0007604708407027464 0
          0.0009333164258990923 -0.003758731246028109 0 -0.001121000045810119 -0.0037008594764297515 0
          0.001291725863277079 -0.009024340458856365 0 -0.0018217046604713943 -0.00889441070123826 0
          0.0013694477347765868 -0.016176752287709355 0 -0.0025677801627722084 -0.01596453982073598 0
          0.0012402377237109752 -0.024839650554379176 0 -0.0034524037255689224 -0.024546324684550355 0
          0.0009588619888818023 -0.035046828273025764 0
          <InformationKey name="L2_NORM_RANGE" location="vtkDataArray" length="2">
            <Value index="0">
              0
            </Value>
            <Value index="1">
              0.035059942788
            </Value>
          </InformationKey>
        </DataArray>
        <DataArray type="Float64" Name="Nodal Stress" NumberOfComponents="6" format="ascii" RangeMin="26875.566193177227" RangeMax="56007.63171025942">
          54791.75140869326 118.00672087722475 0 -11606.242362360212 0 0
          -27728.80949262251 -3612.813015713117 0 2837.9882539317823 0 0
          43417.44166577355 2395.4616944285 0 -3247.2904148219354 0 0
          -36439.766899709 -1986.024302058615 0 3865.7441973051036 0 0
          37429.844079996146 2337.3641756986076 0 -5885.395891025004 0 0
          -35444.321543792605 -2115.2614058056433 0 3102.887133560669 0 0
          35074.602705649784 3091.6909992460955 0 -6724.114635215661 0 0
          -32885.52521974582 -1572.1462092675827 0 3282.0569594123212 0 0
          31676.985178381008 2999.3032092160197 0 -6421.059080070024 0 0
          -29826.648643163695 -1781.3506424067898 0 3961.0134248195236 0 0
          29232.215103473933 2782.4278511386015 0 -5757.785449911785 0 0
          -27317.05601325493 -1507.9367760945415 0 3763.690380080606 0 0
          26115.523839274134 2833.9918476900375 0 -5678.3767937132725 0 0
          <InformationKey name="L2_NORM_RANGE" location="vtkDataArray" length="2">
            <Value index="0">
              26875.566193
            </Value>
            <Value index="1">
              56007.63171
            </Value>
          </InformationKey>
        </DataArray>
        <DataArray type="Float64" Name="Nodal Strain" NumberOfComponents="6" format="ascii" RangeMin="0" RangeMax="0">
          0 0 0 0 0 0
          0 0 0 0 0 0
          0 0 0 0 0 0
          0 0 0 0 0 0
          0 0 0 0 0 0
          0 0 0 0 0 0
          0 0 0 0 0 0
          0 0 0 0 0 0
          0 0 0 0 0 0
          0 0 0 0 0 0
          0 0 0 0 0 0
          0 0 0 0 0 0
          0 0 0 0 0 0
          <InformationKey name="L2_NORM_RANGE" location="vtkDataArray" length="2">
            <Value index="0">
              0
            </Value>
            <Value index="1">
              0
            </Value>
          </InformationKey>
        </DataArray>
        <DataArray type="Float64" Name="Sld_traction" NumberOfComponents="3" format="ascii" RangeMin="7087.030704197274" RangeMax="23695.023827315472">
          -22747.580381810574 6633.380808465215 0 6753.067389604023 5910.549160482709 0
          -9773.292441606487 7073.525073189515 0 -9720.56461236117 6811.467492438407 0
          -9998.505589306333 6376.98728297316 0 -8374.042519824377 6190.828083942304 0
          -10130.431758393706 6770.4139101666315 0 -7205.129551288168 5558.163294312869 0
          -8903.904787439353 6365.532596375629 0 -6749.812293276332 5249.931100240146 0
          -7288.660063074491 5781.243223618922 0 -5423.732518470159 4561.702507871841 0
          -6230.600394587832 5269.932715833849 0
          <InformationKey name="L2_NORM_RANGE" location="vtkDataArray" length="2">
            <Value index="0">
              7087.0307042
            </Value>
            <Value index="1">
              23695.023827
            </Value>
          </InformationKey>
        </DataArray>
        <DataArray type="Float64" Name="Velocity" NumberOfComponents="3" format="ascii" RangeMin="0" RangeMax="10.667811825123923">
          0 0 0 0 0 0
          0.22967397800869085 -0.5186589981061911 0 -0.28918875510357855 -0.5030297824465949 0
          0.32723527387653245 -1.9528714548027917 0 -0.4185093011977721 -1.8975946221756894 0
          0.2121854513105707 -3.504293959730687 0 -0.6392469697353712 -3.401338821388138 0
          0.1155199434127299 -5.560119799487519 0 -1.09360936047591 -5.4093248371964515 0
          -0.12477346109924925 -8.309912188846061 0 -1.4747801072637725 -8.13933511704225 0
          -0.7214845734199218 -10.643386169193095 0
          <InformationKey name="L2_NORM_RANGE" location="vtkDataArray" length="2">
            <Value index="0">
              0
            </Value>
            <Value index="1">
              10.667811825
            </Value>
          </InformationKey>
        </DataArray>
        <DataArray type="Float64" Name="Acceleration" NumberOfComponents="3" format="ascii" RangeMin="0" RangeMax="1865.5431651627423">
          0 0 0 0 0 0
          286.3502813843989 -1078.271923185384 0 -395.73538763604887 -941.3259354586756 0
          126.49555086189906 -1861.2496277226137 0 534.2080199609618 -1723.8767133178753 0
          -267.50341261315793 256.044172374397 0 447.4073790545581 451.0925881814005 0
          -76.34131242614552 455.75448198438335 0 -346.21754151748064 788.1501564671312 0
          -92.51220182149132 -299.2878511406757 0 -389.69945217455006 -279.3799576707952 0
          -259.6981927502552 -497.08210151739604 0
          <InformationKey name="L2_NORM_RANGE" location="vtkDataArray" length="2">
            <Value index="0">
              0
            </Value>
            <Value index="1">
              1865.5431652
            </Value>
          </InformationKey>
        </DataArray>
        <DataArray type="Float64" Name="Sigma" NumberOfComponents="6" format="ascii" RangeMin="52998.78017157274" RangeMax="84678.62125004762">
          51509.855195623764 -51509.85519562036 0 -26016.940397905273 0 0
          -53304.66480352793 53304.664803529944 0 13251.698309964459 0 0
          59632.44378791897 -59632.44378791471 0 -7642.786963594745 0 0
          -54520.84679725943 54520.84679726235 0 11175.284002544784 0 0
          51801.12261248999 -51801.12261248905 0 -15737.048675307971 0 0
          -49926.244231550554 49926.244231545286 0 13014.932337763252 0 0
          48210.65391816473 -48210.65391816929 0 -16758.467431716588 0 0
          -46662.61108059603 46662.61108059902 0 13170.489907984293 0 0
          43368.52351859349 -43368.52351859673 0 -16578.837692992776 0 0
          -41679.929704859824 41679.92970486421 0 14200.674270043788 0 0
          39852.44463974297 -39852.4446397421 0 -15401.75713875514 0 0
          -38400.939178545734 38400.939178542954 0 13268.616550001792 0 0
          35966.1998272927 -35966.199827288 0 -14890.79043038115 0 0
          <InformationKey name="L2_NORM_RANGE" location="vtkDataArray" length="2">
            <Value index="0">
              52998.780172
            </Value>
            <Value index="1">
              84678.62125
            </Value>
          </InformationKey>
        </DataArray>
        <DataArray type="Float64" Name="Press" format="ascii" RangeMin="-63801.26964252625" RangeMax="68795.14988938978">
          52412.81800613541 -63801.26964252625 68795.14988938978 -60698.749127642266 57938.516280022995 -56910.81644177434
          56481.611881856734 -52876.24378607092 51014.744057200456 -48200.833820006184 47087.98480912669 -44270.62433608029
          43007.367665024794
        </DataArray>
        <DataArray type="Float64" Name="Dev strain" NumberOfComponents="6" format="ascii" RangeMin="0" RangeMax="0">
          0 0 0 0 0 0
          0 0 0 0 0 0
          0 0 0 0 0 0
          0 0 0 0 0 0
          0 0 0 0 0 0
          0 0 0 0 0 0
          0 0 0 0 0 0
          0 0 0 0 0 0
          0 0 0 0 0 0
          0 0 0 0 0 0
          0 0 0 0 0 0
          0 0 0 0 0 0
          0 0 0 0 0 0
          <InformationKey name="L2_NORM_RANGE" location="vtkDataArray" length="2">
            <Value index="0">
              0
            </Value>
            <Value index="1">
              0
            </Value>
          </InformationKey>
        </DataArray>
        <DataArray type="Float64" Name="J2 Stresses" format="ascii" RangeMin="1349001439.9269636" RangeMax="3570631400.2617855">
          2822485479.1909914 2885289166.841155 3570631400.2617855 3003744478.624776 2745269979.1664267 2534976979.007311
          2394478708.882249 2220764723.9631815 1949543296.9955864 1787631327.6332107 1647520874.5040426 1518646176.0820076
          1349001439.9269636
        </DataArray>
      </PointData>
      <CellData>
        <DataArray type="UInt8" Name="vtkGhostType" format="ascii" RangeMin="0" RangeMax="0">
          0 0 0 0 0 0
          0 0 0 0 0
        </DataArray>
        <DataArray type="Float64" Name="Gauss Stress" NumberOfComponents="6" format="ascii" RangeMin="28460.098741362926" RangeMax="41296.06777530754">
          -34632.64556454905 -2503.9336893003847 0 5594.731782971499 0 0
          38414.77747767126 -143.64530900205546 0 -6802.676350511853 0 0
          -37439.00590190455 -2341.6936243583446 0 2817.7225550000226 0 0
          40982.54554830668 3040.732479543033 0 -4068.183878785979 0 0
          -33894.54991332346 -1642.415650671172 0 3142.3182713436527 0 0
          35864.9480064032 2474.5931403307845 0 -6493.527923087105 0 0
          -31678.78360524634 -1696.1054273367163 0 3597.4421616784357 0 0
          33178.89283638282 3234.5152656064206 0 -6722.271738908361 0 0
          -28537.299196874133 -1718.3497010982387 0 4022.5112270968148 0 0
          30480.977833265883 2786.9521976154524 0 -5926.6401872347105 0 0
          27747.477808853728 2802.340949861351 0 -5674.643673044835 0 0
          <InformationKey name="L2_NORM_RANGE" location="vtkDataArray" length="2">
            <Value index="0">
              28460.098741
            </Value>
            <Value index="1">
              41296.067775
            </Value>
          </InformationKey>
        </DataArray>
        <DataArray type="Float64" Name="Gauss Strain" NumberOfComponents="6" format="ascii" RangeMin="0" RangeMax="0">
          0 0 0 0 0 0
          0 0 0 0 0 0
          0 0 0 0 0 0
          0 0 0 0 0 0
          0 0 0 0 0 0
          0 0 0 0 0 0
          0 0 0 0 0 0
          0 0 0 0 0 0
          0 0 0 0 0 0
          0 0 0 0 0 0
          0 0 0 0 0 0
          <InformationKey name="L2_NORM_RANGE" location="vtkDataArray" length="2">
            <Value index="0">
              0
            </Value>
            <Value index="1">
              0
            </Value>
          </InformationKey>
        </DataArray>
      </CellData>
      <Points>
        <DataArray type="Float32" Name="Points" NumberOfComponents="3" format="ascii" RangeMin="0" RangeMax="0.6020797527609908">
          0 0.05000000074505806 0 0 0 0
          0.10000000149011612 0.05000000074505806 0 0.10000000149011612 0 0
          0.20000000298023224 0.05000000074505806 0 0.20000000298023224 0 0
          0.30000001192092896 0.05000000074505806 0 0.30000001192092896 0 0
          0.4000000059604645 0.05000000074505806 0 0.4000000059604645 0 0
          0.5 0.05000000074505806 0 0.5 0 0
          0.6000000238418579 0.05000000074505806 0
          <InformationKey name="L2_NORM_RANGE" location="vtkDataArray" length="2">
            <Value index="0">
              0
            </Value>
            <Value index="1">
              0.60207975276
            </Value>
          </InformationKey>
        </DataArray>
      </Points>
      <Cells>
        <DataArray type="Int64" Name="connectivity" format="ascii" RangeMin="0" RangeMax="12">
          3 2 1 2 0 1
          5 4 3 4 2 3
          7 6 5 6 4 5
          9 8 7 8 6 7
          11 10 9 10 8 9
          12 10 11
        </DataArray>
        <DataArray type="Int64" Name="offsets" format="ascii" RangeMin="3" RangeMax="33">
          3 6 9 12 15 18
          21 24 27 30 33
        </DataArray>
        <DataArray type="UInt8" Name="types" format="ascii" RangeMin="5" RangeMax="5">
          5 5 5 5 5 5
          5 5 5 5 5
        </DataArray>
      </Cells>
    </Piece>
  </UnstructuredGrid>
</VTKFile>
