<?xml version="1.0"?>
<VTKFile type="UnstructuredGrid" version="0.1" byte_order="LittleEndian" header_type="UInt32" compressor="vtkZLibDataCompressor">
  <UnstructuredGrid>
    <Piece NumberOfPoints="13" NumberOfCells="11">
      <PointData>
        <DataArray type="Float64" Name="Disp" NumberOfComponents="3" format="ascii" RangeMin="0.0014487846885250435" RangeMax="0.03142888777111188">
          -0.0007286078449113003 0.0012728252450352265 0 0.0010889748753722674 -0.0025790325699707323 0
          -0.0012321984944842334 -0.0025146831258088254 0 0.0012638224408809166 -0.008024157487624507 0
          -0.0017887954642151378 -0.0078973098971295 0 0.0012862653987598185 -0.0148686842877164 0
          -0.0024739384156113545 -0.014678287366144412 0 0.0011204727508863535 -0.02302395088202984 0
          -0.0030614571234324865 -0.022806952885024198 0 0.0006222199072531479 -0.03142272790379861 0
          -0.003513662209833959 -0.031182792886881423 0 0.0007263728015232475 0.0012535388414053536 0
          -0.00024274372209132263 0.003203347992941058 0
          <InformationKey name="L2_NORM_RANGE" location="vtkDataArray" length="2">
            <Value index="0">
              0.0014487846885
            </Value>
            <Value index="1">
              0.031428887771
            </Value>
          </InformationKey>
        </DataArray>
        <DataArray type="Float64" Name="Nodal Stress" NumberOfComponents="6" format="ascii" RangeMin="7601.382567562083" RangeMax="28330.664156330047">
          -27029.52587454132 -1698.2142509589635 0 2884.0087280209636 0 0
          27239.5248469756 1704.444201097166 0 -4405.743677994752 0 0
          -26292.371657751184 -1409.0022268369403 0 2524.1141061841276 0 0
          24230.444734611647 1941.87392639848 0 -5069.677762878497 0 0
          -22327.09821982599 -899.5092635971941 0 2232.1338996091545 0 0
          18590.811028009324 2380.898484702671 0 -5585.650170145289 0 0
          -17304.580787234114 335.8053901925817 0 534.6906568277519 0 0
          10406.631940646193 2952.0480598300446 0 -5323.779167315251 0 0
          -12309.062530719462 539.2016091642346 0 -1285.4182671728424 0 0
          4982.449461597113 511.34453691983776 0 -6543.213816792735 0 0
          -7373.494900738672 -1155.816189434706 0 -1441.068639398606 0 0
          28188.372622439896 1081.6105448534825 0 -2621.5070220212474 0 0
          -23998.43082645464 -2133.742940722415 0 3545.596028547718 0 0
          <InformationKey name="L2_NORM_RANGE" location="vtkDataArray" length="2">
            <Value index="0">
              7601.3825676
            </Value>
            <Value index="1">
              28330.664156
            </Value>
          </InformationKey>
        </DataArray>
        <DataArray type="Float64" Name="Nodal Strain" NumberOfComponents="6" format="ascii" RangeMin="0" RangeMax="0">
          0 0 0 0 0 0
          0 0 0 0 0 0
          0 0 0 0 0 0
          0 0 0 0 0 0
          0 0 0 0 0 0
          0 0 0 0 0 0
          0 0 0 0 0 0
          0 0 0 0 0 0
          0 0 0 0 0 0
          0 0 0 0 0 0
          0 0 0 0 0 0
          0 0 0 0 0 0
          0 0 0 0 0 0
          <InformationKey name="L2_NORM_RANGE" location="vtkDataArray" length="2">
            <Value index="0">
              0
            </Value>
            <Value index="1">
              0
            </Value>
          </InformationKey>
        </DataArray>
        <DataArray type="Float64" Name="Sld_traction" NumberOfComponents="3" format="ascii" RangeMin="137.7931881444012" RangeMax="9238.502012844612">
          -7049.727297182827 4586.398617196588 0 -7625.100659426149 4380.769951378678 0
          -6327.783779619197 4174.347145291101 0 -8174.439045412613 4304.470435973241 0
          -5580.049971183397 3254.8335886538193 0 -8153.740130150896 4234.837270126637 0
          -2844.4627670835616 1715.448747953407 0 -7683.969267077961 3864.786786231625 0
          -1108.7661076545057 574.597759823244 0 -2699.009593789185 -1913.4729372396905 0
          -127.30042611981993 -52.74053667446523 0 -5900.330517625957 3780.5887371475383 0
          -7460.922118695093 4735.0948756714015 0
          <InformationKey name="L2_NORM_RANGE" location="vtkDataArray" length="2">
            <Value index="0">
              137.79318814
            </Value>
            <Value index="1">
              9238.5020128
            </Value>
          </InformationKey>
        </DataArray>
        <DataArray type="Float64" Name="Velocity" NumberOfComponents="3" format="ascii" RangeMin="0.5149634160057747" RangeMax="10.144974788272165">
          -0.5137982114225289 -1.647936659689486 0 0.1848549786160384 -3.339778110967917 0
          -0.5069638960038014 -3.278326677800675 0 0.06124350492787034 -4.641296082871991 0
          -0.7072072047567199 -4.583521259311884 0 0.0697827615195981 -6.527450467794875 0
          -0.963755673583859 -6.437376673301924 0 -0.20394479548061378 -8.57250010424962 0
          -1.0864790076408755 -8.458174789393231 0 -0.4858328940480528 -10.13333508050231 0
          -1.2325827420919722 -10.016552378733905 0 0.41242714844184225 -1.6869051342211643 0
          -0.44956407974402524 0.2511562422641418 0
          <InformationKey name="L2_NORM_RANGE" location="vtkDataArray" length="2">
            <Value index="0">
              0.51496341601
            </Value>
            <Value index="1">
              10.144974788
            </Value>
          </InformationKey>
        </DataArray>
        <DataArray type="Float64" Name="Acceleration" NumberOfComponents="3" format="ascii" RangeMin="251.0259260978268" RangeMax="2472.8538355975393">
          342.4276990934966 -2061.3052581041884 0 -519.5256392872884 -174.62591992684156 0
          147.2260858237869 -203.31870358203287 0 326.61359435489294 -137.55903486192892 0
          -530.3358963955075 -244.85215245228846 0 171.16366054780434 -2466.923001136707 0
          116.44611646117323 -2245.8785234904835 0 -1086.1334931892914 -444.38166172006686 0
          -500.0956235324679 -269.7943565265855 0 -288.7611357234716 -1545.5020112750535 0
          -995.9982933873496 -1196.11862216609 0 -345.481770092727 -2128.817142817123 0
          -90.70482423816111 -2444.3823844125786 0
          <InformationKey name="L2_NORM_RANGE" location="vtkDataArray" length="2">
            <Value index="0">
              251.0259261
            </Value>
            <Value index="1">
              2472.8538356
            </Value>
          </InformationKey>
        </DataArray>
        <DataArray type="Float64" Name="Sigma" NumberOfComponents="6" format="ascii" RangeMin="4316.687234060158" RangeMax="56916.498651434886">
          -39303.87329276507 39303.87329276391 0 9560.087174411128 0 0
          38703.18539333369 -38703.18539333552 0 -11699.770545444797 0 0
          -37511.49953560087 37511.499535606665 0 9901.187625991095 0 0
          34434.91718660556 -34434.91718660872 0 -12763.392165875557 0 0
          -31571.98165824912 31571.981658254113 0 10362.131453712778 0 0
          26259.054527968154 -26259.054527972003 0 -12974.821658195788 0 0
          -23293.545742090144 23293.54574208357 0 6285.2297590577655 0 0
          14758.268140059703 -14758.268140046017 0 -9622.154594131021 0 0
          -16700.60941757589 16700.609417581632 0 3603.155510593743 0 0
          9826.832476786236 -9826.832476796457 0 -12927.317678107594 0 0
          -2780.790240907045 2780.7902409134726 0 1779.9438049597134 0 0
          39770.92647661262 -39770.92647661286 0 -8719.78400664353 0 0
          -36056.72897232164 36056.72897232234 0 8301.302297276603 0 0
          <InformationKey name="L2_NORM_RANGE" location="vtkDataArray" length="2">
            <Value index="0">
              4316.6872341
            </Value>
            <Value index="1">
              56916.498651
            </Value>
          </InformationKey>
        </DataArray>
        <DataArray type="Float64" Name="Press" format="ascii" RangeMin="-44173.87932389602" RangeMax="43955.53484731728">
          -44173.87932389602 43754.709314442065 -42244.887849649735 39550.21131196903 -35592.0058435059 31280.09769770506
          -25546.181926882222 20595.201555822714 -16881.909189016358 10065.980360634148 -5121.346675984367 43955.53484731728
          -41010.903587565925
        </DataArray>
        <DataArray type="Float64" Name="Dev strain" NumberOfComponents="6" format="ascii" RangeMin="0" RangeMax="0">
          0 0 0 0 0 0
          0 0 0 0 0 0
          0 0 0 0 0 0
          0 0 0 0 0 0
          0 0 0 0 0 0
          0 0 0 0 0 0
          0 0 0 0 0 0
          0 0 0 0 0 0
          0 0 0 0 0 0
          0 0 0 0 0 0
          0 0 0 0 0 0
          0 0 0 0 0 0
          0 0 0 0 0 0
          <InformationKey name="L2_NORM_RANGE" location="vtkDataArray" length="2">
            <Value index="0">
              0
            </Value>
            <Value index="1">
              0
            </Value>
          </InformationKey>
        </DataArray>
        <DataArray type="Float64" Name="J2 Stresses" format="ascii" RangeMin="8524844.351145353" RangeMax="1600735251.0887656">
          1567643272.5092707 1532157717.2948434 1431620976.5108712 1226489566.5434752 1023633467.8949823 731624443.9684024
          552465301.5197291 240952943.25203848 282156037.3269009 138345522.11459947 8524844.351145353 1600735251.0887656
          1317315609.1411762
        </DataArray>
      </PointData>
      <CellData>
        <DataArray type="UInt8" Name="vtkGhostType" format="ascii" RangeMin="0" RangeMax="1">
          1 1 0 0 0 0
          0 0 0 0 0
        </DataArray>
        <DataArray type="Float64" Name="Gauss Stress" NumberOfComponents="6" format="ascii" RangeMin="7661.836584063037" RangeMax="27843.55768037732">
          -25606.307950872928 -1879.857425223766 0 3047.2018216814017 0 0
          27568.86780501486 1455.3754202262817 0 -3619.822459225734 0 0
          -26925.41509804532 -1517.2901413562145 0 2587.1680849858094 0 0
          -24311.748796143693 -1212.7061246448516 0 2499.9756379427754 0 0
          25562.211940366593 1811.1432441412621 0 -4853.991695109753 0 0
          -19488.187648351395 -417.2057334391279 0 1224.1798515249202 0 0
          21453.43107416427 2038.7710366138608 0 -5125.36079011952 0 0
          -15689.592193227401 1134.3324865144396 0 88.74355850682969 0 0
          14684.298084194426 2868.4468002370368 0 -5437.248831089681 0 0
          -7197.280895354426 -760.9027742226431 0 -2514.7394541847116 0 0
          7221.254642236854 1964.9271760598876 0 -6315.438920548291 0 0
          <InformationKey name="L2_NORM_RANGE" location="vtkDataArray" length="2">
            <Value index="0">
              7661.8365841
            </Value>
            <Value index="1">
              27843.55768
            </Value>
          </InformationKey>
        </DataArray>
        <DataArray type="Float64" Name="Gauss Strain" NumberOfComponents="6" format="ascii" RangeMin="0" RangeMax="0">
          0 0 0 0 0 0
          0 0 0 0 0 0
          0 0 0 0 0 0
          0 0 0 0 0 0
          0 0 0 0 0 0
          0 0 0 0 0 0
          0 0 0 0 0 0
          0 0 0 0 0 0
          0 0 0 0 0 0
          0 0 0 0 0 0
          0 0 0 0 0 0
          <InformationKey name="L2_NORM_RANGE" location="vtkDataArray" length="2">
            <Value index="0">
              0
            </Value>
            <Value index="1">
              0
            </Value>
          </InformationKey>
        </DataArray>
      </CellData>
      <Points>
        <DataArray type="Float32" Name="Points" NumberOfComponents="3" format="ascii" RangeMin="0.4000000059604645" RangeMax="1.0012492197622458">
          0.5 0 0 0.6000000238418579 0.05000000074505806 0
          0.6000000238418579 0 0 0.699999988079071 0.05000000074505806 0
          0.699999988079071 0 0 0.800000011920929 0.05000000074505806 0
          0.800000011920929 0 0 0.8999999761581421 0.05000000074505806 0
          0.8999999761581421 0 0 1 0.05000000074505806 0
          1 0 0 0.5 0.05000000074505806 0
          0.4000000059604645 0 0
          <InformationKey name="L2_NORM_RANGE" location="vtkDataArray" length="2">
            <Value index="0">
              0.40000000596
            </Value>
            <Value index="1">
              1.0012492198
            </Value>
          </InformationKey>
        </DataArray>
      </Points>
      <Cells>
        <DataArray type="Int64" Name="connectivity" format="ascii" RangeMin="0" RangeMax="12">
          0 11 12 1 11 0
          2 1 0 4 3 2
          3 1 2 6 5 4
          5 3 4 8 7 6
          7 5 6 10 9 8
          9 7 8
        </DataArray>
        <DataArray type="Int64" Name="offsets" format="ascii" RangeMin="3" RangeMax="33">
          3 6 9 12 15 18
          21 24 27 30 33
        </DataArray>
        <DataArray type="UInt8" Name="types" format="ascii" RangeMin="5" RangeMax="5">
          5 5 5 5 5 5
          5 5 5 5 5
        </DataArray>
      </Cells>
    </Piece>
  </UnstructuredGrid>
</VTKFile>
