<?xml version="1.0"?>
<VTKFile type="UnstructuredGrid" version="0.1" byte_order="LittleEndian" header_type="UInt32" compressor="vtkZLibDataCompressor">
  <UnstructuredGrid>
    <Piece NumberOfPoints="13" NumberOfCells="11">
      <PointData>
        <DataArray type="Float64" Name="Disp" NumberOfComponents="3" format="ascii" RangeMin="0" RangeMax="0.006318185135684735">
          0 0 0 0 0 0
          -0.000279606851681228 0.0007810615164582384 0 0.000501863895469357 0.0008032931844727739 0
          -0.0004135952777877638 0.002804488207813461 0 0.00037298838205289246 0.0028123308085505113 0
          0.00004635892789605473 0.003595789398507245 0 -0.00006946305921080994 0.0035936978149319933 0
          0.0005601294248683441 0.0023696095331855564 0 -0.0005902548276627609 0.0023797796591245417 0
          0.0009939832785651533 -0.0009585764733314218 0 -0.0011448017225460026 -0.0009052125806405936 0
          0.0012702877663106776 -0.006189170574442827 0
          <InformationKey name="L2_NORM_RANGE" location="vtkDataArray" length="2">
            <Value index="0">
              0
            </Value>
            <Value index="1">
              0.0063181851357
            </Value>
          </InformationKey>
        </DataArray>
        <DataArray type="Float64" Name="Nodal Stress" NumberOfComponents="6" format="ascii" RangeMin="5781.127215758272" RangeMax="32168.51125489213">
          -18719.118161301438 -7334.136595835033 0 13271.740800722624 0 0
          3522.9656175171062 -6546.2300050492695 0 10083.914193565424 0 0
          985.5621687774021 -2549.3956420317063 0 7747.261298300704 0 0
          997.2582114720525 -2282.515452494143 0 5216.994455963894 0 0
          12805.440235212463 -1628.9182811826538 0 6732.398085367143 0 0
          -13860.827846154207 -2866.6749631185685 0 5496.268047226882 0 0
          24099.199208798575 -366.98595107108014 0 2158.943854587524 0 0
          -24593.895782425312 -2272.2123016657047 0 4137.637853432397 0 0
          29976.73940539168 932.817458597049 0 -1613.469765371203 0 0
          -30434.335947289746 -2075.980177662263 0 3531.3175418399915 0 0
          31391.414129251698 1546.9005744181154 0 -3942.0623995899464 0 0
          -31892.914052676926 -2000.4327864905545 0 3695.0532136111374 0 0
          30244.47903824291 1870.2305009626502 0 -5189.763611650253 0 0
          <InformationKey name="L2_NORM_RANGE" location="vtkDataArray" length="2">
            <Value index="0">
              5781.1272158
            </Value>
            <Value index="1">
              32168.511255
            </Value>
          </InformationKey>
        </DataArray>
        <DataArray type="Float64" Name="Nodal Strain" NumberOfComponents="6" format="ascii" RangeMin="0" RangeMax="0">
          0 0 0 0 0 0
          0 0 0 0 0 0
          0 0 0 0 0 0
          0 0 0 0 0 0
          0 0 0 0 0 0
          0 0 0 0 0 0
          0 0 0 0 0 0
          0 0 0 0 0 0
          0 0 0 0 0 0
          0 0 0 0 0 0
          0 0 0 0 0 0
          0 0 0 0 0 0
          0 0 0 0 0 0
          <InformationKey name="L2_NORM_RANGE" location="vtkDataArray" length="2">
            <Value index="0">
              0
            </Value>
            <Value index="1">
              0
            </Value>
          </InformationKey>
        </DataArray>
        <DataArray type="Float64" Name="Sld_traction" NumberOfComponents="3" format="ascii" RangeMin="1770.702588518614" RangeMax="19845.355872791642">
          17462.845777323866 -9427.999102415512 0 -5069.789295758124 568.9604389552612 0
          8643.241611624104 -1377.7604593275275 0 -4586.245833053278 3819.3830765644207 0
          7035.273300275284 -657.5431548944202 0 -6496.358313955743 4379.493337254418 0
          19.845536130938026 1770.591373434931 0 -8005.132280454309 4954.164685808826 0
          -4874.136852323269 3774.4121168939387 0 -7949.904764491018 5202.9285288728015 0
          -7324.986645549532 4595.321497739598 0 -7945.420519517241 5180.494092819533 0
          -8463.561806739808 4791.2841907938055 0
          <InformationKey name="L2_NORM_RANGE" location="vtkDataArray" length="2">
            <Value index="0">
              1770.7025885
            </Value>
            <Value index="1">
              19845.355873
            </Value>
          </InformationKey>
        </DataArray>
        <DataArray type="Float64" Name="Velocity" NumberOfComponents="3" format="ascii" RangeMin="0" RangeMax="3.88456772301504">
          0 0 0 0 0 0
          0.007948490182756396 0.039545098189986305 0 0.015213827225393217 0.04386966981851592 0
          0.10629590908319086 -0.07848252293992686 0 -0.11925420281084068 -0.09038938341093461 0
          0.2595633631715272 -0.8699838054446847 0 -0.24182479693698064 -0.8707116299573463 0
          0.2152108820973588 -1.9248170348920082 0 -0.2454581313988514 -1.8982929098971744 0
          0.1227938056419694 -2.737325495252387 0 -0.3185895438468758 -2.7081389916621537 0
          0.17777080326078196 -3.8804978979762725 0
          <InformationKey name="L2_NORM_RANGE" location="vtkDataArray" length="2">
            <Value index="0">
              0
            </Value>
            <Value index="1">
              3.884567723
            </Value>
          </InformationKey>
        </DataArray>
        <DataArray type="Float64" Name="Acceleration" NumberOfComponents="3" format="ascii" RangeMin="0" RangeMax="3297.36378694578">
          0 0 0 0 0 0
          286.23633471414087 -785.7723678814834 0 -491.0150952671667 -826.4017087825442 0
          484.1112607014124 -2737.140145546812 0 -245.22152466273985 -2780.487953522793 0
          15.36303176889686 -3297.3279971389384 0 255.91957683975158 -3259.519502362153 0
          -508.8435925883223 -1913.1801096167346 0 498.91672092850877 -1854.515919910054 0
          -233.78491550701864 27.9764207546782 0 47.98963605780955 -59.09940584114702 0
          505.35728857677555 -906.8136540898695 0
          <InformationKey name="L2_NORM_RANGE" location="vtkDataArray" length="2">
            <Value index="0">
              0
            </Value>
            <Value index="1">
              3297.3637869
            </Value>
          </InformationKey>
        </DataArray>
        <DataArray type="Float64" Name="Sigma" NumberOfComponents="6" format="ascii" RangeMin="2309.5981670840556" RangeMax="64998.10633428209">
          -18604.561474144546 18604.56147414523 0 17303.32961887039 0 0
          15386.645135657483 -15386.645135656436 0 12240.661662306255 0 0
          -947.4853182995575 947.4853183004307 0 6239.642302843467 0 0
          -836.7732251623238 836.7732251629714 0 1983.3972957276692 0 0
          16348.787025454294 -16348.787025454818 0 9818.973773958536 0 0
          -21523.74091588209 21523.740915882743 0 6336.159075167447 0 0
          34089.15096502533 -34089.150965027016 0 -992.397890149783 0 0
          -37107.962441705546 37107.96244170566 0 8297.91100823957 0 0
          42809.30560223415 -42809.305602234876 0 -7183.5008216205315 0 0
          -44034.85102507652 44034.85102507685 0 9960.36937002735 0 0
          45061.49924391613 -45061.49924391564 0 -11681.342944193824 0 0
          -45146.76108301828 45146.7610830166 0 12177.592309998116 0 0
          43689.41364312334 -43689.41364312191 0 -14172.170158555158 0 0
          <InformationKey name="L2_NORM_RANGE" location="vtkDataArray" length="2">
            <Value index="0">
              2309.5981671
            </Value>
            <Value index="1">
              64998.106334
            </Value>
          </InformationKey>
        </DataArray>
        <DataArray type="Float64" Name="Press" format="ascii" RangeMin="-50903.43775718672" RangeMax="50276.52162218754">
          -28406.491178270917 4707.347621145498 -0.8747788782493444 -2610.76426458839 14775.958708338498 -26312.35688646546
          36154.87610942083 -42004.837922066115 46915.3876871273 -49529.44357583101 50276.52162218754 -50903.43775718672
          49292.032586122674
        </DataArray>
        <DataArray type="Float64" Name="Dev strain" NumberOfComponents="6" format="ascii" RangeMin="0" RangeMax="0">
          0 0 0 0 0 0
          0 0 0 0 0 0
          0 0 0 0 0 0
          0 0 0 0 0 0
          0 0 0 0 0 0
          0 0 0 0 0 0
          0 0 0 0 0 0
          0 0 0 0 0 0
          0 0 0 0 0 0
          0 0 0 0 0 0
          0 0 0 0 0 0
          0 0 0 0 0 0
          0 0 0 0 0 0
          <InformationKey name="L2_NORM_RANGE" location="vtkDataArray" length="2">
            <Value index="0">
              0
            </Value>
            <Value index="1">
              0
            </Value>
          </InformationKey>
        </DataArray>
        <DataArray type="Float64" Name="J2 Stresses" format="ascii" RangeMin="1683655.6385240564" RangeMax="2075303474.904189">
          420981011.62005556 274207298.0133995 10631012.445252474 1683655.6385240564 291385898.69709265 473308150.9704876
          1162316426.9094381 1394214708.3501997 1845537317.159063 1963870344.297542 2064652157.3543983 2075303474.904189
          1958977466.2306294
        </DataArray>
      </PointData>
      <CellData>
        <DataArray type="UInt8" Name="vtkGhostType" format="ascii" RangeMin="0" RangeMax="0">
          0 0 0 0 0 0
          0 0 0 0 0
        </DataArray>
        <DataArray type="Float64" Name="Gauss Stress" NumberOfComponents="6" format="ascii" RangeMin="9413.919364351295" RangeMax="31682.154865978613">
          5232.698389958153 -3835.559338171391 0 6821.233753625796 0 0
          -9288.473330930097 -6511.538893071482 0 11927.877861340035 0 0
          -6719.6298527684985 -2711.8117757081527 0 6046.176714951217 0 0
          8909.61604895476 -800.0696057065189 0 6014.004457509891 0 0
          -18901.623697224357 -2539.9221021831177 0 4547.224064419077 0 0
          17844.225001963812 -1431.9063811017395 0 5054.244986325399 0 0
          -27650.80055843926 -2095.128648740728 0 3691.593185548798 0 0
          26951.97333334533 424.97724964192594 0 40.670765489750465 0 0
          -31425.4908583363 -2012.0822822174587 0 3485.539578610549 0 0
          30499.473184852548 1275.5039708033937 0 -2968.1581319290044 0 0
          30756.42275171491 1686.98821570085 0 -4558.64026425029 0 0
          <InformationKey name="L2_NORM_RANGE" location="vtkDataArray" length="2">
            <Value index="0">
              9413.9193644
            </Value>
            <Value index="1">
              31682.154866
            </Value>
          </InformationKey>
        </DataArray>
        <DataArray type="Float64" Name="Gauss Strain" NumberOfComponents="6" format="ascii" RangeMin="0" RangeMax="0">
          0 0 0 0 0 0
          0 0 0 0 0 0
          0 0 0 0 0 0
          0 0 0 0 0 0
          0 0 0 0 0 0
          0 0 0 0 0 0
          0 0 0 0 0 0
          0 0 0 0 0 0
          0 0 0 0 0 0
          0 0 0 0 0 0
          0 0 0 0 0 0
          <InformationKey name="L2_NORM_RANGE" location="vtkDataArray" length="2">
            <Value index="0">
              0
            </Value>
            <Value index="1">
              0
            </Value>
          </InformationKey>
        </DataArray>
      </CellData>
      <Points>
        <DataArray type="Float32" Name="Points" NumberOfComponents="3" format="ascii" RangeMin="0" RangeMax="0.6020797527609908">
          0 0.05000000074505806 0 0 0 0
          0.10000000149011612 0.05000000074505806 0 0.10000000149011612 0 0
          0.20000000298023224 0.05000000074505806 0 0.20000000298023224 0 0
          0.30000001192092896 0.05000000074505806 0 0.30000001192092896 0 0
          0.4000000059604645 0.05000000074505806 0 0.4000000059604645 0 0
          0.5 0.05000000074505806 0 0.5 0 0
          0.6000000238418579 0.05000000074505806 0
          <InformationKey name="L2_NORM_RANGE" location="vtkDataArray" length="2">
            <Value index="0">
              0
            </Value>
            <Value index="1">
              0.60207975276
            </Value>
          </InformationKey>
        </DataArray>
      </Points>
      <Cells>
        <DataArray type="Int64" Name="connectivity" format="ascii" RangeMin="0" RangeMax="12">
          3 2 1 2 0 1
          5 4 3 4 2 3
          7 6 5 6 4 5
          9 8 7 8 6 7
          11 10 9 10 8 9
          12 10 11
        </DataArray>
        <DataArray type="Int64" Name="offsets" format="ascii" RangeMin="3" RangeMax="33">
          3 6 9 12 15 18
          21 24 27 30 33
        </DataArray>
        <DataArray type="UInt8" Name="types" format="ascii" RangeMin="5" RangeMax="5">
          5 5 5 5 5 5
          5 5 5 5 5
        </DataArray>
      </Cells>
    </Piece>
  </UnstructuredGrid>
</VTKFile>
