<?xml version="1.0"?>
<VTKFile type="UnstructuredGrid" version="0.1" byte_order="LittleEndian" header_type="UInt32" compressor="vtkZLibDataCompressor">
  <UnstructuredGrid>
    <Piece NumberOfPoints="34" NumberOfCells="50">
      <PointData>
        <DataArray type="Float64" Name="nsi_BC" NumberOfComponents="3" format="ascii" RangeMin="0" RangeMax="0">
          0 0 0 0 0 0
          0 0 0 0 0 0
          0 0 0 0 0 0
          0 0 0 0 0 0
          0 0 0 0 0 0
          0 0 0 0 0 0
          0 0 0 0 0 0
          0 0 0 0 0 0
          0 0 0 0 0 0
          0 0 0 0 0 0
          0 0 0 0 0 0
          0 0 0 0 0 0
          0 0 0 0 0 0
          0 0 0 0 0 0
          0 0 0 0 0 0
          0 0 0 0 0 0
          0 0 0 0 0 0
          <InformationKey name="L2_NORM_RANGE" location="vtkDataArray" length="2">
            <Value index="0">
              0
            </Value>
            <Value index="1">
              0
            </Value>
          </InformationKey>
        </DataArray>
        <DataArray type="Float64" Name="nsi_FIXNO" NumberOfComponents="3" format="ascii" RangeMin="1" RangeMax="1.4142135623730951">
          1 1 0 1 0 0
          -1 -1 0 1 0 0
          -1 -1 0 -1 -1 0
          1 0 0 -1 -1 0
          1 0 0 -1 -1 0
          -1 -1 0 -1 -1 0
          1 0 0 -1 -1 0
          -1 -1 0 -1 -1 0
          -1 -1 0 -1 -1 0
          -1 -1 0 -1 -1 0
          1 1 0 1 1 0
          -1 -1 0 1 0 0
          1 0 0 1 0 0
          -1 -1 0 -1 -1 0
          1 0 0 1 0 0
          -1 -1 0 1 0 0
          1 0 0 1 1 0
          <InformationKey name="L2_NORM_RANGE" location="vtkDataArray" length="2">
            <Value index="0">
              1
            </Value>
            <Value index="1">
              1.4142135624
            </Value>
          </InformationKey>
        </DataArray>
        <DataArray type="Float64" Name="lev_BC" format="ascii" RangeMin="-1" RangeMax="1">
          -1 0 -1 -1 -1 0
          1 -1 -1 -1 1 0
          1 -1 -1 -1 1 0
          -1 -1 1 -1 -1 1
          -1 1 -1 0 -1 1
          -1 -1 0 -1
        </DataArray>
        <DataArray type="Float64" Name="lev_FIXNO" format="ascii" RangeMin="0" RangeMax="0">
          0 0 0 0 0 0
          0 0 0 0 0 0
          0 0 0 0 0 0
          0 0 0 0 0 0
          0 0 0 0 0 0
          0 0 0 0
        </DataArray>
        <DataArray type="Float64" Name="Velocity" NumberOfComponents="3" format="ascii" RangeMin="0" RangeMax="0.6469396144370722">
          0 0 0 -1.4227841832989366e-18 -0.39965062501348403 0
          -0.3707365436106882 -0.1958866503639781 0 -0.5209024232214065 -6.499191050199706e-17 0
          -0.5066612418411991 0.013814483798327601 0 -0.13229590980795786 -0.419794895430014 0
          6.858265867506476e-17 -0.6469396144370722 0 -0.28495459269442164 0.0778527100354645 0
          -0.43958007074681127 1.8314651697974858e-17 0 -0.3976190436475127 0.15040003044239103 0
          0.2625143080849408 -0.4341848121841389 0 0.16803948901196702 -0.20681428909084795 0
          2.105206979894968e-17 -0.38889409024459 0 -0.2391029025428143 0.3200159534365526 0
          -0.24482715831026192 0.2821670553377979 0 0.02248177717280401 0.23078267086299956 0
          0.4711003209048369 -0.2254983265054495 0 0.44821945114798073 -0.003089102345782503 0
          -0.024411558361825743 0.4857062628925819 0 -0.10080578364003366 0.5048294901799787 0
          0 0 0 0 0 0
          0.2188275162698556 0.2879094679655443 0 0.37589782423527857 2.1785425874945345e-17 0
          -1.9957623216933552e-17 0.4019591200554054 0 0.641114638319804 2.0915662254652177e-17 0
          0.09461154137369042 0.5011813511358141 0 0.5476098798830801 0.08409130243686488 0
          5.2593597541872503e-17 0.615474130248645 0 0.589597293400059 -2.0921803733279084e-17 0
          0.23754541226551804 0.30122432913200187 0 -1.532926630667127e-17 0.4871078634228871 0
          0.4023437683599131 -1.2054236217056873e-17 0 0 0 0
          <InformationKey name="L2_NORM_RANGE" location="vtkDataArray" length="2">
            <Value index="0">
              0
            </Value>
            <Value index="1">
              0.64693961444
            </Value>
          </InformationKey>
        </DataArray>
        <DataArray type="Float64" Name="Pressure" format="ascii" RangeMin="-0.18836435678348384" RangeMax="4.851498596549203">
          0 -0.18836435678348384 0.21951751369058203 0.4006806977556594 0.4782532064539274 0.3259813691331995
          0.815325363603694 0.606845110074312 0.5787132301112734 0.6254726111161046 1.8172872244241054 0.690686316960993
          2.7599901608123973 0.7513717350561792 0.7005776932167809 0.8362655777200434 2.368941205126428 1.143831072734693
          0.965232475482935 0.8683361316688939 4.851498596549203 0.665650511602956 1.0878450279822376 4.346279509810888
          0.7978771143927056 3.674476660475293 1.2318072712956167 1.6365602470965548 1.032601344895717 2.856311166928964
          1.488829804627276 1.3479360251184398 1.9171179837150802 1.6705976335137664
        </DataArray>
        <DataArray type="Float64" Name="LEVEL" format="ascii" RangeMin="-0.8325987933179146" RangeMax="0.5808083403575617">
          -0.1690038631366194 -0.045401628432944575 -0.23722225878530306 -0.444335622903286 -0.3502188328081492 -0.05768714241485043
          0.1312645258039435 -0.2132595041715924 -0.652423405713737 -0.4394600609962219 0.16789315440208963 -0.004919959714306322
          0.3418856842059008 -0.30398471885989764 -0.5223943027446087 -0.11014194474465261 0.18994956968175392 0.04256669077664123
          -0.20910535293904736 -0.36333431011439227 0.5808083403575617 -0.8325987933179146 -0.049519501183159384 0.443154029065983
          -0.5561503251072026 0.31892541705167443 -0.12121379854827335 0.06941823321378321 -0.34448126914564087 0.18794104142847928
          -0.04607724049597188 -0.1952082872672072 0.04664466532719419 -0.08184986705868955
        </DataArray>
      </PointData>
      <CellData>
        <DataArray type="UInt8" Name="vtkGhostType" format="ascii" RangeMin="0" RangeMax="0">
          0 0 0 0 0 0
          0 0 0 0 0 0
          0 0 0 0 0 0
          0 0 0 0 0 0
          0 0 0 0 0 0
          0 0 0 0 0 0
          0 0 0 0 0 0
          0 0 0 0 0 0
          0 0
        </DataArray>
      </CellData>
      <Points>
        <DataArray type="Float32" Name="Points" NumberOfComponents="3" format="ascii" RangeMin="0" RangeMax="1.4142135623730951">
          0 1 0 0 0.7799999713897705 0
          0.19571679830551147 0.840013325214386 0 0.3338231146335602 1 0
          0.4226129949092865 0.8073133826255798 0 0.21492919325828552 0.5873047709465027 0
          0 0.512727677822113 0 0.4972974956035614 0.6009321212768555 0
          0.6673728823661804 1 0 0.630643904209137 0.7812064290046692 0
          0.20702050626277924 0.32903969287872314 0 0.40350478887557983 0.41823700070381165 0
          0 0.25636380910873413 0 0.6898214221000671 0.5965974926948547 0
          0.8102678060531616 0.7724344730377197 0 0.6222723722457886 0.4149332046508789 0
          0.3845047950744629 0.20200540125370026 0 0.5769323110580444 0.2627502977848053 0
          0.7934312224388123 0.426090806722641 0 0.8737686276435852 0.5574696063995361 0
          0 0 0 1 1 0
          0.7134407162666321 0.28491899371147156 0 0.2561560869216919 0 0
          1 0.6993336081504822 0 0.47891008853912354 0 0
          0.8612840175628662 0.26164010167121887 0 0.7288737893104553 0.12652690708637238 0
          1 0.44098520278930664 0 0.6815431714057922 0 0
          0.8920316100120544 0.1200575977563858 0 1 0.21212109923362732 0
          0.8700000047683716 0 0 1 0 0
          <InformationKey name="L2_NORM_RANGE" location="vtkDataArray" length="2">
            <Value index="0">
              0
            </Value>
            <Value index="1">
              1.4142135624
            </Value>
          </InformationKey>
        </DataArray>
      </Points>
      <Cells>
        <DataArray type="Int64" Name="connectivity" format="ascii" RangeMin="0" RangeMax="33">
          29 32 27 29 27 25
          23 25 16 27 17 25
          17 11 16 16 11 10
          17 16 25 23 10 12
          10 11 5 16 10 23
          12 10 6 6 10 5
          6 5 1 20 23 12
          32 33 30 30 33 31
          32 30 27 30 31 26
          26 31 28 30 26 27
          27 26 22 22 26 18
          27 22 17 17 22 15
          18 26 28 22 18 15
          17 15 11 18 28 19
          19 28 24 18 13 15
          19 24 14 14 24 21
          19 14 13 13 14 9
          19 13 18 9 14 8
          13 9 7 15 13 7
          7 9 4 4 9 8
          7 4 5 0 1 2
          11 15 7 2 1 5
          0 2 3 3 2 4
          3 4 8 11 7 5
          4 2 5 8 14 21
        </DataArray>
        <DataArray type="Int64" Name="offsets" format="ascii" RangeMin="3" RangeMax="150">
          3 6 9 12 15 18
          21 24 27 30 33 36
          39 42 45 48 51 54
          57 60 63 66 69 72
          75 78 81 84 87 90
          93 96 99 102 105 108
          111 114 117 120 123 126
          129 132 135 138 141 144
          147 150
        </DataArray>
        <DataArray type="UInt8" Name="types" format="ascii" RangeMin="5" RangeMax="5">
          5 5 5 5 5 5
          5 5 5 5 5 5
          5 5 5 5 5 5
          5 5 5 5 5 5
          5 5 5 5 5 5
          5 5 5 5 5 5
          5 5 5 5 5 5
          5 5 5 5 5 5
          5 5
        </DataArray>
      </Cells>
    </Piece>
  </UnstructuredGrid>
</VTKFile>
