<?xml version="1.0"?>
<VTKFile type="UnstructuredGrid" version="0.1" byte_order="LittleEndian" header_type="UInt32" compressor="vtkZLibDataCompressor">
  <UnstructuredGrid>
    <Piece NumberOfPoints="354" NumberOfCells="57">
      <PointData>
        <DataArray type="Float64" Name="tem_BC" format="ascii" RangeMin="0" RangeMax="0">
          0 0 0 0 0 0
          0 0 0 0 0 0
          0 0 0 0 0 0
          0 0 0 0 0 0
          0 0 0 0 0 0
          0 0 0 0 0 0
          0 0 0 0 0 0
          0 0 0 0 0 0
          0 0 0 0 0 0
          0 0 0 0 0 0
          0 0 0 0 0 0
          0 0 0 0 0 0
          0 0 0 0 0 0
          0 0 0 0 0 0
          0 0 0 0 0 0
          0 0 0 0 0 0
          0 0 0 0 0 0
          0 0 0 0 0 0
          0 0 0 0 0 0
          0 0 0 0 0 0
          0 0 0 0 0 0
          0 0 0 0 0 0
          0 0 0 0 0 0
          0 0 0 0 0 0
          0 0 0 0 0 0
          0 0 0 0 0 0
          0 0 0 0 0 0
          0 0 0 0 0 0
          0 0 0 0 0 0
          0 0 0 0 0 0
          0 0 0 0 0 0
          0 0 0 0 0 0
          0 0 0 0 0 0
          0 0 0 0 0 0
          0 0 0 0 0 0
          0 0 0 0 0 0
          0 0 0 0 0 0
          0 0 0 0 0 0
          0 0 0 0 0 0
          0 0 0 0 0 0
          0 0 0 0 0 0
          0 0 0 0 0 0
          0 0 0 0 0 0
          0 0 0 0 0 0
          0 0 0 0 0 0
          0 0 0 0 0 0
          0 0 0 0 0 0
          0 0 0 0 0 0
          0 0 0 0 0 0
          0 0 0 0 0 0
          0 0 0 0 0 0
          0 0 0 0 0 0
          0 0 0 0 0 0
          0 0 0 0 0 0
          0 0 0 0 0 0
          0 0 0 0 0 0
          0 0 0 0 0 0
          0 0 0 0 0 0
          0 0 0 0 0 0
        </DataArray>
        <DataArray type="Float64" Name="tem_FIXNO" format="ascii" RangeMin="-1" RangeMax="1">
          -1 -1 -1 -1 1 -1
          -1 -1 -1 1 -1 -1
          -1 -1 -1 -1 -1 -1
          -1 -1 -1 -1 1 -1
          -1 -1 -1 -1 -1 -1
          -1 -1 -1 -1 -1 -1
          -1 -1 -1 -1 1 -1
          -1 -1 -1 -1 -1 -1
          -1 -1 -1 -1 -1 -1
          -1 -1 1 -1 -1 -1
          -1 -1 -1 -1 -1 -1
          -1 -1 -1 -1 -1 -1
          -1 -1 -1 -1 1 -1
          -1 -1 -1 -1 -1 -1
          -1 -1 -1 -1 -1 1
          -1 -1 -1 -1 -1 -1
          -1 -1 -1 -1 -1 -1
          -1 -1 -1 -1 -1 -1
          1 -1 -1 -1 -1 -1
          -1 -1 -1 -1 -1 -1
          -1 -1 -1 -1 -1 -1
          -1 -1 -1 -1 -1 -1
          1 -1 -1 -1 -1 -1
          -1 -1 -1 -1 -1 -1
          -1 -1 -1 -1 -1 -1
          -1 -1 -1 -1 1 -1
          -1 -1 -1 -1 -1 -1
          -1 -1 -1 -1 -1 -1
          -1 -1 -1 -1 -1 -1
          -1 1 -1 -1 -1 -1
          -1 -1 -1 -1 -1 -1
          -1 -1 -1 -1 -1 -1
          -1 -1 -1 -1 1 -1
          -1 -1 -1 -1 -1 -1
          -1 -1 -1 -1 -1 -1
          -1 -1 -1 -1 -1 -1
          -1 -1 -1 -1 -1 1
          -1 -1 -1 -1 -1 -1
          -1 -1 -1 -1 -1 -1
          -1 -1 -1 -1 -1 -1
          -1 -1 -1 -1 1 -1
          1 1 1 -1 -1 -1
          1 -1 1 -1 -1 -1
          -1 -1 1 -1 -1 -1
          1 -1 1 -1 -1 -1
          -1 -1 1 -1 -1 -1
          1 -1 -1 -1 -1 -1
          1 -1 -1 1 -1 -1
          -1 1 -1 -1 1 -1
          -1 1 -1 -1 1 1
          -1 1 -1 -1 -1 -1
          -1 -1 -1 -1 -1 -1
          -1 -1 -1 -1 -1 -1
          -1 -1 -1 -1 -1 1
          -1 1 -1 -1 -1 -1
          -1 1 -1 -1 -1 -1
          -1 -1 -1 -1 -1 -1
          -1 -1 -1 -1 -1 -1
          -1 -1 -1 -1 -1 -1
        </DataArray>
        <DataArray type="Float64" Name="Temperature" format="ascii" RangeMin="0" RangeMax="1.1408672386839211">
          1.05075605633371 0.9956026586646841 1.047595955817817 1.000547478499523 0 1.0070811327992626
          0.9455787788873543 0.9949027554728995 1.0981726269742522 0 1.0005645321537053 0.9996819163547775
          1.0000361552983215 0.9999772262835409 1.0000028103481873 0.9999979833452382 1.0488626985152665 0.9960711015678116
          1.000000249569372 1.0006962187526287 1.052942830464595 0.9998925833563364 0 0.9999889981473202
          1.0001079647482995 1.0000063884105697 0.9999993460772589 0.9999997656110461 1.0000005693159404 0.9999999290037234
          0.9430592150119288 1.0067647072766086 1.0000000377089544 0.9958779647795398 1.0997779974100517 1.0004342927910934
          0.9999764392630704 1.000030860052103 0.9997255332593061 1.0000029747822623 0 1.000000097511339
          0.9999975599888081 0.9999999331995874 1.0000003515245734 0.9999999822810562 1.000010461909473 1.0481489422427763
          0.9962243289726006 0.9999860881401249 1.0002125039024647 0.9999284028652223 1.0511826676765559 0.9999994473687649
          0.9999985850481371 1.0001070976680038 0 1.0000000116554548 1.0000000411642214 1.0000013576329232
          1.0000001167511503 0.9999997809086807 0.9999492907430902 1.0000005678071164 0.9999999961626401 1.0000558118255791
          0.9999999834471818 1.0000060627605747 0.9999997105747643 1.006429462315055 1.0004452467195477 0.9959839965631071
          0.947044919728483 0.9997070527580214 1.1035283456960268 0.9999925749689204 0 0.999999879225591
          1.0000015791448307 1.0000469892162012 1.0000000070460613 1.000000047622626 0.9999951461680756 0.9999957256091213
          1.0000003447086407 1.000000003147607 0.9999227107828956 1.000005994029929 1.0513364284199054 0
          0.9963581476858565 1.0490601128717467 1.0003010389743614 0.9999164750430563 1.0000000012729704 1.0000009928065723
          1.000162695023371 0.9999514735315513 0.9999983716305965 0.9999999291467194 0.9999999404383504 1.0000336119142519
          1.000000007903267 1.000005209365606 0.9999972607583492 0.9999999935807311 0.9999447023487197 1.0000805930341308
          0 1.000000075264384 0.9999987747224104 1.1026917212489846 1.000000002896174 1.0000146973451858
          0.9461685778444406 1.0063551804474173 1.0000000110233325 0.9999570106968223 1.0000004933963191 0.9952037929598448
          1.0006633280174762 0.999077380759411 1.0000000051164626 0.9999584475845019 1.0000041139481735 1.0000594641172562
          1.0000000037685177 0.9999990229522013 1.0001768557749249 1.0000000892925727 1.000010671943576 1.0000000122493822
          0 0.9999819973024259 1.0557812024720248 0.9999993135768787 0.9999999379196997 1.0477237374902715
          0.9962664203859 1.0000000074866882 1.0012566152671427 0.9997880433301974 0.999964309778618 0.9995418245866132
          1.0000494082236489 1.0008338603971085 1.0000012402475957 0.9999999642165914 1.0000003926978795 1.0000000632533736
          0.9999858998740817 1.0000074173841713 1.000130524059287 0.9998447925430124 0 1.0000000236174469
          1.1015638371824523 0.9314693350228531 1.0000000175777217 1.009185103580649 1.0000520014259844 0.9999866950953403
          1.0006657108416608 1.000001448338561 0.9995841117161284 0.9897060660746839 0.9999991133412737 1.0015079923076378
          1.0000000447585538 1.00000008966663 0.9941012580848075 0.9999876614546125 1.0001344082221082 0.9998715875909144
          0.9999998921041503 0 1.0547823522335376 1.0011322921215176 1.0524919730745792 0.9995682494514117
          1.0000017982265412 0.9925883719403241 1.0000147986000798 1.0000000504709845 1.0000010137400488 1.0006037839118571
          1.0086785794612125 0.994398016153451 1.0000003323250493 0.995963108644957 1.0000001254635364 1.000111009940169
          0.9998523146127107 1.0079713827500543 1.0009974322978048 1.0000000836477785 0 1.1312020270150611
          0.9999861510803402 1.0000176122937594 0.9961692667660184 1.0006275554211435 0.892673397518794 0.9998120783635818
          1.0000014925714857 1.0467759849714822 0.9947034576803654 0.9317583455296014 0.9999982595864397 1.0075532308093649
          0.9998818302109012 1.043820595054383 1.0011166619955312 1.0000002674964987 0.9959781093045955 0.9370678609990082
          1.0000157926264792 1.0000702604661074 0.994749831346567 1.0000050286314748 1.0002653572653715 0
          1.0452766071330943 1.1288311393803998 1.000003229261073 1.1408672386839211 1.0074180338541827 1.0548606714780724
          1.0000015004719072 1.1070641097237033 0.938641784438309 1.0007144408757025 0.9961891435003974 1.0563083593522016
          1.0462598196695636 0.9997699975631125 1.1041880316435297 1.0002932790072747 1.000040782329563 1.0081740768660206
          0.9970265004315033 0.9999587655419366 1.0578411303151691 0.9373610215779893 0 1.0000047413953137
          0 0 0 0.9964549692542861 1.1019849146233336 1.0441127678673765
          0 1.0002346982037935 0 1.000139023730157 1.0010571650002058 1.0553126412782952
          1.000081441760237 0.9343638251842141 0 1.003950265772428 1.0000251090138976 1.1017773769475383
          0 1.0407364984925944 0 1.060443568882472 0.996937220451594 1.001086510265452
          0.9988262649948906 1.0077587998885522 0 1.0001202692072433 1.1041610566819027 0.9561853659082852
          0 1.0074085973897426 1.0609856790581356 1.0035433632208708 1.0027520409740747 1.003314421519805
          0 1.0008233705728096 1.0570783995050035 0 0.9331251463437473 0.9774124610336868
          0.9600521634709829 0 1.0834614011082542 1.0026584543297936 0 1.0802221353397663
          1.0235079172242127 0 1.1004175096984556 1.0562794645191877 0 0
          1.0485714279486282 0 0.9999999689055132 0.9999994543035101 1.0000000427613303 1.0000000422764468
          0.9999999896469695 1.0000000013689425 1.0000000035787975 0.9999998873440896 1.0000000134931748 1.0000000087125942
          0.9999994699219353 1.0000002003404245 0.9999991992139002 1.0000002240966022 0.9999925390729162 1.0000006734327826
          0.9998414772222225 0.9972104690643008 1.0002102358237837 1.000011104907968 0.9917363067128199 0
          1.037568622612254 0 1.0016392570195782 0.9999996135191093 1.0000000522217858 1.0000000760406127
          0.9999999877055648 0 0.9499120536839115 1.0972426643520055 0.9999990832893088 1.0000001171916992
          1.0000002776390797 0.9999999675680936 0.9957203549931265 1.0061062951384512 0.9996628378208785 1.000487573022
          1.0001190825245334 0.9998976685706145 0.9999975126599402 1.0000006926955773 1.0000005152285638 0.9999999185022823
          0.9999760915380952 1.0000396744198439 1.0000059983209513 0.9999880996373749 1.0000030008030334 0.9999991835442876
        </DataArray>
      </PointData>
      <CellData>
        <DataArray type="UInt8" Name="vtkGhostType" format="ascii" RangeMin="0" RangeMax="1">
          0 1 0 0 0 0
          1 0 1 0 0 0
          0 0 0 0 0 0
          0 0 0 0 0 0
          0 0 0 0 0 0
          0 0 0 0 0 0
          0 0 0 0 0 0
          0 0 0 0 1 0
          1 1 0 1 0 0
          1 0 0 1 0 0
          0 0 1 0 0 1
          0 0 0 0 0 0
          0 0 0 0 0 0
          0 0 0 0 0 0
          0 0 0 0 0 0
          0 0 0 0 0 0
          0 0 0 0 0 0
        </DataArray>
      </CellData>
      <Points>
        <DataArray type="Float32" Name="Points" NumberOfComponents="3" format="ascii" RangeMin="0.2857142984867096" RangeMax="1.118033988749895">
          0.9375420808792114 0.476622611284256 0 0.9034063220024109 0.47986820340156555 0
          0.9687709808349609 0.4704540967941284 0 0.869270384311676 0.4831139147281647 0
          1 0.4642857015132904 0 0.901470422744751 0.44303369522094727 0
          0.9362633228302002 0.4377439022064209 0 0.8666774034500122 0.44832339882850647 0
          0.9681317210197449 0.4331575930118561 0 1 0.4285714030265808 0
          0.8371533751487732 0.4504568874835968 0 0.807629406452179 0.45259028673171997 0
          0.7808763980865479 0.46105191111564636 0 0.7541232705116272 0.46951359510421753 0
          0.7259507775306702 0.48208749294281006 0 0.6977782845497131 0.49466150999069214 0
          0.9355382919311523 0.4049479067325592 0 0.9017974138259888 0.40902599692344666 0
          0.6664224863052368 0.4999487102031708 0 0.86805659532547 0.4131040871143341 0
          0.967769205570221 0.3989025056362152 0 0.8378648161888123 0.4170953035354614 0
          1 0.3928571045398712 0 0.7810280919075012 0.4306977093219757 0
          0.8076729774475098 0.42108649015426636 0 0.7543830871582031 0.44030898809432983 0
          0.7260802984237671 0.4502258002758026 0 0.6350666880607605 0.505236029624939 0
          0.6977776288986206 0.4601426124572754 0 0.6663475036621094 0.46466919779777527 0
          0.9348133206367493 0.3721519112586975 0 0.9021245241165161 0.37501829862594604 0
          0.6022595763206482 0.5080611705780029 0 0.8694357872009277 0.37788480520248413 0
          0.967406690120697 0.36464738845825195 0 0.8385761976242065 0.38373368978500366 0
          0.7546430230140686 0.411104291677475 0 0.7811797857284546 0.40034350752830505 0
          0.8077166080474854 0.38958269357681274 0 0.7262098789215088 0.4183639883995056 0
          1 0.3571428954601288 0 0.6349173784255981 0.4691959023475647 0
          0.6977769136428833 0.42562368512153625 0 0.5694525241851807 0.5108863711357117 0
          0.6662725210189819 0.4293898046016693 0 0.6017956137657166 0.47155970335006714 0
          0.7521131038665771 0.3778739869594574 0 0.9343792200088501 0.3316020965576172 0
          0.9008427858352661 0.3355739116668701 0 0.777775228023529 0.3655205965042114 0
          0.8673064112663269 0.33954569697380066 0 0.8353717923164368 0.3463563919067383 0
          0.967189610004425 0.32651540637016296 0 0.634768009185791 0.4331558048725128 0
          0.7243524193763733 0.38397088646888733 0 0.8034372925758362 0.35316720604896545 0
          1 0.3214285969734192 0 0.5347262024879456 0.5054432153701782 0
          0.5686737895011902 0.4739235043525696 0 0.6965916752815247 0.3900679051876068 0
          0.6013315916061401 0.43505820631980896 0 0.6661351919174194 0.39287859201431274 0
          0.7495833039283752 0.34464380145072937 0 0.6356788277626038 0.39568930864334106 0
          0.5343369245529175 0.4691045880317688 0 0.7743706703186035 0.3306976854801178 0
          0.5 0.5 0 0.722494900226593 0.3495779037475586 0
          0.5678951144218445 0.4369606077671051 0 0.8995609879493713 0.2961294949054718 0
          0.8321675062179565 0.3089790940284729 0 0.8651769757270813 0.3012065887451172 0
          0.9339451193809509 0.2910524010658264 0 0.7991580963134766 0.3167515993118286 0
          0.9669724702835083 0.2883833050727844 0 0.6954064965248108 0.354512095451355 0
          1 0.2857142984867096 0 0.6024900078773499 0.39611369371414185 0
          0.6659979820251465 0.35636740922927856 0 0.7458627820014954 0.3168117105960846 0
          0.5 0.4642857015132904 0 0.5339475870132446 0.43276599049568176 0
          0.7202073931694031 0.3185797929763794 0 0.636589527130127 0.35822269320487976 0
          0.5693011283874512 0.396538108587265 0 0.4638980031013489 0.48771318793296814 0
          0.7675126791000366 0.2957780957221985 0 0.6945518851280212 0.3203479051589966 0
          0.967010498046875 0.25084638595581055 0 1 0.25 0
          0.8978469967842102 0.25593239068984985 0 0.9340211153030396 0.2516928017139435 0
          0.8616729974746704 0.2601720094680786 0 0.8254178166389465 0.2674582004547119 0
          0.42765530943870544 0.5104718208312988 0 0.60364830493927 0.35716909170150757 0
          0.7891625761985779 0.2747443914413452 0 0.7421423196792603 0.288979709148407 0
          0.6646900773048401 0.3210023045539856 0 0.5 0.4285714030265808 0
          0.5346506237983704 0.3946976065635681 0 0.7179198265075684 0.28758180141448975 0
          0.4638980031013489 0.45199888944625854 0 0.6348282098770142 0.3216567039489746 0
          0.5707072019577026 0.3561156094074249 0 0.4277958869934082 0.4754262864589691 0
          0.6936972737312317 0.28618380427360535 0 0.7606548070907593 0.2608585059642792 0
          1 0.2142857015132904 0 0.5 0.3928571045398712 0
          0.601657509803772 0.3209590017795563 0 0.9670485258102417 0.21330949664115906 0
          0.397512286901474 0.49306461215019226 0 0.6633821129798889 0.2856372892856598 0
          0.9340971112251282 0.21233320236206055 0 0.8961330056190491 0.21573540568351746 0
          0.46476438641548157 0.41712871193885803 0 0.7297950983047485 0.2560133934020996 0
          0.5353536009788513 0.3566291928291321 0 0.85816890001297 0.219137504696846 0
          0.8186681270599365 0.2259373962879181 0 0.7791671752929688 0.232737198472023 0
          0.4286623001098633 0.4405561089515686 0 0.6330668926239014 0.2850908041000366 0
          0.5684868097305298 0.3202612102031708 0 0.6989355087280273 0.2511681914329529 0
          0.39842909574508667 0.45795249938964844 0 0.5 0.3571428954601288 0
          0.7416704297065735 0.22444500029087067 0 0.46476438641548157 0.38141441345214844 0
          0.5996667146682739 0.28474879264831543 0 0.36814549565315247 0.4755907952785492 0
          1 0.1785714030265808 0 0.6656681895256042 0.24890069663524628 0
          0.9658234119415283 0.17729300260543823 0 0.5342434048652649 0.3208448886871338 0
          0.42952871322631836 0.4056859016418457 0 0.9316468238830566 0.1760144978761673 0
          0.8938813805580139 0.17741690576076508 0 0.39929550886154175 0.42308229207992554 0
          0.856115996837616 0.17881929874420166 0 0.8179970979690552 0.1835729032754898 0
          0.5662664771080017 0.2844068109989166 0 0.7041736841201782 0.21615269780158997 0
          0.6324008703231812 0.24663309752941132 0 0.7798781991004944 0.18832659721374512 0
          0.5 0.3214285969734192 0 0.36906230449676514 0.44047871232032776 0
          0.464942991733551 0.3463132083415985 0 0.429707407951355 0.3705846965312958 0
          0.5996401906013489 0.2473704069852829 0 0.5331332087516785 0.28506049513816833 0
          0.6679543256759644 0.2121639996767044 0 0.7432231903076172 0.18359559774398804 0
          1 0.14285710453987122 0 0.3992376923561096 0.38801249861717224 0
          0.9645982980728149 0.1412764936685562 0 0.9291964769363403 0.13969579339027405 0
          0.369004487991333 0.4054087996482849 0 0.891629695892334 0.1390984058380127 0
          0.566879391670227 0.2481077015399933 0 0.5 0.2857142984867096 0
          0.70656818151474 0.17886470258235931 0 0.464942991733551 0.3105989098548889 0
          0.6317350268363953 0.2081754058599472 0 0.8540629744529724 0.13850100338459015 0
          0.42988601326942444 0.33548349142074585 0 0.8173261284828186 0.1412084996700287 0
          0.33816200494766235 0.4222559928894043 0 0.3994162976741791 0.35291120409965515 0
          0.78058922290802 0.14391590654850006 0 0.5334396958351135 0.24905389547348022 0
          0.5996137261390686 0.20999200642108917 0 0.6707308888435364 0.1759222000837326 0
          0.3689466118812561 0.3703390061855316 0 1 0.10714290291070938 0
          0.9659684896469116 0.1065601035952568 0 0.7447760105133057 0.14274629950523376 0
          0.9319369196891785 0.10597729682922363 0 0.5674924254417419 0.2118086963891983 0
          0.4651781916618347 0.27586889266967773 0 0.8941988945007324 0.10570749640464783 0
          0.5 0.25 0 0.3381041884422302 0.387186199426651 0
          0.43012121319770813 0.30075350403785706 0 0.6348935961723328 0.17297980189323425 0
          0.8564608097076416 0.10543770343065262 0 0.7089627981185913 0.14157670736312866 0
          0.40075311064720154 0.3192937970161438 0 0.8186302781105042 0.10626920312643051 0
          0.3702835142612457 0.33672159910202026 0 0.5337461829185486 0.21304720640182495 0
          0.602311909198761 0.17453379929065704 0 0.780799925327301 0.1071007028222084 0
          0.6735075116157532 0.13968050479888916 0 0.33893460035324097 0.35230210423469543 0
          1 0.0714285671710968 0 0.9673386812210083 0.071843720972538 0
          0.4303564131259918 0.2660234868526459 0 0.4651781916618347 0.24015459418296814 0
          0.7458996772766113 0.10605800151824951 0 0.569730281829834 0.17608770728111267 0
          0.9346774220466614 0.07225886732339859 0 0.5 0.2142857015132904 0
          0.4009883999824524 0.284563809633255 0 0.8967679738998413 0.07231666147708893 0
          0.638052225112915 0.1377841979265213 0 0.858858585357666 0.07237444818019867 0
          0.3716202974319458 0.3031041920185089 0 0.710999608039856 0.10501539707183838 0
          0.5348650813102722 0.17732959985733032 0 0.819934606552124 0.07132992148399353 0
          0.6050102114677429 0.13907550275325775 0 0.3402715027332306 0.3186846971511841 0
          0.6751102209091187 0.10406740009784698 0 0.781010627746582 0.0702853873372078 0
          0.43269258737564087 0.22810310125350952 0 0.46751439571380615 0.20223429799079895 0
          0.5719681978225708 0.140366792678833 0 0.39920228719711304 0.24920479953289032 0
          0.5 0.1785714030265808 0 1 0.035714291036129 0
          0.7470234036445618 0.06936974078416824 0 0.9658122062683105 0.035921860486269 0
          0.36983421444892883 0.26774510741233826 0 0.9316244125366211 0.03612944111227989 0
          0.6392208933830261 0.10311940312385559 0 0.8948125839233398 0.036158330738544464 0
          0.3412770926952362 0.2837732136249542 0 0.8580006957054138 0.036187220364809036 0
          0.713036298751831 0.0684540867805481 0 0.5359840989112854 0.1416119933128357 0
          0.6064099073410034 0.10456260293722153 0 0.8206815719604492 0.035664960741996765 0
          0.6767128705978394 0.06845434755086899 0 0.43502870202064514 0.19018280506134033 0
          0.7833623886108398 0.035142701119184494 0 0.46751439571380615 0.16651999950408936 0
          0.4015384018421173 0.21128450334072113 0 0.5735989212989807 0.10600580275058746 0
          0.5 0.14285710453987122 0 0.3680481016635895 0.23238609731197357 0
          0.7485116720199585 0.03468487039208412 0 0.6403895020484924 0.06845460832118988 0
          1 0 0 0.33949100971221924 0.24841420352458954 0
          0.964285671710968 0 0 0.9285714030265808 0 0
          0.8928570747375488 0 0 0.5367993712425232 0.10657429695129395 0
          0.7136610150337219 0.03422703966498375 0 0.6078096032142639 0.07004973292350769 0
          0.8571429252624512 0 0 0.4361259937286377 0.15635940432548523 0
          0.8214285969734192 0 0 0.4047865867614746 0.17659559845924377 0
          0.46861159801483154 0.13269659876823425 0 0.6776422262191772 0.03422718122601509 0
          0.3712962865829468 0.1976972073316574 0 0.5752295851707458 0.0716448500752449 0
          0.785714328289032 0 0 0.5 0.10714290291070938 0
          0.3403986096382141 0.21428219974040985 0 0.641623318195343 0.03422731161117554 0
          0.75 0 0 0.5376148223876953 0.07153671234846115 0
          0.714285671710968 0 0 0.6074761748313904 0.035024870187044144 0
          0.43722328543663025 0.12253610044717789 0 0.40588390827178955 0.14277219772338867 0
          0.37454450130462646 0.16300830245018005 0 0.46861159801483154 0.09698233008384705 0
          0.6785714030265808 0 0 0.3436467945575714 0.1795932948589325 0
          0.5733290910720825 0.03582242876291275 0 0.5 0.0714285671710968 0
          0.6428570747375488 0 0 0.43909120559692383 0.09217772632837296 0
          0.5366644859313965 0.035768359899520874 0 0.406676709651947 0.10764270275831223 0
          0.3753373920917511 0.127878800034523 0 0.4704796075820923 0.06662397086620331 0
          0.6071429252624512 0 0 0.3445572853088379 0.1448287069797516 0
          0.5 0.035714291036129 0 0.5714285969734192 0 0
          0.4409591853618622 0.061819370836019516 0 0.4085446894168854 0.0772843286395073 0
          0.37613019347190857 0.09274929016828537 0 0.535714328289032 0 0
          0.4704796075820923 0.030909689143300056 0 0.34535008668899536 0.10969919711351395 0
          0.5 0 0 0.4347653090953827 0.030909689143300056 0
          0.34610840678215027 0.07463052123785019 0 0.4642857015132904 0 0
          0.3990510106086731 0.030909689143300056 0 0.3666365146636963 0.046374641358852386 0
          0.4285714030265808 0 0 0.3928571045398712 0 0
          0.33661478757858276 0.028255870565772057 0 0.3571428954601288 0 0
          0.36722859740257263 0.510702908039093 0 0.30746808648109436 0.47425660490989685 0
          0.3373483121395111 0.49247971177101135 0 0.33826521039009094 0.45736759901046753 0
          0.42751461267471313 0.5455173254013062 0 0.3973715901374817 0.5281100869178772 0
          0.46375730633735657 0.5227587223052979 0 0.5 0.5714285969734192 0
          0.5 0.535714328289032 0 0.46375730633735657 0.5584729909896851 0
          0.30726170539855957 0.4040333926677704 0 0.30736491084098816 0.4391449987888336 0
          0.3089227080345154 0.33426520228385925 0 0.3080922067165375 0.3691492974758148 0
          0.3109338879585266 0.2644422948360443 0 0.309928297996521 0.29935380816459656 0
          0.3127489984035492 0.19617819786071777 0 0.3145700991153717 0.12664909660816193 0
          0.3136594891548157 0.16141369938850403 0 0.3118413984775543 0.23031030595302582 0
          0.31608670949935913 0.05651174113154411 0 0.2857142984867096 0 0
          0.30090048909187317 0.028255870565772057 0 0.3214285969734192 0 0
          0.3153283894062042 0.09158041328191757 0 0.5701119899749756 0.5802199840545654 0
          0.5697821974754333 0.5455532073974609 0 0.5350559949874878 0.5758243203163147 0
          0.5348911285400391 0.5406336784362793 0 1 0.5 0
          0.9388208985328674 0.5155013203620911 0 0.9694104194641113 0.5077505707740784 0
          0.6382678747177124 0.5822402238845825 0 0.6366673111915588 0.5437381267547607 0
          0.6041899919509888 0.581230103969574 0 0.6032248139381409 0.5446456074714661 0
          0.8718634247779846 0.5179042816162109 0 0.9053421020507812 0.5167027711868286 0
          0.8079180717468262 0.5189486145973206 0 0.839890718460083 0.5184264183044434 0
          0.8077738285064697 0.4857693910598755 0 0.8385220766067505 0.4844416081905365 0
          0.700543999671936 0.5552669167518616 0 0.6991611123085022 0.5249642133712769 0
          0.669405996799469 0.5687536001205444 0 0.6679142117500305 0.534351110458374 0
          0.7554606795310974 0.5333350896835327 0 0.7816894054412842 0.5261418223381042 0
          0.7547919750213623 0.5014243721961975 0 0.781282901763916 0.4935969114303589 0
          0.7280024290084839 0.5443009734153748 0 0.7269765734672546 0.5131943225860596 0
          <InformationKey name="L2_NORM_RANGE" location="vtkDataArray" length="2">
            <Value index="0">
              0.28571429849
            </Value>
            <Value index="1">
              1.1180339887
            </Value>
          </InformationKey>
        </DataArray>
      </Points>
      <Cells>
        <DataArray type="Int64" Name="connectivity" format="ascii" RangeMin="0" RangeMax="353">
          76 40 30 72 56 34
          47 74 52 309 66 43
          327 310 57 328 329 330
          40 9 6 30 22 8
          16 34 20 9 331 332
          6 4 333 0 8 2
          327 43 27 334 328 32
          335 336 337 43 68 53
          27 58 60 41 32 45
          6 332 338 7 0 339
          3 5 1 30 6 7
          33 16 5 19 31 17
          72 30 33 71 47 31
          50 69 48 7 338 340
          11 3 341 342 10 343
          33 7 11 38 19 10
          24 35 21 71 33 38
          73 50 35 55 70 51
          334 27 15 344 335 18
          345 346 347 27 53 42
          15 41 44 28 18 29
          53 83 75 42 63 78
          59 44 61 42 75 62
          36 59 67 46 39 54
          15 42 36 13 28 39
          25 14 26 340 348 13
          11 349 350 12 342 351
          11 13 36 38 12 25
          37 24 23 38 36 62
          73 37 46 65 55 49
          15 13 348 344 14 350
          352 345 353 247 244 196
          202 246 221 197 225 223
          252 247 202 207 248 225
          205 229 227 203 240 218
          179 220 231 201 191 210
          196 154 157 202 175 156
          178 197 176 161 203 179
          142 182 191 160 151 171
          154 108 114 157 132 111
          137 156 134 127 161 142
          104 146 151 124 118 135
          108 76 72 114 89 74
          91 111 88 99 127 104
          68 109 118 84 81 100
          66 99 68 43 80 81
          58 57 64 243 230 187
          206 234 209 194 226 214
          68 104 83 53 84 95
          63 60 77 104 142 123
          83 124 130 103 95 110
          142 179 164 123 160 172
          144 130 150 179 218 206
          164 201 212 185 172 192
          230 215 170 187 222 193
          177 209 200 215 207 165
          170 211 186 167 193 189
          207 202 157 165 205 178
          159 186 181 157 114 119
          165 137 115 140 159 138
          114 72 71 119 91 69
          92 115 90 170 165 119
          121 167 140 120 145 141
          206 187 143 164 194 162
          152 185 173 187 170 121
          143 177 145 128 162 153
          119 71 73 121 92 70
          96 120 93 83 123 106
          75 103 113 87 78 98
          123 164 143 106 144 152
          125 113 133 143 121 97
          106 128 107 101 125 117
          75 106 97 62 87 101
          79 67 82 73 62 97
          121 65 79 107 96 86
          275 292 285 259 284 289
          274 265 278 240 275 259
          218 261 265 239 231 249
          285 276 243 259 282 263
          251 274 267 260 252 207
          215 254 229 211 236 233
          276 266 230 243 272 250
          234 263 257 266 260 215
          230 264 236 222 250 242
          259 243 206 218 251 226
          212 239 232
        </DataArray>
        <DataArray type="Int64" Name="offsets" format="ascii" RangeMin="9" RangeMax="513">
          9 18 27 36 45 54
          63 72 81 90 99 108
          117 126 135 144 153 162
          171 180 189 198 207 216
          225 234 243 252 261 270
          279 288 297 306 315 324
          333 342 351 360 369 378
          387 396 405 414 423 432
          441 450 459 468 477 486
          495 504 513
        </DataArray>
        <DataArray type="UInt8" Name="types" format="ascii" RangeMin="28" RangeMax="28">
          28 28 28 28 28 28
          28 28 28 28 28 28
          28 28 28 28 28 28
          28 28 28 28 28 28
          28 28 28 28 28 28
          28 28 28 28 28 28
          28 28 28 28 28 28
          28 28 28 28 28 28
          28 28 28 28 28 28
          28 28 28
        </DataArray>
      </Cells>
    </Piece>
  </UnstructuredGrid>