<?xml version="1.0"?>
<VTKFile type="UnstructuredGrid" version="0.1" byte_order="LittleEndian" header_type="UInt32" compressor="vtkZLibDataCompressor">
  <UnstructuredGrid>
    <Piece NumberOfPoints="364" NumberOfCells="58">
      <PointData>
        <DataArray type="Float64" Name="tem_BC" format="ascii" RangeMin="0" RangeMax="0">
          0 0 0 0 0 0
          0 0 0 0 0 0
          0 0 0 0 0 0
          0 0 0 0 0 0
          0 0 0 0 0 0
          0 0 0 0 0 0
          0 0 0 0 0 0
          0 0 0 0 0 0
          0 0 0 0 0 0
          0 0 0 0 0 0
          0 0 0 0 0 0
          0 0 0 0 0 0
          0 0 0 0 0 0
          0 0 0 0 0 0
          0 0 0 0 0 0
          0 0 0 0 0 0
          0 0 0 0 0 0
          0 0 0 0 0 0
          0 0 0 0 0 0
          0 0 0 0 0 0
          0 0 0 0 0 0
          0 0 0 0 0 0
          0 0 0 0 0 0
          0 0 0 0 0 0
          0 0 0 0 0 0
          0 0 0 0 0 0
          0 0 0 0 0 0
          0 0 0 0 0 0
          0 0 0 0 0 0
          0 0 0 0 0 0
          0 0 0 0 0 0
          0 0 0 0 0 0
          0 0 0 0 0 0
          0 0 0 0 0 0
          0 0 0 0 0 0
          0 0 0 0 0 0
          0 0 0 0 0 0
          0 0 0 0 0 0
          0 0 0 0 0 0
          0 0 0 0 0 0
          0 0 0 0 0 0
          0 0 0 0 0 0
          0 0 0 0 0 0
          0 0 0 0 0 0
          0 0 0 0 0 0
          0 0 0 0 0 0
          0 0 0 0 0 0
          0 0 0 0 0 0
          0 0 0 0 0 0
          0 0 0 0 0 0
          0 0 0 0 0 0
          0 0 0 0 0 0
          0 0 0 0 0 0
          0 0 0 0 0 0
          0 0 0 0 0 0
          0 0 0 0 0 0
          0 0 0 0 0 0
          0 0 0 0 0 0
          0 0 0 0 0 0
          0 0 0 0 0 0
          0 0 0 0
        </DataArray>
        <DataArray type="Float64" Name="tem_FIXNO" format="ascii" RangeMin="-1" RangeMax="1">
          1 1 1 -1 1 1
          -1 -1 -1 1 1 -1
          -1 -1 -1 1 1 -1
          -1 -1 -1 -1 -1 -1
          1 1 -1 -1 -1 -1
          -1 -1 -1 1 1 -1
          -1 -1 -1 -1 -1 -1
          -1 1 1 -1 -1 -1
          -1 -1 -1 -1 -1 -1
          -1 -1 -1 1 1 -1
          -1 -1 -1 -1 -1 -1
          -1 -1 -1 -1 -1 -1
          -1 1 1 -1 -1 -1
          -1 -1 -1 -1 -1 -1
          -1 -1 -1 -1 -1 1
          1 -1 -1 -1 -1 -1
          -1 -1 -1 -1 -1 -1
          -1 -1 -1 -1 -1 -1
          -1 -1 1 1 -1 -1
          -1 -1 -1 -1 -1 -1
          -1 -1 -1 -1 -1 -1
          -1 -1 -1 -1 -1 -1
          -1 -1 -1 1 1 -1
          -1 -1 -1 -1 -1 -1
          -1 -1 -1 -1 -1 -1
          -1 -1 -1 -1 -1 -1
          -1 -1 -1 -1 -1 1
          1 -1 -1 -1 -1 -1
          -1 -1 -1 -1 -1 -1
          -1 -1 -1 -1 -1 -1
          -1 -1 -1 -1 -1 -1
          -1 -1 1 1 -1 -1
          -1 -1 -1 -1 -1 -1
          -1 -1 -1 -1 -1 -1
          -1 -1 -1 -1 -1 1
          -1 -1 -1 -1 -1 -1
          -1 -1 -1 -1 -1 -1
          -1 -1 -1 -1 -1 -1
          -1 -1 1 -1 -1 -1
          -1 -1 -1 -1 -1 -1
          -1 -1 -1 -1 -1 -1
          -1 -1 1 -1 -1 -1
          -1 -1 -1 -1 -1 -1
          -1 -1 -1 -1 -1 -1
          1 -1 -1 -1 -1 -1
          -1 -1 -1 -1 -1 -1
          -1 -1 -1 -1 -1 1
          -1 -1 -1 -1 -1 -1
          -1 -1 -1 -1 -1 -1
          -1 -1 -1 1 -1 -1
          -1 -1 -1 -1 -1 -1
          -1 -1 -1 -1 -1 -1
          -1 -1 -1 -1 -1 -1
          -1 -1 -1 -1 1 -1
          1 -1 -1 -1 -1 -1
          -1 -1 -1 -1 -1 -1
          -1 -1 -1 -1 -1 -1
          -1 -1 -1 1 -1 1
          -1 -1 -1 -1 -1 -1
          -1 -1 -1 -1 -1 -1
          -1 -1 -1 -1
        </DataArray>
      </PointData>
      <CellData>
        <DataArray type="UInt8" Name="vtkGhostType" format="ascii" RangeMin="0" RangeMax="0">
          0 0 0 0 0 0
          0 0 0 0 0 0
          0 0 0 0 0 0
          0 0 0 0 0 0
          0 0 0 0 0 0
          0 0 0 0 0 0
          0 0 0 0 0 0
          0 0 0 0 0 0
          0 0 0 0 0 0
          0 0 0 0 0 0
          0 0 0 0 0 0
          0 0 0 0 0 0
          0 0 0 0 0 0
          0 0 0 0 0 0
          0 0 0 0 0 0
          0 0 0 0 0 0
          0 0 0 0 0 0
          0 0 0
        </DataArray>
      </CellData>
      <Points>
        <DataArray type="Float32" Name="Points" NumberOfComponents="3" format="ascii" RangeMin="0.629026472439632" RangeMax="1.4142135623730951">
          1 1 0 1 0.964285671710968 0
          0.964285671710968 1 0 0.9647406935691833 0.9646815061569214 0
          1 0.9285714030265808 0 0.9285714030265808 1 0
          0.9294813275337219 0.9650774002075195 0 0.9651955962181091 0.9293630719184875 0
          0.9303911924362183 0.9301546812057495 0 0.8928570747375488 1 0
          1 0.8928570747375488 0 0.9645162224769592 0.8934670090675354 0
          0.8927130103111267 0.9648640751838684 0 0.9290325045585632 0.8940768837928772 0
          0.8925688862800598 0.929728090763092 0 0.8571429252624512 1 0
          1 0.8571429252624512 0 0.9638369083404541 0.857571005821228 0
          0.855944812297821 0.9646506905555725 0 0.8922634720802307 0.8957728147506714 0
          0.9276736974716187 0.8579990863800049 0 0.8547465801239014 0.9293015003204346 0
          0.8919581174850464 0.861817479133606 0 0.855494499206543 0.8974688053131104 0
          1 0.8214285969734192 0 0.8214285969734192 1 0
          0.9648085832595825 0.8219649195671082 0 0.8199635744094849 0.9657683968544006 0
          0.9296172261238098 0.8225011229515076 0 0.8184986114501953 0.9315367937088013 0
          0.8562424182891846 0.8656359910964966 0 0.8943315148353577 0.8252105712890625 0
          0.818484902381897 0.8978080153465271 0 0.785714328289032 1 0
          1 0.785714328289032 0 0.9657803177833557 0.7863587141036987 0
          0.7839823961257935 0.9668861031532288 0 0.8590458035469055 0.8279200792312622 0
          0.9315605759620667 0.787003219127655 0 0.8184711933135986 0.8640791773796082 0
          0.7822505235671997 0.9337722063064575 0 0.896704912185669 0.7886037230491638 0
          0.7814751863479614 0.8981472253799438 0 0.75 1 0
          1 0.75 0 0.9653226137161255 0.7519297003746033 0
          0.8618491888046265 0.7902042269706726 0 0.7485308051109314 0.9666925072669983 0
          0.8180282115936279 0.8231855034828186 0 0.9306452870368958 0.753859281539917 0
          0.7807000279426575 0.862522304058075 0 0.7470616102218628 0.9333850741386414 0
          0.8976148962974548 0.7535747289657593 0 0.7456765174865723 0.8995615243911743 0
          0.8645845055580139 0.7532901167869568 0 0.817585289478302 0.7822918891906738 0
          0.9648650288581848 0.717500627040863 0 0.714285671710968 1 0
          1 0.714285671710968 0 0.7770106792449951 0.818450927734375 0
          0.9297299981117249 0.7207154035568237 0 0.7442914247512817 0.8657379150390625 0
          0.7130792140960693 0.9664989709854126 0 0.7118728160858154 0.93299800157547 0
          0.898524820804596 0.71854567527771 0 0.7098777890205383 0.9009758234024048 0
          0.8265063166618347 0.7457581162452698 0 0.7412981986999512 0.8268386125564575 0
          0.8673197031021118 0.716376006603241 0 0.9667292833328247 0.6826865077018738 0
          0.7733213901519775 0.7743796110153198 0 0.7078828811645508 0.8689535856246948 0
          0.9334586262702942 0.6868016123771667 0 0.6785714030265808 1 0
          1 0.6785714030265808 0 0.6769015789031982 0.9668927788734436 0
          0.9021003842353821 0.6856228113174438 0 0.6752316951751709 0.933785617351532 0
          0.8354272246360779 0.7092244029045105 0 0.7884281277656555 0.7382261157035828 0
          0.7383049130439758 0.787939190864563 0 0.7055857181549072 0.8352261781692505 0
          0.8707423210144043 0.684444010257721 0 0.6726933121681213 0.9023910164833069 0
          0.9371871948242188 0.6528877019882202 0 0.9685935974121094 0.6478723883628845 0
          0.6701548099517822 0.8709962964057922 0 0.8035348057746887 0.7020726799964905 0
          0.7032884955406189 0.8014988899230957 0 0.6428570747375488 1 0
          1 0.6428570747375488 0 0.8394752144813538 0.6787191033363342 0
          0.905676007270813 0.6526998281478882 0 0.7452778220176697 0.7449895739555359 0
          0.6407238841056824 0.9672865867614746 0 0.6385906934738159 0.9345731735229492 0
          0.7198070287704468 0.7606034874916077 0 0.6693472862243652 0.8364481925964355 0
          0.8741648197174072 0.6525118947029114 0 0.7609702944755554 0.7150359153747559 0
          0.6355087161064148 0.9038060903549194 0 0.6943361759185791 0.7762172818183899 0
          0.8082082271575928 0.6729943156242371 0 0.8435232043266296 0.648213803768158 0
          0.9376928210258484 0.6193094253540039 0 0.7766628265380859 0.6850820779800415 0
          0.6685398817062378 0.8019000887870789 0 0.9688463807106018 0.6132261157035828 0
          0.6324266791343689 0.8730391263961792 0 0.9058969020843506 0.6199936866760254 0
          0.6071429252624512 1 0 1 0.6071429252624512 0
          0.604718029499054 0.967087984085083 0 0.8741011023521423 0.6206778883934021 0
          0.701309084892273 0.7332677245140076 0 0.7850459814071655 0.6619881987571716 0
          0.7172343134880066 0.7155997157096863 0 0.6331089735031128 0.8376702070236206 0
          0.6853839159011841 0.7509357929229736 0 0.812881588935852 0.6439157724380493 0
          0.602293074131012 0.9341760277748108 0 0.6645231246948242 0.7726112008094788 0
          0.7335125803947449 0.6918455958366394 0 0.5999404191970825 0.901771605014801 0
          0.8436517715454102 0.6176503896713257 0 0.7497909069061279 0.6680914759635925 0
          0.7934290766716003 0.6388943791389465 0 0.6337913274765015 0.8023014068603516 0
          0.9381985068321228 0.5857312083244324 0 0.7618837952613831 0.6509822010993958 0
          0.969099223613739 0.5785799026489258 0 0.5975878238677979 0.8693671226501465 0
          0.9061179161071777 0.5872874855995178 0 0.6605064272880554 0.7433223128318787 0
          0.8132026195526123 0.6146228909492493 0 0.5714285969734192 1 0
          1 0.5714285969734192 0 0.8740373253822327 0.5888438820838928 0
          0.7739766240119934 0.633872926235199 0 0.6347100734710693 0.7690051198005676 0
          0.6734675765037537 0.7163240909576416 0 0.5687119960784912 0.9668893814086914 0
          0.5981969833374023 0.834998607635498 0 0.7912995219230652 0.6140010952949524 0
          0.5659953951835632 0.933778703212738 0 0.6864287257194519 0.6893259882926941 0
          0.8437803983688354 0.5870869159698486 0 0.7097380757331848 0.6664373278617859 0
          0.7330474257469177 0.6435484886169434 0 0.564372181892395 0.8997370004653931 0
          0.7512218952178955 0.6284639239311218 0 0.5988062024116516 0.8006300926208496 0
          0.635628879070282 0.7357087135314941 0 0.7693964242935181 0.6133794188499451 0
          0.9385097026824951 0.5506162047386169 0 0.8135235905647278 0.5853298902511597 0
          0.562748908996582 0.8656951785087585 0 0.9057300090789795 0.5519950985908508 0
          0.9692547917366028 0.5431652069091797 0 0.7891699075698853 0.589107871055603 0
          0.5994893908500671 0.7670581936836243 0 0.535714328289032 1 0
          1 0.535714328289032 0 0.8729503750801086 0.5533741116523743 0
          0.6456260085105896 0.6993805170059204 0 0.5343559980392456 0.9655874967575073 0
          0.5632849931716919 0.8323270082473755 0 0.7648162245750427 0.5928859114646912 0
          0.740559995174408 0.6059457063674927 0 0.532997727394104 0.9311751127243042 0
          0.841835618019104 0.5527567267417908 0 0.7163038849830627 0.6190055012702942 0
          0.68596351146698 0.641028881072998 0 0.5321860909461975 0.8962970972061157 0
          0.5638210773468018 0.7989588975906372 0 0.6001726984977722 0.7334864139556885 0
          0.655623197555542 0.6630523204803467 0 0.8107208013534546 0.5521392226219177 0
          0.9388208985328674 0.5155013203620911 0 0.5313745141029358 0.8614190220832825 0
          0.7854295969009399 0.557624876499176 0 0.9053421020507812 0.5167027711868286 0
          0.9694104194641113 0.5077505707740784 0 0.5642688274383545 0.7651113867759705 0
          0.6071739792823792 0.6965875029563904 0 0.7601383924484253 0.5631104707717896 0
          0.8718634247779846 0.5179042816162109 0 0.531642496585846 0.826877772808075 0
          0.5 1 0 1 0.5 0
          0.7342811822891235 0.5751234292984009 0 0.5 0.964285671710968 0
          0.5 0.9285714030265808 0 0.7084239721298218 0.5871362090110779 0
          0.839890718460083 0.5184264183044434 0 0.6776847243309021 0.6048911809921265 0
          0.5 0.8928570747375488 0 0.5647163987159729 0.7312639951705933 0
          0.5319105982780457 0.7923365831375122 0 0.6141753792762756 0.6596887111663818 0
          0.6469454765319824 0.6226462721824646 0 0.8079180717468262 0.5189486145973206 0
          0.5 0.8571429252624512 0 0.7816894054412842 0.5261418223381042 0
          0.7554606795310974 0.5333350896835327 0 0.5321344137191772 0.7575557231903076 0
          0.568722128868103 0.6937944889068604 0 0.7280024290084839 0.5443009734153748 0
          0.5 0.8214285969734192 0 0.4642857015132904 1 0
          0.700543999671936 0.5552669167518616 0 0.4642857015132904 0.964285671710968 0
          0.8385220766067505 0.4844416081905365 0 0.669405996799469 0.5687536001205444 0
          0.5323582291603088 0.7227749228477478 0 0.5 0.785714328289032 0
          0.46257519721984863 0.911978006362915 0 0.6091827154159546 0.6204593777656555 0
          0.5727276802062988 0.6563249826431274 0 0.8077738285064697 0.4857693910598755 0
          0.46257519721984863 0.8762636780738831 0 0.781282901763916 0.4935969114303589 0
          0.6382678747177124 0.5822402238845825 0 0.7547919750213623 0.5014243721961975 0
          0.7269765734672546 0.5131943225860596 0 0.5 0.75 0
          0.46282079815864563 0.841145396232605 0 0.5343610048294067 0.686182975769043 0
          0.6991611123085022 0.5249642133712769 0 0.46282079815864563 0.8054311275482178 0
          0.4285714030265808 1 0 0.6679142117500305 0.534351110458374 0
          0.571419894695282 0.6182724833488464 0 0.42686089873313904 0.9476922750473022 0
          0.5 0.714285671710968 0 0.6041899919509888 0.581230103969574 0
          0.5363638997077942 0.6495910882949829 0 0.6366673111915588 0.5437381267547607 0
          0.46311458945274353 0.7703269720077515 0 0.42515039443969727 0.8953846096992493 0
          0.42539599537849426 0.8602663278579712 0 0.5 0.6785714030265808 0
          0.46311458945274353 0.7346127033233643 0 0.42564159631729126 0.8251479864120483 0
          0.5701119899749756 0.5802199840545654 0 0.6032248139381409 0.5446456074714661 0
          0.3964175879955292 0.9650881290435791 0 0.5357099175453186 0.6127076745033264 0
          0.3928571045398712 1 0 0.42593538761138916 0.7900437712669373 0
          0.3947071135044098 0.9127804040908813 0 0.5 0.6428570747375488 0
          0.46294209361076355 0.699784517288208 0 0.39489200711250305 0.8776692152023315 0
          0.42622920870780945 0.7549396753311157 0 0.39513760805130005 0.8425508737564087 0
          0.5697821974754333 0.5455532073974609 0 0.5350559949874878 0.5758243203163147 0
          0.46294209361076355 0.664070188999176 0 0.39543649554252625 0.8074280023574829 0
          0.5 0.6071429252624512 0 0.42605671286582947 0.7201114892959595 0
          0.3642638027667999 0.930176317691803 0 0.3607032895088196 0.9650881290435791 0
          0.3571428954601288 1 0 0.3644486963748932 0.8950650095939636 0
          0.39573028683662415 0.7723237872123718 0 0.36463358998298645 0.8599537014961243 0
          0.4629102051258087 0.6291474103927612 0 0.5348911285400391 0.5406336784362793 0
          0.4258841872215271 0.6852833032608032 0 0.5 0.5714285969734192 0
          0.3959150016307831 0.737201988697052 0 0.36493250727653503 0.8248307704925537 0
          0.36523139476776123 0.7897078990936279 0 0.3339760899543762 0.9124141931533813 0
          0.42585229873657227 0.6503605246543884 0 0.3957425057888031 0.7023738026618958 0
          0.4629102051258087 0.5934330821037292 0 0.32498899102211 0.9650881290435791 0
          0.33416101336479187 0.877302885055542 0 0.3214285969734192 1 0
          0.36541610956192017 0.7545862197875977 0 0.5 0.535714328289032 0
          0.3343993127346039 0.8421925902366638 0 0.39598068594932556 0.6672449111938477 0
          0.4258204996585846 0.6154376268386841 0 0.3346982002258301 0.8070695996284485 0
          0.3656007945537567 0.7194644212722778 0 0.46375730633735657 0.5584729909896851 0
          0.3350442945957184 0.7719451785087585 0 0.3036884069442749 0.8946521282196045 0
          0.3959487974643707 0.6323220729827881 0 0.29470130801200867 0.9473260045051575 0
          0.36583900451660156 0.684335470199585 0 0.3039267063140869 0.8595417141914368 0
          0.42666760087013245 0.5804774761199951 0 0.2857142984867096 1 0
          0.3352290987968445 0.7368234992027283 0 0.3041648864746094 0.8244314193725586 0
          0.46375730633735657 0.5227587223052979 0 0.36607709527015686 0.6492065787315369 0
          0.39606550335884094 0.5970644950866699 0 0.30451110005378723 0.7893069982528687 0
          0.33531859517097473 0.7017310261726379 0 0.42751461267471313 0.5455173254013062 0
          0.3048573136329651 0.7541825175285339 0 0.3661938011646271 0.6139490008354187 0
          0.33555668592453003 0.6666020750999451 0 0.3969126045703888 0.5621042847633362 0
          0.30494681000709534 0.7190899848937988 0 0.2431643009185791 0.8590430021286011 0
          0.2437400072813034 0.7888243198394775 0 0.24345210194587708 0.8239337205886841 0
          0.27395251393318176 0.8066279292106628 0 0.27366459369659424 0.8417372107505798 0
          0.27429860830307007 0.7715033888816833 0 0.2734264135360718 0.876847505569458 0
          0.24265989661216736 0.929253101348877 0 0.24291209876537323 0.8941481113433838 0
          0.27317410707473755 0.9119526147842407 0 0.2641870975494385 0.9646266102790833 0
          0.2142857015132904 1 0 0.22847279906272888 0.9646266102790833 0
          0.25 1 0 0.3050363063812256 0.6839975118637085 0
          0.24451489746570587 0.7185729146003723 0 0.2746860980987549 0.7363777160644531 0
          0.27477559447288513 0.701285183429718 0 0.24412739276885986 0.7536985874176025 0
          0.36631059646606445 0.578691303730011 0 0.36722859740257263 0.510702908039093 0
          0.36676961183547974 0.544697105884552 0 0.3973715901374817 0.5281100869178772 0
          0.4277958869934082 0.4754262864589691 0 0.397512286901474 0.49306461215019226 0
          0.42765530943870544 0.5104718208312988 0 0.30567100644111633 0.6137539744377136 0
          0.3359907865524292 0.5962226986885071 0 0.33587411046028137 0.6314802765846252 0
          0.30535370111465454 0.6488757133483887 0 0.5 0.5 0
          0.4638980031013489 0.48771318793296814 0 0.5694525241851807 0.5108863711357117 0
          0.5347262024879456 0.5054432153701782 0 1 0.4285714030265808 0
          0.9362633228302002 0.4377439022064209 0 1 0.4642857015132904 0
          0.9375420808792114 0.476622611284256 0 0.9681317210197449 0.4331575930118561 0
          0.9687709808349609 0.4704540967941284 0 0.6350666880607605 0.505236029624939 0
          0.6022595763206482 0.5080611705780029 0 0.8666774034500122 0.44832339882850647 0
          0.869270384311676 0.4831139147281647 0 0.901470422744751 0.44303369522094727 0
          0.9034063220024109 0.47986820340156555 0 0.807629406452179 0.45259028673171997 0
          0.8371533751487732 0.4504568874835968 0 0.6977782845497131 0.49466150999069214 0
          0.6664224863052368 0.4999487102031708 0 0.7541232705116272 0.46951359510421753 0
          0.7808763980865479 0.46105191111564636 0 0.7259507775306702 0.48208749294281006 0
          <InformationKey name="L2_NORM_RANGE" location="vtkDataArray" length="2">
            <Value index="0">
              0.62902647244
            </Value>
            <Value index="1">
              1.4142135624
            </Value>
          </InformationKey>
        </DataArray>
      </Points>
      <Cells>
        <DataArray type="Int64" Name="connectivity" format="ascii" RangeMin="0" RangeMax="363">
          4 0 5 8 1 2
          6 7 3 135 188 192
          144 161 191 169 141 165
          16 4 8 20 10 7
          13 17 11 89 135 144
          95 110 141 120 94 112
          34 16 20 38 24 17
          28 35 26 5 15 21
          8 9 18 14 6 12
          57 89 95 63 73 94
          77 62 75 192 202 156
          144 196 179 149 169 173
          58 34 38 60 44 35
          49 56 45 15 33 40
          21 25 36 29 18 27
          63 40 33 57 51 36
          43 62 47 202 215 174
          156 208 198 166 179 187
          90 58 60 84 74 56
          72 85 69 215 234 197
          174 225 214 183 198 205
          136 90 84 128 111 85
          104 130 107 234 251 218
          197 241 236 206 214 227
          189 136 128 178 162 130
          154 182 158 251 271 244
          218 260 257 232 236 247
          271 341 343 244 283 344
          256 257 269 345 189 178
          346 347 182 348 349 350
          95 144 156 108 120 149
          131 100 123 63 95 108
          71 77 100 86 65 83
          20 8 21 30 13 14
          23 22 19 156 174 127
          108 166 151 117 131 142
          174 197 152 127 183 175
          139 151 160 197 218 176
          152 206 199 164 175 184
          218 244 222 176 232 235
          200 199 217 244 343 351
          222 256 352 237 235 245
          21 40 50 30 29 42
          39 23 32 40 63 71
          50 51 65 61 42 53
          38 20 30 46 28 22
          37 41 31 60 38 46
          68 49 41 54 64 52
          84 60 68 98 72 64
          82 92 76 128 84 98
          137 104 92 113 132 109
          178 128 137 186 154 132
          163 181 157 346 178 186
          353 348 181 354 355 356
          30 50 70 46 39 59
          55 37 48 71 108 127
          88 86 117 106 81 97
          50 71 88 70 61 81
          80 59 67 127 152 118
          88 139 133 101 106 121
          68 46 70 87 54 55
          79 78 66 152 176 116
          118 164 145 114 133 140
          88 118 116 70 101 114
          93 80 96 98 68 87
          119 82 78 102 103 91
          137 98 119 155 113 103
          134 146 124 186 137 155
          201 163 146 177 194 170
          353 186 201 357 354 194
          219 358 212 176 222 210
          171 200 213 193 172 195
          222 351 359 210 237 360
          228 213 231 176 171 125
          116 172 148 122 145 147
          70 116 125 87 93 122
          105 79 99 119 87 125
          138 102 105 129 126 115
          155 119 138 167 134 126
          153 159 143 201 155 167
          204 177 159 185 203 180
          210 204 167 171 207 185
          168 193 190 138 125 171
          167 129 148 168 153 150
          201 204 361 357 203 223
          362 219 221 359 361 204
          210 363 223 207 228 224
        </DataArray>
        <DataArray type="Int64" Name="offsets" format="ascii" RangeMin="9" RangeMax="522">
          9 18 27 36 45 54
          63 72 81 90 99 108
          117 126 135 144 153 162
          171 180 189 198 207 216
          225 234 243 252 261 270
          279 288 297 306 315 324
          333 342 351 360 369 378
          387 396 405 414 423 432
          441 450 459 468 477 486
          495 504 513 522
        </DataArray>
        <DataArray type="UInt8" Name="types" format="ascii" RangeMin="28" RangeMax="28">
          28 28 28 28 28 28
          28 28 28 28 28 28
          28 28 28 28 28 28
          28 28 28 28 28 28
          28 28 28 28 28 28
          28 28 28 28 28 28
          28 28 28 28 28 28
          28 28 28 28 28 28
          28 28 28 28 28 28
          28 28 28 28
        </DataArray>
      </Cells>
    </Piece>
  </UnstructuredGrid>
</VTKFile>
