<?xml version="1.0"?>
<VTKFile type="UnstructuredGrid" version="0.1" byte_order="LittleEndian" header_type="UInt32" compressor="vtkZLibDataCompressor">
  <UnstructuredGrid>
    <Piece NumberOfPoints="76" NumberOfCells="0">
      <PointData>
        <DataArray type="Float64" Name="nsi_BC" NumberOfComponents="3" format="ascii" RangeMin="0" RangeMax="100">
          0 0 0 0 0 0
          0 0 0 0 0 0
          0 0 0 0 0 0
          0 0 0 0 0 0
          0 0 0 0 0 0
          0 0 0 0 0 0
          0 0 0 0 0 0
          0 0 0 0 0 0
          0 0 0 0 0 0
          0 0 0 0 0 0
          0 0 0 0 0 0
          0 0 0 0 0 0
          0 0 0 0 0 0
          0 0 0 0 0 0
          0 0 0 0 0 0
          0 0 0 0 0 0
          0 0 0 0 0 0
          0 0 0 0 0 0
          0 0 0 0 0 0
          0 0 0 0 0 0
          0 0 0 0 0 0
          100 0 0 100 0 0
          100 0 0 0 0 0
          100 0 0 0 0 0
          100 0 0 0 0 0
          100 0 0 100 0 0
          100 0 0 100 0 0
          0 0 0 0 0 0
          0 0 0 0 0 0
          0 0 0 0 0 0
          0 0 0 0 0 0
          0 0 0 0 0 0
          0 0 0 0 0 0
          0 0 0 0 0 0
          0 0 0 0 0 0
          0 0 0 0 0 0
          0 0 0 0 0 0
          0 0 0 0 0 0
          <InformationKey name="L2_NORM_RANGE" location="vtkDataArray" length="2">
            <Value index="0">
              0
            </Value>
            <Value index="1">
              100
            </Value>
          </InformationKey>
        </DataArray>
        <DataArray type="Float64" Name="nsi_FIXNO" NumberOfComponents="3" format="ascii" RangeMin="1" RangeMax="1.4142135623730951">
          -1 -1 0 -1 -1 0
          1 0 0 -1 -1 0
          -1 -1 0 1 0 0
          -1 -1 0 1 0 0
          1 0 0 -1 -1 0
          -1 -1 0 -1 -1 0
          -1 -1 0 -1 -1 0
          -1 -1 0 1 0 0
          -1 -1 0 -1 -1 0
          -1 -1 0 -1 -1 0
          -1 -1 0 -1 -1 0
          -1 -1 0 1 0 0
          -1 -1 0 -1 -1 0
          -1 -1 0 -1 -1 0
          -1 -1 0 -1 -1 0
          1 0 0 -1 -1 0
          -1 -1 0 -1 -1 0
          1 0 0 -1 -1 0
          -1 -1 0 -1 -1 0
          -1 -1 0 -1 -1 0
          -1 -1 0 -1 -1 0
          1 1 0 1 1 0
          1 1 0 -1 -1 0
          1 1 0 1 0 0
          1 1 0 -1 -1 0
          1 1 0 1 1 0
          1 1 0 1 1 0
          1 0 0 1 0 0
          -1 -1 0 -1 -1 0
          -1 -1 0 -1 -1 0
          -1 -1 0 -1 -1 0
          -1 -1 0 -1 -1 0
          -1 -1 0 -1 -1 0
          -1 -1 0 -1 -1 0
          -1 -1 0 -1 -1 0
          1 0 0 -1 -1 0
          1 0 0 1 0 0
          -1 -1 0 1 0 0
          <InformationKey name="L2_NORM_RANGE" location="vtkDataArray" length="2">
            <Value index="0">
              1
            </Value>
            <Value index="1">
              1.4142135624
            </Value>
          </InformationKey>
        </DataArray>
        <DataArray type="Float64" Name="Velocity" NumberOfComponents="3" format="ascii" RangeMin="0.24416780624183126" RangeMax="100.00000000000001">
          2.4131102037609464 -0.7691890245842021 0 2.3819224440737825 0.05767843837345254 0
          12.971634125069926 -7.489181609865064 0 1.9972258610801508 0.9179531897184273 0
          2.4213897857399633 -0.005147949301674227 0 1.2915130912098018 0.745655944218709 0
          2.899532796178343 -0.07701432931124709 0 1.9143448780930021 -2.1658424251204777e-15 0
          1.938241555749878e-15 1.3439282473159737 0 2.4962340088959416 0.03520526071874588 0
          2.1828808006000404 -1.0799384083816617 0 1.258817099034496 -0.05472877812101138 0
          1.0686124117699158 -0.4360832614046018 0 2.4220366154016735 0.8902015301444304 0
          3.3640480298615336 1.1911828493647492 0 -2.981992467123993 1.9639350508907426e-16 0
          1.300446850466093 0.23965581948021875 0 -0.22626345683805998 -0.09177562696402472 0
          1.0054968107724478 0.7777434937386524 0 1.9850475598157187 -0.3739966990544444 0
          0.8442147418175608 0.6570364865370553 0 -0.426178673631658 0.03418445183104759 0
          1.9665206586056991 -0.7380578067923822 0 1.8821248121679084 1.1260394296622833e-15 0
          1.7654570987418792 0.2627227085351895 0 2.110941131368204 0.22848296638601384 0
          2.760960010038059 0.28889309734423224 0 2.2994703146288114 0.5791446305659628 0
          -4.277519626433211 -0.5342618782987282 0 2.3965007084498784 0.5769349315490899 0
          11.03129625593686 -3.505216670087865e-16 0 -0.8492839442634336 0.2388348284386614 0
          6.369185188937999 -0.322061256842067 0 -4.0179576083311375 0.32792184151745113 0
          2.5981947398481395 -1.1143151398465632e-15 0 -0.5343188661698751 0.3487824157457842 0
          10.210242303850086 0.08441833847787543 0 0.1392054625539255 -0.2336872050537491 0
          11.674968460421464 -1.6926019005608894 0 -5.09773346172358 0.4342774352637305 0
          12.852872327582755 0.47197265482981243 0 12.801208548011067 0.14391927780057095 0
          99.99999999999999 0 0 100 0 0
          99.99999999999999 0 0 14.491832072588622 1.5614635774667383 0
          99.99999999999999 0 0 1.1108224426269082 1.416302111470591e-16 0
          100 0 0 14.117247636120577 0.1411213445500755 0
          100 0 0 100.00000000000001 0 0
          99.99999999999999 0 0 100.00000000000001 0 0
          1.37238344178983 -0.7923464950396474 0 4.653722770540974e-16 -0.30251015897633615 0
          0.9363060152604546 -0.8679530218240654 0 0.8402845381353355 0.06101382930966298 0
          1.7461422228822934 -0.15993893226458045 0 2.378518199906339 -0.8355230988637926 0
          0.3456110995590467 -0.22077957180221272 0 3.1850114098220716 -0.44161280264283287 0
          1.3976341605364502 -0.18047296593296952 0 1.3980158559626126 -0.2431283946614928 0
          2.324335520200775 -0.3537406697781712 0 1.5233376575497362 0.4919074328281276 0
          1.647323594450728 0.01678927142456341 0 2.0781898564832657 -0.4659816286723589 0
          1.4655900347333202 -0.15640143653824304 0 1.5916469977758163 -0.18915806265744564 0
          1.115959384839539 -4.1818890034292545e-17 0 1.141015277014278 -0.14414468042537218 0
          1.2369517618819388 1.5847979398859668e-15 0 2.2130034019898677 -3.4438583135037484e-15 0
          2.3158895698493143 -0.3188526120739606 0 1.5823143372169068 8.110565424896624e-16 0
          <InformationKey name="L2_NORM_RANGE" location="vtkDataArray" length="2">
            <Value index="0">
              0.24416780624
            </Value>
            <Value index="1">
              100
            </Value>
          </InformationKey>
        </DataArray>
        <DataArray type="Float64" Name="Pressure" format="ascii" RangeMin="92350.16713257397" RangeMax="244299.44512879208">
          132167.89738107592 123875.50081446537 135998.7741445938 144581.65004298935 138135.6700791702 160470.31437379777
          151885.99960288487 122220.65705654283 173610.59531244 132346.6683396067 175407.28312855063 141959.37420166156
          177182.60683141786 175245.36592817924 165251.04984361454 174484.22734056614 155551.51548251006 185168.99099763538
          180544.1650910717 183030.8458778634 172021.2243402837 187412.49922207496 191272.0125476736 148878.92771070078
          157360.74247931456 194119.544415987 170050.26260037586 189019.89523160536 199703.67913167508 184850.99697094178
          213246.9267350413 206954.22952313378 209012.44503189353 208599.75325533014 172307.2944029069 205143.7448924519
          221672.76811615608 185734.2292961207 234743.35408164217 200374.0427171279 241353.21110114214 239135.78444008162
          217157.40466783574 217861.30134723565 217481.44100460788 234250.85222578348 235150.75096733932 208109.35161891647
          244299.44512879208 221843.39826044792 240884.97023467888 238871.28739294462 225398.97080716246 222754.95311747395
          164689.89602611083 120127.57439166802 126278.72722336976 108009.63363550925 115578.4938919589 117544.21747797028
          169223.41304153096 165366.3954933853 108006.70198238551 108162.20606355039 119988.83805728942 141152.0201244923
          153990.09453923497 171169.15418576854 157852.68278795003 115290.77591469107 92350.16713257397 100848.74557764003
          105986.95402126102 130192.22818297542 137224.1954010092 153936.53717719644
        </DataArray>
      </PointData>
      <CellData>
        <DataArray type="UInt8" Name="vtkGhostType" format="ascii" RangeMin="0" RangeMax="1">
          1 1 1 1 0 1
          1 1 1 0 1 1
          0 0 0 0 0 0
          0 0 0 0 1 0
          0 1 0 0 0
        </DataArray>
      </CellData>
      <Points>
        <DataArray type="Float32" Name="Points" NumberOfComponents="3" format="ascii" RangeMin="0" RangeMax="10.845259428233879">
          4.574699878692627 4.995409965515137 0 4.978107929229736 6.251728057861328 0
          4.25 4.433012962341309 0 4.162350177764893 4.7142109870910645 0
          4.403809070587158 5.83139181137085 0 3.75 4.433012962341309 0
          3.8271689414978027 5.076944828033447 0 5.0478739738464355 8 0
          3.5 4 0 4.6403961181640625 7.333686828613281 0
          3.314276933670044 3.7099781036376953 0 4.232917785644531 6.667374134063721 0
          3.129826068878174 3.179774045944214 0 3.314276933670044 4.1429901123046875 0
          3.4148190021514893 4.795746803283691 0 2.6204938888549805 0 0
          3.656277894973755 5.912927150726318 0 2.8785550594329834 3.8529679775238037 0
          2.979095935821533 4.50572395324707 0 2.5717179775238037 2.692473888397217 0
          3.079637050628662 5.158480167388916 0 2.1914169788360596 1.439182996749878 0
          2.3204469680786133 3.3656671047210693 0 3.8300790786743164 8 0
          3.4226009845733643 7.333686828613281 0 2.2134060859680176 4.213673114776611 0
          2.877134084701538 6.474040985107422 0 2.3139469623565674 4.866429805755615 0
          1.7623389959335327 2.8783669471740723 0 2.300493001937866 5.7195940017700195 0
          1.3102469444274902 0 0 1.6552979946136475 3.7263729572296143 0
          1.3102469444274902 1.0974390506744385 0 1.5482569932937622 4.574378967285156 0
          2.6122829914093018 8 0 1.534803032875061 5.4275431632995605 0
          0.8811694979667664 2.5366220474243164 0 2.0668160915374756 7.140354156494141 0
          0.8811694979667664 3.492302894592285 0 1.5213489532470703 6.280706882476807 0
          0.7741286158561707 4.340309143066406 0 0.7741286158561707 5.2238640785217285 0
          0 0 0 0 1.0974390506744385 0
          0 2.194878101348877 0 0.7606747150421143 6.077027797698975 0
          0 3.1505589485168457 0 1.306141972541809 8 0
          0 4.106238842010498 0 0.7606747150421143 7.140354156494141 0
          0 4.98979377746582 0 0 5.873348236083984 0
          0 6.936674118041992 0 0 8 0
          3.75 3.5669870376586914 0 4.5 4 0
          4.537350177764893 4.497704982757568 0 5.4634552001953125 4.2178168296813965 0
          4.981727123260498 4.1089091300964355 0 5.019076824188232 4.6066131591796875 0
          3.3810958862304688 2.5065810680389404 0 3.5655479431152344 3.0367839336395264 0
          5.723298072814941 5.8360819816589355 0 5.593377113342285 5.026949882507324 0
          5.148999214172363 5.415746212005615 0 4.728445053100586 1.5895390510559082 0
          4.054769992828369 2.0480599403381348 0 3.0007948875427246 1.253290057182312 0
          3.674468994140625 0.7947694063186646 0 5.385585784912109 6.918041229248047 0
          7.322544097900391 8 0 6.522921085357666 6.918041229248047 0
          6.185208797454834 8 0 5.057207107543945 0 0
          4.892826080322266 0.7947694063186646 0 3.838850975036621 0 0
          <InformationKey name="L2_NORM_RANGE" location="vtkDataArray" length="2">
            <Value index="0">
              0
            </Value>
            <Value index="1">
              10.845259428
            </Value>
          </InformationKey>
        </DataArray>
      </Points>
      <Cells>
        <DataArray type="Int64" Name="connectivity" format="ascii" RangeMin="1e+299" RangeMax="-1e+299">
        </DataArray>
        <DataArray type="Int64" Name="offsets" format="ascii" RangeMin="1e+299" RangeMax="-1e+299">
        </DataArray>
        <DataArray type="UInt8" Name="types" format="ascii" RangeMin="1e+299" RangeMax="-1e+299">
        </DataArray>
      </Cells>
    </Piece>
  </UnstructuredGrid>
</VTKFile>
