<?xml version="1.0"?>
<VTKFile type="UnstructuredGrid" version="0.1" byte_order="LittleEndian" header_type="UInt32" compressor="vtkZLibDataCompressor">
  <UnstructuredGrid>
    <Piece NumberOfPoints="76" NumberOfCells="0">
      <PointData>
        <DataArray type="Float64" Name="nsi_BC" NumberOfComponents="3" format="ascii" RangeMin="0" RangeMax="100">
          0 0 0 0 0 0
          0 0 0 0 0 0
          0 0 0 0 0 0
          0 0 0 0 0 0
          0 0 0 0 0 0
          0 0 0 0 0 0
          0 0 0 0 0 0
          0 0 0 0 0 0
          0 0 0 0 0 0
          0 0 0 0 0 0
          0 0 0 0 0 0
          0 0 0 0 0 0
          0 0 0 0 0 0
          0 0 0 0 0 0
          0 0 0 0 0 0
          0 0 0 0 0 0
          0 0 0 0 0 0
          0 0 0 0 0 0
          0 0 0 0 0 0
          0 0 0 0 0 0
          0 0 0 0 0 0
          100 0 0 100 0 0
          100 0 0 0 0 0
          100 0 0 0 0 0
          100 0 0 0 0 0
          100 0 0 100 0 0
          100 0 0 100 0 0
          0 0 0 0 0 0
          0 0 0 0 0 0
          0 0 0 0 0 0
          0 0 0 0 0 0
          0 0 0 0 0 0
          0 0 0 0 0 0
          0 0 0 0 0 0
          0 0 0 0 0 0
          0 0 0 0 0 0
          0 0 0 0 0 0
          0 0 0 0 0 0
          <InformationKey name="L2_NORM_RANGE" location="vtkDataArray" length="2">
            <Value index="0">
              0
            </Value>
            <Value index="1">
              100
            </Value>
          </InformationKey>
        </DataArray>
        <DataArray type="Float64" Name="nsi_FIXNO" NumberOfComponents="3" format="ascii" RangeMin="1" RangeMax="1.4142135623730951">
          -1 -1 0 -1 -1 0
          1 0 0 -1 -1 0
          -1 -1 0 1 0 0
          -1 -1 0 1 0 0
          1 0 0 -1 -1 0
          -1 -1 0 -1 -1 0
          -1 -1 0 -1 -1 0
          -1 -1 0 1 0 0
          -1 -1 0 -1 -1 0
          -1 -1 0 -1 -1 0
          -1 -1 0 -1 -1 0
          -1 -1 0 1 0 0
          -1 -1 0 -1 -1 0
          -1 -1 0 -1 -1 0
          -1 -1 0 -1 -1 0
          1 0 0 -1 -1 0
          -1 -1 0 -1 -1 0
          1 0 0 -1 -1 0
          -1 -1 0 -1 -1 0
          -1 -1 0 -1 -1 0
          -1 -1 0 -1 -1 0
          1 1 0 1 1 0
          1 1 0 -1 -1 0
          1 1 0 1 0 0
          1 1 0 -1 -1 0
          1 1 0 1 1 0
          1 1 0 1 1 0
          1 0 0 1 0 0
          -1 -1 0 -1 -1 0
          -1 -1 0 -1 -1 0
          -1 -1 0 -1 -1 0
          -1 -1 0 -1 -1 0
          -1 -1 0 -1 -1 0
          -1 -1 0 -1 -1 0
          -1 -1 0 -1 -1 0
          1 0 0 -1 -1 0
          1 0 0 1 0 0
          -1 -1 0 1 0 0
          <InformationKey name="L2_NORM_RANGE" location="vtkDataArray" length="2">
            <Value index="0">
              1
            </Value>
            <Value index="1">
              1.4142135624
            </Value>
          </InformationKey>
        </DataArray>
      </PointData>
      <CellData>
        <DataArray type="UInt8" Name="vtkGhostType" format="ascii" RangeMin="0" RangeMax="1">
          1 1 1 1 0 1
          1 1 1 0 1 1
          0 0 0 0 0 0
          0 0 0 0 1 0
          0 1 0 0 0
        </DataArray>
      </CellData>
      <Points>
        <DataArray type="Float32" Name="Points" NumberOfComponents="3" format="ascii" RangeMin="0" RangeMax="10.845259428233879">
          4.574699878692627 4.995409965515137 0 4.978107929229736 6.251728057861328 0
          4.25 4.433012962341309 0 4.162350177764893 4.7142109870910645 0
          4.403809070587158 5.83139181137085 0 3.75 4.433012962341309 0
          3.8271689414978027 5.076944828033447 0 5.0478739738464355 8 0
          3.5 4 0 4.6403961181640625 7.333686828613281 0
          3.314276933670044 3.7099781036376953 0 4.232917785644531 6.667374134063721 0
          3.129826068878174 3.179774045944214 0 3.314276933670044 4.1429901123046875 0
          3.4148190021514893 4.795746803283691 0 2.6204938888549805 0 0
          3.656277894973755 5.912927150726318 0 2.8785550594329834 3.8529679775238037 0
          2.979095935821533 4.50572395324707 0 2.5717179775238037 2.692473888397217 0
          3.079637050628662 5.158480167388916 0 2.1914169788360596 1.439182996749878 0
          2.3204469680786133 3.3656671047210693 0 3.8300790786743164 8 0
          3.4226009845733643 7.333686828613281 0 2.2134060859680176 4.213673114776611 0
          2.877134084701538 6.474040985107422 0 2.3139469623565674 4.866429805755615 0
          1.7623389959335327 2.8783669471740723 0 2.300493001937866 5.7195940017700195 0
          1.3102469444274902 0 0 1.6552979946136475 3.7263729572296143 0
          1.3102469444274902 1.0974390506744385 0 1.5482569932937622 4.574378967285156 0
          2.6122829914093018 8 0 1.534803032875061 5.4275431632995605 0
          0.8811694979667664 2.5366220474243164 0 2.0668160915374756 7.140354156494141 0
          0.8811694979667664 3.492302894592285 0 1.5213489532470703 6.280706882476807 0
          0.7741286158561707 4.340309143066406 0 0.7741286158561707 5.2238640785217285 0
          0 0 0 0 1.0974390506744385 0
          0 2.194878101348877 0 0.7606747150421143 6.077027797698975 0
          0 3.1505589485168457 0 1.306141972541809 8 0
          0 4.106238842010498 0 0.7606747150421143 7.140354156494141 0
          0 4.98979377746582 0 0 5.873348236083984 0
          0 6.936674118041992 0 0 8 0
          3.75 3.5669870376586914 0 4.5 4 0
          4.537350177764893 4.497704982757568 0 5.4634552001953125 4.2178168296813965 0
          4.981727123260498 4.1089091300964355 0 5.019076824188232 4.6066131591796875 0
          3.3810958862304688 2.5065810680389404 0 3.5655479431152344 3.0367839336395264 0
          5.723298072814941 5.8360819816589355 0 5.593377113342285 5.026949882507324 0
          5.148999214172363 5.415746212005615 0 4.728445053100586 1.5895390510559082 0
          4.054769992828369 2.0480599403381348 0 3.0007948875427246 1.253290057182312 0
          3.674468994140625 0.7947694063186646 0 5.385585784912109 6.918041229248047 0
          7.322544097900391 8 0 6.522921085357666 6.918041229248047 0
          6.185208797454834 8 0 5.057207107543945 0 0
          4.892826080322266 0.7947694063186646 0 3.838850975036621 0 0
          <InformationKey name="L2_NORM_RANGE" location="vtkDataArray" length="2">
            <Value index="0">
              0
            </Value>
            <Value index="1">
              10.845259428
            </Value>
          </InformationKey>
        </DataArray>
      </Points>
      <Cells>
        <DataArray type="Int64" Name="connectivity" format="ascii" RangeMin="1e+299" RangeMax="-1e+299">
        </DataArray>
        <DataArray type="Int64" Name="offsets" format="ascii" RangeMin="1e+299" RangeMax="-1e+299">
        </DataArray>
        <DataArray type="UInt8" Name="types" format="ascii" RangeMin="1e+299" RangeMax="-1e+299">
        </DataArray>
      </Cells>
    </Piece>
  </UnstructuredGrid>
</VTKFile>
