<?xml version="1.0"?>
<VTKFile type="UnstructuredGrid" version="0.1" byte_order="LittleEndian" header_type="UInt32" compressor="vtkZLibDataCompressor">
  <UnstructuredGrid>
    <Piece NumberOfPoints="8" NumberOfCells="1">
      <PointData>
        <DataArray type="Float64" Name="plcd_BC" NumberOfComponents="3" format="ascii" RangeMin="0" RangeMax="0">
          0 0 0 0 0 0
          0 0 0 0 0 0
          0 0 0 0 0 0
          0 0 0 0 0 0
          <InformationKey name="L2_NORM_RANGE" location="vtkDataArray" length="2">
            <Value index="0">
              0
            </Value>
            <Value index="1">
              0
            </Value>
          </InformationKey>
        </DataArray>
        <DataArray type="Float64" Name="plcd_FIXNO" NumberOfComponents="3" format="ascii" RangeMin="1.7320508075688772" RangeMax="1.7320508075688772">
          -1 -1 -1 -1 -1 -1
          -1 -1 -1 -1 -1 -1
          -1 -1 -1 -1 -1 -1
          -1 -1 -1 -1 -1 -1
          <InformationKey name="L2_NORM_RANGE" location="vtkDataArray" length="2">
            <Value index="0">
              1.7320508076
            </Value>
            <Value index="1">
              1.7320508076
            </Value>
          </InformationKey>
        </DataArray>
        <DataArray type="Float64" Name="Displacement" NumberOfComponents="3" format="ascii" RangeMin="0" RangeMax="0.0002920871256823268">
          0.00028 0 -0.00005879991768011523 0.00028 0 0
          0 0 -0.00005879991768011524 0.00028 -0.00005880015875977771 -0.00005879991768011524
          0 0 0 0.00028 -0.000058800158759777724 0
          0 -0.000058800158759777724 -0.000058799917680115245 0 -0.000058800158759777724 0
          <InformationKey name="L2_NORM_RANGE" location="vtkDataArray" length="2">
            <Value index="0">
              0
            </Value>
            <Value index="1">
              0.00029208712568
            </Value>
          </InformationKey>
        </DataArray>
      </PointData>
      <CellData>
        <DataArray type="UInt8" Name="vtkGhostType" format="ascii" RangeMin="0" RangeMax="0">
          0
        </DataArray>
        <DataArray type="Float64" Name="Stress" NumberOfComponents="6" format="ascii" RangeMin="2888101.2670967965" RangeMax="2888101.2670967965">
          2888101.2670967965 -1.4009154549366073e-10 -1.9012424031282526e-10 8.12311215235176e-12 5.866692110031828e-12 4.512840084639866e-12
          <InformationKey name="L2_NORM_RANGE" location="vtkDataArray" length="2">
            <Value index="0">
              2888101.2671
            </Value>
            <Value index="1">
              2888101.2671
            </Value>
          </InformationKey>
        </DataArray>
        <DataArray type="Float64" Name="Damage" format="ascii" RangeMin="0.8280889696167517" RangeMax="0.8280889696167517">
          0.8280889696167517
        </DataArray>
        <DataArray type="Float64" Name="Tau" format="ascii" RangeMin="27017198.05383515" RangeMax="27017198.05383515">
          27017198.05383515
        </DataArray>
        <DataArray type="Float64" Name="ComparisonRatio" format="ascii" RangeMin="3.359995296006585" RangeMax="3.359995296006585">
          3.359995296006585
        </DataArray>
      </CellData>
      <Points>
        <DataArray type="Float32" Name="Points" NumberOfComponents="3" format="ascii" RangeMin="1.0632045483100445" RangeMax="2.6813393963739327">
          1.1401890516281128 -1.3746089935302734 2 1.1401890516281128 -1.3746089935302734 0
          -0.8598138093948364 -1.3746089935302734 2 1.1401890516281128 0.6253991723060608 2
          -0.8598138093948364 -1.3746089935302734 0 1.1401890516281128 0.6253991723060608 0
          -0.8598138093948364 0.6253991723060608 2 -0.8598138093948364 0.6253991723060608 0
          <InformationKey name="L2_NORM_RANGE" location="vtkDataArray" length="2">
            <Value index="0">
              1.0632045483
            </Value>
            <Value index="1">
              2.6813393964
            </Value>
          </InformationKey>
        </DataArray>
      </Points>
      <Cells>
        <DataArray type="Int64" Name="connectivity" format="ascii" RangeMin="0" RangeMax="7">
          2 0 1 4 6 3
          5 7
        </DataArray>
        <DataArray type="Int64" Name="offsets" format="ascii" RangeMin="8" RangeMax="8">
          8
        </DataArray>
        <DataArray type="UInt8" Name="types" format="ascii" RangeMin="12" RangeMax="12">
          12
        </DataArray>
      </Cells>
    </Piece>
  </UnstructuredGrid>
</VTKFile>
