<?xml version="1.0"?>
<VTKFile type="UnstructuredGrid" version="0.1" byte_order="LittleEndian" header_type="UInt32" compressor="vtkZLibDataCompressor">
  <UnstructuredGrid>
    <Piece NumberOfPoints="8" NumberOfCells="1">
      <PointData>
        <DataArray type="Float64" Name="plcd_BC" NumberOfComponents="3" format="ascii" RangeMin="0" RangeMax="0">
          0 0 0 0 0 0
          0 0 0 0 0 0
          0 0 0 0 0 0
          0 0 0 0 0 0
          <InformationKey name="L2_NORM_RANGE" location="vtkDataArray" length="2">
            <Value index="0">
              0
            </Value>
            <Value index="1">
              0
            </Value>
          </InformationKey>
        </DataArray>
        <DataArray type="Float64" Name="plcd_FIXNO" NumberOfComponents="3" format="ascii" RangeMin="1.7320508075688772" RangeMax="1.7320508075688772">
          -1 -1 -1 -1 -1 -1
          -1 -1 -1 -1 -1 -1
          -1 -1 -1 -1 -1 -1
          -1 -1 -1 -1 -1 -1
          <InformationKey name="L2_NORM_RANGE" location="vtkDataArray" length="2">
            <Value index="0">
              1.7320508076
            </Value>
            <Value index="1">
              1.7320508076
            </Value>
          </InformationKey>
        </DataArray>
        <DataArray type="Float64" Name="Displacement" NumberOfComponents="3" format="ascii" RangeMin="0" RangeMax="0.00041726732240332406">
          0.0004 0 -0.00008399988240016464 0.0004 0 0
          0 0 -0.00008399988240016464 0.0004 -0.00008400022679968248 -0.00008399988240016465
          0 0 0 0.0004 -0.00008400022679968249 0
          0 -0.00008400022679968246 -0.00008399988240016464 0 -0.00008400022679968246 0
          <InformationKey name="L2_NORM_RANGE" location="vtkDataArray" length="2">
            <Value index="0">
              0
            </Value>
            <Value index="1">
              0.0004172673224
            </Value>
          </InformationKey>
        </DataArray>
      </PointData>
      <CellData>
        <DataArray type="UInt8" Name="vtkGhostType" format="ascii" RangeMin="0" RangeMax="0">
          0
        </DataArray>
        <DataArray type="Float64" Name="Stress" NumberOfComponents="6" format="ascii" RangeMin="2066206.878385957" RangeMax="2066206.878385957">
          2066206.878385957 9.020192829814562e-11 2.0044872955143477e-11 -2.9606063470714376e-11 -1.310802810153766e-11 5.42401162822248e-12
          <InformationKey name="L2_NORM_RANGE" location="vtkDataArray" length="2">
            <Value index="0">
              2066206.8784
            </Value>
            <Value index="1">
              2066206.8784
            </Value>
          </InformationKey>
        </DataArray>
        <DataArray type="Float64" Name="Damage" format="ascii" RangeMin="0.9139079262051839" RangeMax="0.9139079262051839">
          0.9139079262051839
        </DataArray>
        <DataArray type="Float64" Name="Tau" format="ascii" RangeMin="38595997.21976451" RangeMax="38595997.21976451">
          38595997.21976451
        </DataArray>
        <DataArray type="Float64" Name="ComparisonRatio" format="ascii" RangeMin="4.799993280009408" RangeMax="4.799993280009408">
          4.799993280009408
        </DataArray>
      </CellData>
      <Points>
        <DataArray type="Float32" Name="Points" NumberOfComponents="3" format="ascii" RangeMin="1.0632045483100445" RangeMax="2.6813393963739327">
          1.1401890516281128 -1.3746089935302734 2 1.1401890516281128 -1.3746089935302734 0
          -0.8598138093948364 -1.3746089935302734 2 1.1401890516281128 0.6253991723060608 2
          -0.8598138093948364 -1.3746089935302734 0 1.1401890516281128 0.6253991723060608 0
          -0.8598138093948364 0.6253991723060608 2 -0.8598138093948364 0.6253991723060608 0
          <InformationKey name="L2_NORM_RANGE" location="vtkDataArray" length="2">
            <Value index="0">
              1.0632045483
            </Value>
            <Value index="1">
              2.6813393964
            </Value>
          </InformationKey>
        </DataArray>
      </Points>
      <Cells>
        <DataArray type="Int64" Name="connectivity" format="ascii" RangeMin="0" RangeMax="7">
          2 0 1 4 6 3
          5 7
        </DataArray>
        <DataArray type="Int64" Name="offsets" format="ascii" RangeMin="8" RangeMax="8">
          8
        </DataArray>
        <DataArray type="UInt8" Name="types" format="ascii" RangeMin="12" RangeMax="12">
          12
        </DataArray>
      </Cells>
    </Piece>
  </UnstructuredGrid>
</VTKFile>
