<?xml version="1.0"?>
<VTKFile type="UnstructuredGrid" version="0.1" byte_order="LittleEndian" header_type="UInt32" compressor="vtkZLibDataCompressor">
  <UnstructuredGrid>
    <Piece NumberOfPoints="8" NumberOfCells="1">
      <PointData>
        <DataArray type="Float64" Name="plcd_BC" NumberOfComponents="3" format="ascii" RangeMin="0" RangeMax="0">
          0 0 0 0 0 0
          0 0 0 0 0 0
          0 0 0 0 0 0
          0 0 0 0 0 0
          <InformationKey name="L2_NORM_RANGE" location="vtkDataArray" length="2">
            <Value index="0">
              0
            </Value>
            <Value index="1">
              0
            </Value>
          </InformationKey>
        </DataArray>
        <DataArray type="Float64" Name="plcd_FIXNO" NumberOfComponents="3" format="ascii" RangeMin="1.7320508075688772" RangeMax="1.7320508075688772">
          -1 -1 -1 -1 -1 -1
          -1 -1 -1 -1 -1 -1
          -1 -1 -1 -1 -1 -1
          -1 -1 -1 -1 -1 -1
          <InformationKey name="L2_NORM_RANGE" location="vtkDataArray" length="2">
            <Value index="0">
              1.7320508076
            </Value>
            <Value index="1">
              1.7320508076
            </Value>
          </InformationKey>
        </DataArray>
        <DataArray type="Float64" Name="Displacement" NumberOfComponents="3" format="ascii" RangeMin="0" RangeMax="0.00016690692896132963">
          0.00016 0 -0.00003359995296006586 0.00016 0 0
          0 0 -0.000033599952960065854 0.00016 -0.000033600090719872996 -0.000033599952960065854
          0 0 0 0.00016 -0.000033600090719872996 0
          0 -0.000033600090719872996 -0.00003359995296006586 0 -0.000033600090719872996 0
          <InformationKey name="L2_NORM_RANGE" location="vtkDataArray" length="2">
            <Value index="0">
              0
            </Value>
            <Value index="1">
              0.00016690692896
            </Value>
          </InformationKey>
        </DataArray>
      </PointData>
      <CellData>
        <DataArray type="UInt8" Name="vtkGhostType" format="ascii" RangeMin="0" RangeMax="0">
          0
        </DataArray>
        <DataArray type="Float64" Name="Stress" NumberOfComponents="6" format="ascii" RangeMin="4036928.2554716403" RangeMax="4036928.2554716403">
          4036928.2554716403 9.790853333279176e-11 9.790853333279174e-11 3.31167616082971e-12 -1.0486974509294099e-11 7.727244375269328e-12
          <InformationKey name="L2_NORM_RANGE" location="vtkDataArray" length="2">
            <Value index="0">
              4036928.2555
            </Value>
            <Value index="1">
              4036928.2555
            </Value>
          </InformationKey>
        </DataArray>
        <DataArray type="Float64" Name="Damage" format="ascii" RangeMin="0.5794860513363336" RangeMax="0.5794860513363336">
          0.5794860513363336
        </DataArray>
        <DataArray type="Float64" Name="Tau" format="ascii" RangeMin="15438398.887905806" RangeMax="15438398.887905806">
          15438398.887905806
        </DataArray>
        <DataArray type="Float64" Name="ComparisonRatio" format="ascii" RangeMin="1.9199973120037632" RangeMax="1.9199973120037632">
          1.9199973120037632
        </DataArray>
      </CellData>
      <Points>
        <DataArray type="Float32" Name="Points" NumberOfComponents="3" format="ascii" RangeMin="1.0632045483100445" RangeMax="2.6813393963739327">
          1.1401890516281128 -1.3746089935302734 2 1.1401890516281128 -1.3746089935302734 0
          -0.8598138093948364 -1.3746089935302734 2 1.1401890516281128 0.6253991723060608 2
          -0.8598138093948364 -1.3746089935302734 0 1.1401890516281128 0.6253991723060608 0
          -0.8598138093948364 0.6253991723060608 2 -0.8598138093948364 0.6253991723060608 0
          <InformationKey name="L2_NORM_RANGE" location="vtkDataArray" length="2">
            <Value index="0">
              1.0632045483
            </Value>
            <Value index="1">
              2.6813393964
            </Value>
          </InformationKey>
        </DataArray>
      </Points>
      <Cells>
        <DataArray type="Int64" Name="connectivity" format="ascii" RangeMin="0" RangeMax="7">
          2 0 1 4 6 3
          5 7
        </DataArray>
        <DataArray type="Int64" Name="offsets" format="ascii" RangeMin="8" RangeMax="8">
          8
        </DataArray>
        <DataArray type="UInt8" Name="types" format="ascii" RangeMin="12" RangeMax="12">
          12
        </DataArray>
      </Cells>
    </Piece>
  </UnstructuredGrid>
</VTKFile>
