<?xml version="1.0"?>
<VTKFile type="UnstructuredGrid" version="0.1" byte_order="LittleEndian" header_type="UInt32" compressor="vtkZLibDataCompressor">
  <UnstructuredGrid>
    <Piece NumberOfPoints="36" NumberOfCells="53">
      <PointData>
        <DataArray type="Float64" Name="nsi_BC" NumberOfComponents="3" format="ascii" RangeMin="0" RangeMax="100">
          0 0 0 0 0 0
          0 0 0 0 0 0
          0 0 0 0 0 0
          0 0 0 0 0 0
          0 0 0 0 0 0
          0 0 0 0 0 0
          0 0 0 0 0 0
          0 0 0 0 0 0
          0 0 0 0 0 0
          0 0 0 0 0 0
          0 0 0 0 0 0
          0 0 0 0 0 0
          0 0 0 0 0 0
          0 0 0 0 0 0
          0 0 0 0 0 0
          0 0 0 100 0 0
          100 0 0 100 0 0
          100 0 0 100 0 0
          <InformationKey name="L2_NORM_RANGE" location="vtkDataArray" length="2">
            <Value index="0">
              0
            </Value>
            <Value index="1">
              100
            </Value>
          </InformationKey>
        </DataArray>
        <DataArray type="Float64" Name="nsi_FIXNO" NumberOfComponents="3" format="ascii" RangeMin="1" RangeMax="1.4142135623730951">
          0 1 0 -1 -1 0
          0 1 0 -1 -1 0
          0 1 0 -1 -1 0
          0 1 0 -1 -1 0
          0 1 0 -1 -1 0
          -1 -1 0 0 1 0
          0 1 0 -1 -1 0
          -1 -1 0 -1 -1 0
          -1 -1 0 1 1 0
          -1 -1 0 1 1 0
          -1 -1 0 1 1 0
          0 1 0 0 1 0
          -1 -1 0 -1 -1 0
          -1 -1 0 -1 -1 0
          -1 -1 0 0 1 0
          -1 -1 0 1 1 0
          1 1 0 1 1 0
          1 1 0 1 1 0
          <InformationKey name="L2_NORM_RANGE" location="vtkDataArray" length="2">
            <Value index="0">
              1
            </Value>
            <Value index="1">
              1.4142135624
            </Value>
          </InformationKey>
        </DataArray>
        <DataArray type="Float64" Name="Velocity" NumberOfComponents="3" format="ascii" RangeMin="0" RangeMax="100.00000000000001">
          0.2579741491230054 0 0 0.26000422444076493 0.003744152882831774 0
          0.3335841311728982 0 0 0.28313504351972757 0.008433693891280515 0
          0.6360445008069163 0 0 0.43720249434781727 0.023066025410157526 0
          0.2453766649721067 0 0 0.4746863053866879 -0.014697740918998071 0
          0.3111869466043303 0 0 1.00025641597512 0.09040705353097173 0
          0.6552616554603246 -0.040242207983592494 0 0.2793135777953903 0 0
          0.48779548129890465 0 0 0.7564035552513063 -0.06282298717731083 0
          0.41271884956393684 -0.029609327995398144 0 1.0521138588338903 -0.10820537446053514 0
          2.887960385027006 0.37054670719806265 0 0 0 0
          3.4545625670941793 -0.16971623739729824 0 0 0 0
          -2.1558739580714743 -0.7389021569547336 0 0 0 0
          1.6132812393891 0 0 8.423766026087591 0 0
          -0.6547916621000714 0.04438678211650509 0 -1.8352347061831547 -0.4187223761390688 0
          -2.4047538709684915 0.3899507024378714 0 13.957511850409581 1.1399371558166107 0
          14.590679011398787 0.3420000815637096 0 2.327428610385425 0 0
          14.150386024079506 0.7618244444135798 0 100 0 0
          99.99999999999999 0 0 100 0 0
          100 0 0 100.00000000000001 0 0
          <InformationKey name="L2_NORM_RANGE" location="vtkDataArray" length="2">
            <Value index="0">
              0
            </Value>
            <Value index="1">
              100
            </Value>
          </InformationKey>
        </DataArray>
        <DataArray type="Float64" Name="Pressure" format="ascii" RangeMin="0" RangeMax="142972.09389361733">
          0 0 9874.253009664226 8160.688263304263 20693.254012549904 18013.54747230798
          0 14950.308781850285 9593.784693950049 30168.35415610326 24785.361959870796 37158.419622825335
          20555.817071104193 36817.39201445767 47070.296349425786 33864.74759936278 46804.15182481437 47649.76255374455
          48162.00520100253 61103.21365903377 64439.664043702614 60729.367834252975 37782.23675427917 66140.353606876
          52221.429703901274 75689.51340090903 69679.40303316906 89768.03834520157 95750.8845257698 67259.29034112029
          89199.21144559118 131037.72093013179 132585.34740260895 142972.09389361733 138019.31015003318 123908.94476616956
        </DataArray>
      </PointData>
      <CellData>
        <DataArray type="UInt8" Name="vtkGhostType" format="ascii" RangeMin="0" RangeMax="0">
          0 0 0 0 0 0
          0 0 0 0 0 0
          0 0 0 0 0 0
          0 0 0 0 0 0
          0 0 0 0 0 0
          0 0 0 0 0 0
          0 0 0 0 0 0
          0 0 0 0 0 0
          0 0 0 0 0
        </DataArray>
      </CellData>
      <Points>
        <DataArray type="Float32" Name="Points" NumberOfComponents="3" format="ascii" RangeMin="0" RangeMax="17.88854381999832">
          16 0 0 16 3.9845468997955322 0
          11.453479766845703 0 0 12.217379570007324 3.3701679706573486 0
          8.368659973144531 0 0 8.773821830749512 2.904007911682129 0
          16 8 0 9.623482704162598 5.332449913024902 0
          11.453479766845703 8 0 6.414117813110352 2.3587939739227295 0
          7.382616996765137 4.82568883895874 0 5.579105854034424 0 0
          8.368659973144531 8 0 5.491477966308594 4.187727928161621 0
          4.728445053100586 1.5895390510559082 0 5.938247203826904 6.11269998550415 0
          4.574699878692627 3.0045900344848633 0 4.5 4 0
          4.574699878692627 4.995409965515137 0 3.75 3.5669870376586914 0
          3.413969039916992 2.5047481060028076 0 3.75 4.433012962341309 0
          5.579105854034424 8 0 2.789552927017212 0 0
          4.232917785644531 6.667374134063721 0 2.888730049133301 3.850830078125 0
          3.079637050628662 5.158480167388916 0 1.7905149459838867 2.8673698902130127 0
          1.5482569932937622 4.574378967285156 0 2.789552927017212 8 0
          1.5213489532470703 6.280706882476807 0 0 0 0
          0 2.162787914276123 0 0 4.072348117828369 0
          0 5.883182048797607 0 0 8 0
          <InformationKey name="L2_NORM_RANGE" location="vtkDataArray" length="2">
            <Value index="0">
              0
            </Value>
            <Value index="1">
              17.88854382
            </Value>
          </InformationKey>
        </DataArray>
      </Points>
      <Cells>
        <DataArray type="Int64" Name="connectivity" format="ascii" RangeMin="0" RangeMax="35">
          17 19 16 19 21 25
          21 17 18 16 19 20
          25 21 26 18 17 13
          17 16 13 19 25 20
          21 18 26 16 20 14
          25 26 28 18 13 15
          14 20 23 28 26 30
          15 13 10 16 14 9
          25 28 27 18 15 24
          30 26 24 9 14 11
          24 15 22 10 13 9
          27 28 33 33 28 34
          28 30 34 34 30 35
          16 9 13 18 24 26
          15 10 12 25 27 20
          11 14 23 33 32 27
          27 32 23 24 22 29
          24 29 30 20 27 23
          32 31 23 22 15 12
          35 30 29 9 11 4
          10 9 5 5 9 4
          10 5 7 5 4 2
          7 5 3 10 7 12
          8 12 7 8 3 1
          3 5 2 3 2 0
          7 3 8 0 1 3
          1 6 8
        </DataArray>
        <DataArray type="Int64" Name="offsets" format="ascii" RangeMin="3" RangeMax="159">
          3 6 9 12 15 18
          21 24 27 30 33 36
          39 42 45 48 51 54
          57 60 63 66 69 72
          75 78 81 84 87 90
          93 96 99 102 105 108
          111 114 117 120 123 126
          129 132 135 138 141 144
          147 150 153 156 159
        </DataArray>
        <DataArray type="UInt8" Name="types" format="ascii" RangeMin="5" RangeMax="5">
          5 5 5 5 5 5
          5 5 5 5 5 5
          5 5 5 5 5 5
          5 5 5 5 5 5
          5 5 5 5 5 5
          5 5 5 5 5 5
          5 5 5 5 5 5
          5 5 5 5 5 5
          5 5 5 5 5
        </DataArray>
      </Cells>
    </Piece>
  </UnstructuredGrid>
</VTKFile>
