<?xml version="1.0"?>
<VTKFile type="UnstructuredGrid" version="0.1" byte_order="LittleEndian" header_type="UInt32" compressor="vtkZLibDataCompressor">
  <UnstructuredGrid>
    <Piece NumberOfPoints="36" NumberOfCells="50">
      <PointData>
        <DataArray type="Float64" Name="nsi_SBC" NumberOfComponents="3" format="ascii" RangeMin="0" RangeMax="0">
          0 0 0 0 0 0
          0 0 0 0 0 0
          0 0 0 0 0 0
          0 0 0 0 0 0
          0 0 0 0 0 0
          0 0 0 0 0 0
          0 0 0 0 0 0
          0 0 0 0 0 0
          0 0 0 0 0 0
          0 0 0 0 0 0
          0 0 0 0 0 0
          0 0 0 0 0 0
          0 0 0 0 0 0
          0 0 0 0 0 0
          0 0 0 0 0 0
          0 0 0 0 0 0
          0 0 0 0 0 0
          0 0 0 0 0 0
          <InformationKey name="L2_NORM_RANGE" location="vtkDataArray" length="2">
            <Value index="0">
              0
            </Value>
            <Value index="1">
              0
            </Value>
          </InformationKey>
        </DataArray>
        <DataArray type="Float64" Name="nsi_SFIXNO" NumberOfComponents="3" format="ascii" RangeMin="1.7320508075688772" RangeMax="1.7320508075688772">
          1 1 1 1 1 1
          1 1 1 -1 -1 -1
          1 1 1 1 1 1
          -1 -1 -1 -1 -1 -1
          -1 -1 -1 1 1 1
          1 1 1 -1 -1 -1
          -1 -1 -1 -1 -1 -1
          -1 -1 -1 1 1 1
          1 1 1 -1 -1 -1
          -1 -1 -1 -1 -1 -1
          -1 -1 -1 -1 -1 -1
          1 1 1 1 1 1
          -1 -1 -1 -1 -1 -1
          1 1 1 1 1 1
          1 1 1 1 1 1
          -1 -1 -1 1 1 1
          1 1 1 1 1 1
          1 1 1 1 1 1
          <InformationKey name="L2_NORM_RANGE" location="vtkDataArray" length="2">
            <Value index="0">
              1.7320508076
            </Value>
            <Value index="1">
              1.7320508076
            </Value>
          </InformationKey>
        </DataArray>
        <DataArray type="Float64" Name="nsi_UBC" NumberOfComponents="3" format="ascii" RangeMin="0" RangeMax="0">
          0 0 0 0 0 0
          0 0 0 0 0 0
          0 0 0 0 0 0
          0 0 0 0 0 0
          0 0 0 0 0 0
          0 0 0 0 0 0
          0 0 0 0 0 0
          0 0 0 0 0 0
          0 0 0 0 0 0
          0 0 0 0 0 0
          0 0 0 0 0 0
          0 0 0 0 0 0
          0 0 0 0 0 0
          0 0 0 0 0 0
          0 0 0 0 0 0
          0 0 0 0 0 0
          0 0 0 0 0 0
          0 0 0 0 0 0
          <InformationKey name="L2_NORM_RANGE" location="vtkDataArray" length="2">
            <Value index="0">
              0
            </Value>
            <Value index="1">
              0
            </Value>
          </InformationKey>
        </DataArray>
        <DataArray type="Float64" Name="nsi_UFIXNO" NumberOfComponents="3" format="ascii" RangeMin="1.4142135623730951" RangeMax="1.4142135623730951">
          1 1 0 1 1 0
          1 1 0 -1 -1 0
          1 1 0 1 1 0
          -1 -1 0 -1 -1 0
          -1 -1 0 1 1 0
          1 1 0 -1 -1 0
          -1 -1 0 -1 -1 0
          -1 -1 0 1 1 0
          1 1 0 -1 -1 0
          -1 -1 0 -1 -1 0
          -1 -1 0 -1 -1 0
          1 1 0 1 1 0
          -1 -1 0 -1 -1 0
          1 1 0 1 1 0
          1 1 0 1 1 0
          -1 -1 0 1 1 0
          1 1 0 1 1 0
          1 1 0 1 1 0
          <InformationKey name="L2_NORM_RANGE" location="vtkDataArray" length="2">
            <Value index="0">
              1.4142135624
            </Value>
            <Value index="1">
              1.4142135624
            </Value>
          </InformationKey>
        </DataArray>
        <DataArray type="Float64" Name="Velocity" NumberOfComponents="3" format="ascii" RangeMin="8.485281374511324" RangeMax="14.142135623242728">
          6.000000000192865 -9.999999999654774 0 6.799999999765247 -9.999999999654776 0
          6.000000000192865 -9.199999999682392 0 6.80000079876573 -9.200000141568754 0
          7.599999999737629 -9.999999999654772 0 6.000000000192865 -8.39999999971001 0
          6.800000316947043 -8.400000847431995 0 7.599999046266827 -9.200001060853554 0
          7.599998808487582 -8.400001824635247 0 8.399999999710012 -9.999999999654774 0
          6.000000000192865 -7.59999999973763 0 8.399998350639523 -9.200001424522348 0
          6.799999513568598 -7.60000222338934 0 8.399997158850942 -8.40000105163308 0
          7.6000002719628315 -7.60000220271006 0 9.199999999682392 -9.99999999965477 0
          6.000000000192865 -6.799999999765245 0 6.800000009460578 -6.800001599286525 0
          9.199999587111058 -9.199998202134932 0 8.40000087977673 -7.599999301910841 0
          7.6000046979551215 -6.7999998103506964 0 9.200001211268658 -8.399993444709942 0
          6.000000000192865 -6.000000000192865 0 9.999999999654774 -9.999999999654774 0
          8.40000486845698 -6.799998293148406 0 9.200000498493774 -7.599995490186835 0
          6.799999999765248 -6.000000000192866 0 9.999999999654774 -9.19999999968239 0
          7.599999999737628 -6.000000000192865 0 9.99999999965477 -8.399999999710012 0
          9.20000165910881 -6.799998260297542 0 8.399999999710008 -6.000000000192865 0
          9.999999999654774 -7.599999999737628 0 9.19999999968239 -6.000000000192865 0
          9.999999999654774 -6.799999999765245 0 9.999999999654774 -6.000000000192865 0
          <InformationKey name="L2_NORM_RANGE" location="vtkDataArray" length="2">
            <Value index="0">
              8.4852813745
            </Value>
            <Value index="1">
              14.142135623
            </Value>
          </InformationKey>
        </DataArray>
        <DataArray type="Float64" Name="Pressure" format="ascii" RangeMin="-0.00008430880489497528" RangeMax="1.9998845997015011">
          1.0000000000654776 1.1999005785672472 0.7999216103260071 0.9998909681684025 1.3998501993254164 0.5999263358281178
          0.7999162599535004 1.1998538860558956 0.9998990358976145 1.5998464695099872 0.39994247926382254 1.3998628184795772
          0.5999284261083416 1.1998775431129243 0.7999005143656945 1.7998757209807892 0.1999129688577291 0.39992172549829674
          1.599912851370501 0.9998833473485386 0.5998978297875462 1.3998904185785483 -0.00008430880489497528 1.9998845997015011
          0.7998881597687191 1.199870338840981 0.19993499853203522 1.7998997209905676 0.39991715597240574 1.599891462358281
          0.9998887143456264 0.5998791039464502 1.399863766428446 0.7998831626977968 1.1998932587729179 0.9998955608801297
        </DataArray>
        <DataArray type="Float64" Name="stream" format="ascii" RangeMin="-6.000000071265777" RangeMax="9.999999853810541">
          -2.0000112677109882e-11 2.000000059482233 -1.2000000078759632 0.6400000311441262 4.00000008768009 -2.4000000565228152
          -0.7199999568826132 2.4800001409134844 0.9600003263135198 6.000000236424362 -3.600000092129871 4.320000300237516
          -2.0799999171097303 2.640000660179236 -0.5599994070849764 8.000000200961788 -4.80000007661078 -3.4399998813438866
          6.160000176865822 0.9600007337999794 -2.0799996832797842 4.3200002525133785 -6.000000071265777 9.999999853810541
          -0.719999801035283 2.4800001244508034 -4.800000066528361 7.999999787556948 -3.600000125378998 5.999999713471136
          0.6399998683767772 -2.400000181090184 3.999999756863632 -1.2000002468845292 1.9999997374151468 -2.4684595634205664e-7
        </DataArray>
        <DataArray type="Float64" Name="Sigma" NumberOfComponents="6" format="ascii" RangeMin="4.242640687255039" RangeMax="7.348469228095106">
          3.0000000000961924 4.999999999826921 0 1.0000000000653542 0 0
          3.3999999998819863 4.999999999826721 0 1.199999999958501 0 0
          3.000000000096592 4.599999999840887 0 0.8000000000721375 0 0
          3.3999967581546997 4.600003040945655 0 0.9999997640958602 0 0
          3.7999999998686196 4.999999999826921 0 1.399999999951368 0 0
          3.0000000000963922 4.199999999855053 0 0.6000000000793204 0 0
          3.3999945341473214 4.200003882275438 0 0.7999993886411816 0 0
          3.799994976453136 4.600004072510289 0 1.2000000615667694 0 0
          3.799991604766806 4.20000560142566 0 0.9999998936178534 0 0
          4.199999999854853 4.999999999826921 0 1.5999999999445846 0 0
          3.0000000000959925 3.79999999986822 0 0.4000000000860038 0 0
          4.199995235321685 4.600003489007642 0 1.4000000273663882 0 0
          3.3999932498778307 3.800003946569386 0 0.599998633227089 0 0
          4.199992369787475 4.200005582259991 0 1.2000015859635282 0 0
          3.7999894692450464 3.800004930847445 0 0.7999982234559333 0 0
          4.599999999840887 4.9999999998271205 0 1.7999999999376515 0 0
          3.0000000000963922 3.399999999882186 0 0.20000000009293695 0 0
          3.399994847041432 3.4000022648426054 0 0.3999985585856347 0 0
          4.599998056627896 4.600001732063053 0 1.6000010888259197 0 0
          4.1999897108743856 3.800004304077409 0 0.9999997983505093 0 0
          3.7999923626093945 3.4000018320064385 0 0.599996839926531 0 0
          4.599998248610326 4.200002776751566 0 1.4000038248773938 0 0
          3.0000000000959925 3.0000000000959925 0 1.9994006450474444e-10 0 0
          4.999999999826921 4.999999999826921 0 1.9999999999305684 0 0
          4.199989817322236 3.400001847342371 0 0.7999971003034623 0 0
          4.599993834371752 3.8000041593657663 0 1.2000028190133405 0 0
          3.399999999882386 3.0000000000963922 0 0.20000000009293695 0 0
          4.9999999998271205 4.599999999840887 0 1.7999999999376515 0 0
          3.79999999986822 3.0000000000959925 0 0.4000000000860038 0 0
          4.999999999826921 4.199999999854653 0 1.5999999999446346 0 0
          4.599990929653486 3.4000028352061618 0 0.999999413936159 0 0
          4.199999999854853 3.0000000000961924 0 0.6000000000792705 0 0
          4.999999999826921 3.7999999998686196 0 1.399999999951368 0 0
          4.599999999840687 3.000000000096592 0 0.8000000000721375 0 0
          4.999999999826721 3.3999999998819863 0 1.199999999958501 0 0
          4.999999999826921 3.0000000000961924 0 1.0000000000653542 0 0
          <InformationKey name="L2_NORM_RANGE" location="vtkDataArray" length="2">
            <Value index="0">
              4.2426406873
            </Value>
            <Value index="1">
              7.3484692281
            </Value>
          </InformationKey>
        </DataArray>
        <DataArray type="Float64" Name="Psi" NumberOfComponents="6" format="ascii" RangeMin="0.004706205881942107" RangeMax="0.0081373807702165">
          0.003327177807106236 0.005539568992160227 0 0.0011061955927482343 0 0
          0.0037697787248466884 0.005539300243095536 0 0.0013271411386866364 0 0
          0.0033273981144886946 0.005097702203304235 0 0.0008851520446290579 0 0
          0.0037700442032731715 0.00509748551810139 0 0.0011061950430726077 0 0
          0.004212134988016603 0.005538982770545257 0 0.0015479890796167622 0 0
          0.003327569539991182 0.004655591178422689 0 0.0006640108194370905 0 0
          0.003770261983999769 0.004655424199088809 0 0.0008851511955160855 0 0
          0.004212447183546585 0.005097217829811408 0 0.001327140947800176 0 0
          0.004212712440184631 0.004655205987712472 0 0.0011061950435496363 0 0
          0.004654246855880722 0.005538616617502909 0 0.0017687395232443748 0 0
          0.0033276920404058724 0.004213235658217158 0 0.00044277180912702857 0 0
          0.004654607955684069 0.005096899618663031 0 0.0015479889091502325 0 0
          0.0037704319376437277 0.004213117597929035 0 0.000664009221046711 0 0
          0.004654922444143341 0.004654937056486229 0 0.001327142547938794 0 0
          0.0042129302561454965 0.004212947363477265 0 0.0008851498504809844 0 0
          0.005096114587509551 0.005538201826890419 0 0.0019893925772139134 0 0
          0.0033277655724532032 0.0037706353829731645 0 0.0002214349054814153 0 0
          0.003770556169516455 0.003770564380498928 0 0.0004427701852603913 0 0
          0.005096527350246993 0.005096531413301607 0 0.0017687406118912057 0 0
          0.004655188413664951 0.004212726491324035 0 0.0011061949401152313 0 0
          0.0042131047822935455 0.00377044143877259 0 0.0006640072375300427 0 0
          0.005096893819106701 0.0046546162896363595 0 0.0015479931061180216 0 0
          0.00332779009278128 0.00332779009278128 0 2.2141768909798547e-13 0 0
          0.005537738441559175 0.005537738441559177 0 0.0022099483489993123 0 0
          0.004655408646188306 0.0037702700814321462 0 0.0008851486669097739 0 0
          0.0050972065078954045 0.004212457339840705 0 0.0013271439981740111 0 0
          0.003770635382973164 0.0033277655724532037 0 0.0002214349054814153 0 0
          0.0055382018268904185 0.005096114587509549 0 0.0019893925772139125 0 0
          0.004213235658217158 0.0033276920404058724 0 0.0004427718091270286 0 0
          0.0055386166175029105 0.004654246855880722 0 0.001768739523244375 0 0
          0.005097472129960805 0.0037700509305687783 0 0.0011061946594144577 0 0
          0.004655591178422689 0.003327569539991181 0 0.0006640108194370902 0 0
          0.005538982770545259 0.0042121349880166045 0 0.001547989079616762 0 0
          0.005097702203304236 0.003327398114488695 0 0.0008851520446290578 0 0
          0.005539300243095536 0.003769778724846689 0 0.0013271411386866364 0 0
          0.005539568992160227 0.003327177807106236 0 0.001106195592748234 0 0
          <InformationKey name="L2_NORM_RANGE" location="vtkDataArray" length="2">
            <Value index="0">
              0.0047062058819
            </Value>
            <Value index="1">
              0.0081373807702
            </Value>
          </InformationKey>
        </DataArray>
      </PointData>
      <CellData>
        <DataArray type="UInt8" Name="vtkGhostType" format="ascii" RangeMin="0" RangeMax="0">
          0 0 0 0 0 0
          0 0 0 0 0 0
          0 0 0 0 0 0
          0 0 0 0 0 0
          0 0 0 0 0 0
          0 0 0 0 0 0
          0 0 0 0 0 0
          0 0 0 0 0 0
          0 0
        </DataArray>
      </CellData>
      <Points>
        <DataArray type="Float32" Name="Points" NumberOfComponents="3" format="ascii" RangeMin="0" RangeMax="1.4142135623730951">
          0 1 0 0.20000000298023224 1 0
          0 0.800000011920929 0 0.20000000298023224 0.800000011920929 0
          0.4000000059604645 1 0 0 0.6000000238418579 0
          0.20000000298023224 0.6000000238418579 0 0.4000000059604645 0.800000011920929 0
          0.4000000059604645 0.6000000238418579 0 0.6000000238418579 1 0
          0 0.4000000059604645 0 0.6000000238418579 0.800000011920929 0
          0.20000000298023224 0.4000000059604645 0 0.6000000238418579 0.6000000238418579 0
          0.4000000059604645 0.4000000059604645 0 0.800000011920929 1 0
          0 0.20000000298023224 0 0.20000000298023224 0.20000000298023224 0
          0.800000011920929 0.800000011920929 0 0.6000000238418579 0.4000000059604645 0
          0.4000000059604645 0.20000000298023224 0 0.800000011920929 0.6000000238418579 0
          0 0 0 1 1 0
          0.6000000238418579 0.20000000298023224 0 0.800000011920929 0.4000000059604645 0
          0.20000000298023224 0 0 1 0.800000011920929 0
          0.4000000059604645 0 0 1 0.6000000238418579 0
          0.800000011920929 0.20000000298023224 0 0.6000000238418579 0 0
          1 0.4000000059604645 0 0.800000011920929 0 0
          1 0.20000000298023224 0 1 0 0
          <InformationKey name="L2_NORM_RANGE" location="vtkDataArray" length="2">
            <Value index="0">
              0
            </Value>
            <Value index="1">
              1.4142135624
            </Value>
          </InformationKey>
        </DataArray>
      </Points>
      <Cells>
        <DataArray type="Int64" Name="connectivity" format="ascii" RangeMin="0" RangeMax="35">
          26 17 22 17 16 22
          28 20 26 20 17 26
          31 24 28 24 20 28
          33 30 31 30 24 31
          35 34 33 34 30 33
          17 12 16 12 10 16
          20 14 17 14 12 17
          24 19 20 19 14 20
          30 25 24 25 19 24
          34 32 30 32 25 30
          12 6 10 6 5 10
          14 8 12 8 6 12
          19 13 14 13 8 14
          25 21 19 21 13 19
          32 29 25 29 21 25
          6 3 5 3 2 5
          8 7 6 7 3 6
          13 11 8 11 7 8
          21 18 13 18 11 13
          29 27 21 27 18 21
          3 1 2 1 0 2
          7 4 3 4 1 3
          11 9 7 9 4 7
          18 15 11 15 9 11
          27 23 18 23 15 18
        </DataArray>
        <DataArray type="Int64" Name="offsets" format="ascii" RangeMin="3" RangeMax="150">
          3 6 9 12 15 18
          21 24 27 30 33 36
          39 42 45 48 51 54
          57 60 63 66 69 72
          75 78 81 84 87 90
          93 96 99 102 105 108
          111 114 117 120 123 126
          129 132 135 138 141 144
          147 150
        </DataArray>
        <DataArray type="UInt8" Name="types" format="ascii" RangeMin="5" RangeMax="5">
          5 5 5 5 5 5
          5 5 5 5 5 5
          5 5 5 5 5 5
          5 5 5 5 5 5
          5 5 5 5 5 5
          5 5 5 5 5 5
          5 5 5 5 5 5
          5 5 5 5 5 5
          5 5
        </DataArray>
      </Cells>
    </Piece>
  </UnstructuredGrid>
</VTKFile>
