<?xml version="1.0"?>
<VTKFile type="UnstructuredGrid" version="0.1" byte_order="LittleEndian" header_type="UInt32" compressor="vtkZLibDataCompressor">
  <UnstructuredGrid>
    <Piece NumberOfPoints="44" NumberOfCells="66">
      <PointData>
        <DataArray type="Float64" Name="ale_BC" NumberOfComponents="3" format="ascii" RangeMin="0" RangeMax="0">
          0 0 0 0 0 0
          0 0 0 0 0 0
          0 0 0 0 0 0
          0 0 0 0 0 0
          0 0 0 0 0 0
          0 0 0 0 0 0
          0 0 0 0 0 0
          0 0 0 0 0 0
          0 0 0 0 0 0
          0 0 0 0 0 0
          0 0 0 0 0 0
          0 0 0 0 0 0
          0 0 0 0 0 0
          0 0 0 0 0 0
          0 0 0 0 0 0
          0 0 0 0 0 0
          0 0 0 0 0 0
          0 0 0 0 0 0
          0 0 0 0 0 0
          0 0 0 0 0 0
          0 0 0 0 0 0
          0 0 0 0 0 0
          <InformationKey name="L2_NORM_RANGE" location="vtkDataArray" length="2">
            <Value index="0">
              0
            </Value>
            <Value index="1">
              0
            </Value>
          </InformationKey>
        </DataArray>
        <DataArray type="Float64" Name="ale_FIXNO" NumberOfComponents="3" format="ascii" RangeMin="1" RangeMax="1.4142135623730951">
          1 1 0 0 1 0
          1 0 0 -1 -1 0
          -1 -1 0 0 1 0
          1 0 0 -1 -1 0
          -1 -1 0 -1 -1 0
          -1 -1 0 -1 -1 0
          0 1 0 1 0 0
          -1 -1 0 -1 -1 0
          -1 -1 0 -1 -1 0
          -1 -1 0 -1 -1 0
          0 1 0 1 0 0
          -1 -1 0 -1 -1 0
          -1 -1 0 -1 -1 0
          -1 -1 0 1 1 0
          1 1 0 -1 -1 0
          1 0 0 0 1 0
          -1 -1 0 1 0 0
          0 1 0 -1 -1 0
          -1 -1 0 -1 -1 0
          1 0 0 0 1 0
          -1 -1 0 1 0 0
          0 1 0 1 1 0
          <InformationKey name="L2_NORM_RANGE" location="vtkDataArray" length="2">
            <Value index="0">
              1
            </Value>
            <Value index="1">
              1.4142135624
            </Value>
          </InformationKey>
        </DataArray>
        <DataArray type="Float64" Name="nsi_BC" NumberOfComponents="3" format="ascii" RangeMin="0" RangeMax="0">
          0 0 0 0 0 0
          0 0 0 0 0 0
          0 0 0 0 0 0
          0 0 0 0 0 0
          0 0 0 0 0 0
          0 0 0 0 0 0
          0 0 0 0 0 0
          0 0 0 0 0 0
          0 0 0 0 0 0
          0 0 0 0 0 0
          0 0 0 0 0 0
          0 0 0 0 0 0
          0 0 0 0 0 0
          0 0 0 0 0 0
          0 0 0 0 0 0
          0 0 0 0 0 0
          0 0 0 0 0 0
          0 0 0 0 0 0
          0 0 0 0 0 0
          0 0 0 0 0 0
          0 0 0 0 0 0
          0 0 0 0 0 0
          <InformationKey name="L2_NORM_RANGE" location="vtkDataArray" length="2">
            <Value index="0">
              0
            </Value>
            <Value index="1">
              0
            </Value>
          </InformationKey>
        </DataArray>
        <DataArray type="Float64" Name="nsi_FIXNO" NumberOfComponents="3" format="ascii" RangeMin="1" RangeMax="1.4142135623730951">
          1 1 0 0 1 0
          1 0 0 -1 -1 0
          -1 -1 0 0 1 0
          1 0 0 -1 -1 0
          -1 -1 0 -1 -1 0
          -1 -1 0 -1 -1 0
          0 1 0 1 0 0
          -1 -1 0 -1 -1 0
          -1 -1 0 -1 -1 0
          -1 -1 0 -1 -1 0
          0 1 0 1 0 0
          -1 -1 0 -1 -1 0
          -1 -1 0 -1 -1 0
          -1 -1 0 1 1 0
          1 1 0 -1 -1 0
          1 0 0 0 1 0
          -1 -1 0 1 0 0
          0 1 0 -1 -1 0
          -1 -1 0 -1 -1 0
          1 0 0 0 1 0
          -1 -1 0 1 0 0
          0 1 0 1 1 0
          <InformationKey name="L2_NORM_RANGE" location="vtkDataArray" length="2">
            <Value index="0">
              1
            </Value>
            <Value index="1">
              1.4142135624
            </Value>
          </InformationKey>
        </DataArray>
        <DataArray type="Float64" Name="lev_BC" format="ascii" RangeMin="-0.5" RangeMax="0.5">
          -0.5 -0.3 -0.5 -0.32499 -0.35371 -0.25
          -0.5 -0.198092 -0.109713 -0.357575 -0.207421 -0.006945
          -0.25 -0.5 -0.059263 -0.216878 0.02803 -0.061131
          0.142998 -0.351371 -0.25 -0.5 0.030858 0.192875
          -0.104258 0.199684 0.083861 -0.5 -0.25 0.222426
          -0.048337 -0.280888 0.341722 0.153327 -0.061777 0.146545
          0.227286 0.363955 0.354826 0.155833 0.392298 0.5
          0.37 0.5
        </DataArray>
        <DataArray type="Float64" Name="lev_FIXNO" format="ascii" RangeMin="0" RangeMax="0">
          0 0 0 0 0 0
          0 0 0 0 0 0
          0 0 0 0 0 0
          0 0 0 0 0 0
          0 0 0 0 0 0
          0 0 0 0 0 0
          0 0 0 0 0 0
          0 0
        </DataArray>
        <DataArray type="Float64" Name="P_Hydro" format="ascii" RangeMin="-3893.607513120077" RangeMax="5809.853837743612">
          -3893.607513120077 -3599.6201985898792 -2075.7295858050697 -2283.209111772173 -1307.5844015923901 -2578.7264983999576
          -1178.642277176109 -1100.9638981175276 -1504.3754597682587 -578.5820573894313 -406.4223607207706 -2.216746388583279
          -267.95541235448985 -390.1103226160346 210.20243019289197 -524.9026842738689 54.9222054228029 -457.94166079343915
          -99.4974842321935 8.265294483221771 5809.853837743612 386.59498346137906 -717.121878900371 466.1519511014039
          -1488.1626360757862 143.18439449563888 726.3325115401973 1787.605354631601 5809.853837023546 1151.6204137440964
          275.9510728853504 1111.5422511385989 915.3046814129796 154.2143776342206 -1149.8356560361942 1866.6812914344023
          2124.809355074297 1692.5177243745718 978.3422401084911 2900.470074414232 2717.040378585636 2147.075093439207
          3714.888056810625 3806.1659771896702
        </DataArray>
        <DataArray type="Float64" Name="Velocity" NumberOfComponents="3" format="ascii" RangeMin="0" RangeMax="0.2503940281614728">
          0 0 0 -0.003950689210039845 0 0
          0 -0.05983225160986096 0 -0.003324310842813382 -0.04572029930840965 0
          -0.011316953367237197 -0.08661920774423236 0 -0.009138953692879146 0 0
          0 -0.08886970215101123 0 -0.0006652269063400013 -0.07877872464501699 0
          -0.0024364345418596647 -0.027716769665703606 0 -0.023841569883952893 -0.11125492898676338 0
          -0.035501450485964745 -0.15536050374431673 0 0.05468404138730158 -0.08392739153874486 0
          -0.0422934627565954 0 0 0 -0.09503782250271431 0
          -0.028532410549969675 0.01837300885299077 0 -0.07511479095205452 -0.12018524188449757 0
          -0.023600027084727384 -0.0846339315603047 0 -0.10437141547232398 -0.11696862721234932 0
          -0.0073064104451908566 -0.07028631776355515 0 -0.04822096182545966 -0.0792586489406108 0
          -0.12470304805690831 0 0 0 -0.06213890672031654 0
          -0.04344671010339332 -0.11388253051184369 0 -0.012340822307698425 -0.05667367364253017 0
          -0.2164355270785737 -0.12590802975643944 0 -0.015652297016507527 -0.0685393166173252 0
          -0.06987339765119686 -0.07009441053854289 0 0 0 0
          0 0 0 -0.02755450263138332 -0.050157664609462846 0
          0 -0.1442770454852709 0 -0.11500123139385252 0 0
          -0.014917667572611051 -0.04781492422779031 0 0 -0.09512810305707124 0
          -0.2473962213981354 0 0 -0.06781423697383887 -0.03508535419663646 0
          -0.03996326719938727 -0.028093036522733573 0 -0.02252039300334128 -0.0394464540823208 0
          0 -0.05600032001807063 0 -0.08352473295079611 0 0
          -0.02993047127901046 -0.021153547395022457 0 0 -0.027357757367762713 0
          -0.010653266760866816 0 0 0 0 0
          <InformationKey name="L2_NORM_RANGE" location="vtkDataArray" length="2">
            <Value index="0">
              0
            </Value>
            <Value index="1">
              0.25039402816
            </Value>
          </InformationKey>
        </DataArray>
        <DataArray type="Float64" Name="Pressure" format="ascii" RangeMin="-3494.335646050847" RangeMax="3680.644080937435">
          -3494.335646050847 -3319.211670188942 -1480.634004536744 -1864.1100625962492 -1007.9887733798186 -2457.0925063369177
          -1040.655944315168 -946.1098011252244 -1336.4154043908045 -575.0908731164471 -539.6298213973647 -236.16751321842497
          -943.8779770820045 -637.2872501116541 -47.65311888532649 -611.2995959305215 -37.27202710344501 -311.39300415753024
          -110.59239095269614 -491.9384683118382 3657.5372702683503 -78.77871617585268 -256.9618436767144 388.13534366954644
          -941.2261665432201 100.77881970145793 569.1000255285566 1414.5847223496203 3413.4110156112 1018.6888481327258
          185.85666116150284 1165.426608022116 808.5542541558582 161.54145857814828 -302.95988384365654 1511.3715757171717
          1909.651545765057 1555.3226479769178 948.3857460443897 2174.171030241586 2564.823697950123 2079.4106900391557
          3485.839753009073 3680.644080937435
        </DataArray>
        <DataArray type="Float64" Name="Proj_residual_U" NumberOfComponents="3" format="ascii" RangeMin="70.40090247001814" RangeMax="13247.38707885282">
          703.0890280783781 813.6569487823891 0 2814.6863143519085 1101.0161211759525 0
          510.1029038025513 4857.612561147549 0 1533.9791141504932 2730.8624274150025 0
          942.3628567816198 6523.004646287896 0 5939.210264847091 1900.3440817736412 0
          1343.2858746608465 7639.550094809247 0 2546.846668372952 6157.399476238763 0
          4373.446260312624 4035.826523319641 0 723.8166488666126 8494.701645270587 0
          1104.4676287481252 5677.126582818984 0 2129.2884837834627 5613.77793229663 0
          12023.825802786829 5560.654411235634 0 -28.173061635924512 8128.820343793883 0
          5569.290447231557 5016.4523213678385 0 42.269661163231994 10677.499584615585 0
          1341.7057456412665 5333.994115127128 0 1297.768070169747 5490.7283088960185 0
          423.65012692723644 8308.56971103905 0 -1394.3265254724865 5616.494450887852 0
          6200.226716841575 2209.3539146149055 0 -1589.8534959140338 4563.932240836215 0
          360.59374231049924 4929.635421261476 0 1801.5967358539585 6795.313763147312 0
          -38.60903937319418 4801.6564531981885 0 898.7240417356726 6799.5991248123355 0
          4320.272907539577 6360.019801279464 0 -1104.3498581681638 2188.5580072770867 0
          -8.905962035115966 69.83531276383087 0 2963.173532916616 5182.709351129414 0
          679.059664888601 3628.4963819788586 0 -3364.880960377698 2817.368780839097 0
          1389.560789528842 5551.951015269539 0 1317.5588540437232 7415.27046491641 0
          -1564.1592774964627 3898.0367813263247 0 6933.6105671468695 5094.814654803655 0
          3901.3473439829218 3618.1827215312633 0 2028.7360611162349 3914.149970943675 0
          1274.718973648153 4928.769503278085 0 7447.445593237105 5377.282415799132 0
          2259.8014842198822 2051.507644543496 0 1442.8769862406377 2926.6382830521993 0
          4332.346093168645 2903.9086300992235 0 1596.789421783029 1609.3044813798244 0
          <InformationKey name="L2_NORM_RANGE" location="vtkDataArray" length="2">
            <Value index="0">
              70.40090247
            </Value>
            <Value index="1">
              13247.387079
            </Value>
          </InformationKey>
        </DataArray>
        <DataArray type="Float64" Name="Proj_residual_P" format="ascii" RangeMin="-1.0644389495279976" RangeMax="0.47430643204676154">
          0.25305408216909253 0.23648331559131575 0.14477977018463264 0.2595119591326746 0.204702069517034 0.10171553325237796
          -0.07712678915720571 0.47430643204676154 0.18830482486409314 -0.17552344875744716 0.09335376081486813 0.24371490469070525
          -0.25260688787918884 -0.3322033184000029 -0.06703155777717311 -0.47062463017183814 0.07243563052006637 -0.0561507391787391
          -0.0660278776455502 -0.7125350574760558 -0.13572637432491355 -0.5681258254645755 -0.01619283705493872 0.031045729544273093
          -0.42605637672360663 -0.1733625106416365 0.29203212912467214 -0.787812845930251 0.0026403478360111756 0.06653560421728129
          -0.004324397459854428 -1.0644389495279976 -0.05939246717882827 -0.08915062055651064 -0.6160004689852131 0.2861003322434211
          0.015019499823333211 -0.006730050631179846 -0.026972448602636458 0.14354682520111803 -0.014323109370489109 0.0742580423790163
          -0.009926118419583052 0.03928164600189637
        </DataArray>
        <DataArray type="Float64" Name="ALEdispl" NumberOfComponents="3" format="ascii" RangeMin="0" RangeMax="0">
          0 0 0 0 0 0
          0 0 0 0 0 0
          0 0 0 0 0 0
          0 0 0 0 0 0
          0 0 0 0 0 0
          0 0 0 0 0 0
          0 0 0 0 0 0
          0 0 0 0 0 0
          0 0 0 0 0 0
          0 0 0 0 0 0
          0 0 0 0 0 0
          0 0 0 0 0 0
          0 0 0 0 0 0
          0 0 0 0 0 0
          0 0 0 0 0 0
          0 0 0 0 0 0
          0 0 0 0 0 0
          0 0 0 0 0 0
          0 0 0 0 0 0
          0 0 0 0 0 0
          0 0 0 0 0 0
          0 0 0 0 0 0
          <InformationKey name="L2_NORM_RANGE" location="vtkDataArray" length="2">
            <Value index="0">
              0
            </Value>
            <Value index="1">
              0
            </Value>
          </InformationKey>
        </DataArray>
        <DataArray type="Float64" Name="ALEveloc" NumberOfComponents="3" format="ascii" RangeMin="0" RangeMax="0">
          0 0 0 0 0 0
          0 0 0 0 0 0
          0 0 0 0 0 0
          0 0 0 0 0 0
          0 0 0 0 0 0
          0 0 0 0 0 0
          0 0 0 0 0 0
          0 0 0 0 0 0
          0 0 0 0 0 0
          0 0 0 0 0 0
          0 0 0 0 0 0
          0 0 0 0 0 0
          0 0 0 0 0 0
          0 0 0 0 0 0
          0 0 0 0 0 0
          0 0 0 0 0 0
          0 0 0 0 0 0
          0 0 0 0 0 0
          0 0 0 0 0 0
          0 0 0 0 0 0
          0 0 0 0 0 0
          0 0 0 0 0 0
          <InformationKey name="L2_NORM_RANGE" location="vtkDataArray" length="2">
            <Value index="0">
              0
            </Value>
            <Value index="1">
              0
            </Value>
          </InformationKey>
        </DataArray>
        <DataArray type="Float64" Name="LEVEL" format="ascii" RangeMin="-0.5445591818810777" RangeMax="0.552306932765136">
          -0.5445591818810777 -0.44120855464173825 -0.407670548751777 -0.3111175803547878 -0.30255438563355974 -0.3374893040622805
          -0.5013359293276286 -0.13767143271041693 -0.2167504619164316 -0.35874875818605184 -0.20870661416795136 -0.007636677671748081
          -0.23413694663598622 -0.501477377861628 -0.05819906391509169 -0.21650205512022583 0.02857186009141977 -0.06053947484067386
          0.13985284602440795 -0.35077623063951974 -0.24998389706843568 -0.4996195718847398 0.02971320497042231 0.25952728160835753
          -0.10200304309942296 0.2846994252203518 0.08474980829984054 -0.5000792368695757 -0.2500275436951387 0.22303403335538483
          -0.04977950409586791 -0.2798264767106105 0.41221054496222825 0.15225029967516765 -0.059307351126211195 0.1471762558704133
          0.22726400970864846 0.3650681515333126 0.552306932765136 0.1565123895692069 0.39203925194357797 0.5004855148627182
          0.3705582875138565 0.4999631329008083
        </DataArray>
      </PointData>
      <CellData>
        <DataArray type="UInt8" Name="vtkGhostType" format="ascii" RangeMin="0" RangeMax="0">
          0 0 0 0 0 0
          0 0 0 0 0 0
          0 0 0 0 0 0
          0 0 0 0 0 0
          0 0 0 0 0 0
          0 0 0 0 0 0
          0 0 0 0 0 0
          0 0 0 0 0 0
          0 0 0 0 0 0
          0 0 0 0 0 0
          0 0 0 0 0 0
        </DataArray>
        <DataArray type="Float64" Name="Residual_U" NumberOfComponents="3" format="ascii" RangeMin="851.2896230787408" RangeMax="26038.707189137687">
          5819.422665396978 3997.662234179451 0 5559.3826389027945 5615.398199360368 0
          7376.473173532746 11360.530806157823 0 1261.02837008438 7540.994151408464 0
          1168.5371511618637 7505.3357102007085 0 1428.2040584421966 7739.355693194759 0
          597.9155664817984 9478.555958743114 0 1139.697627170292 7508.505967348487 0
          25.379560938857644 10312.12479224892 0 -2126.796165853025 6960.388287040589 0
          -1042.480982302534 2167.4382098395645 0 -502.9634640137459 9456.744130610647 0
          -1675.6290616126362 10648.451250862388 0 1474.4272595585244 12713.241371471639 0
          1856.4757149956904 10188.850274180048 0 -1112.0152572912443 2219.027727851768 0
          11215.703385061752 9050.584810315439 0 -6586.115726340187 5044.6704317935555 0
          8081.5845889785 4706.476987487566 0 -2932.3000388051705 1692.8692178312203 0
          6104.234214284375 4563.584943739214 0 8802.94387691189 7061.977405759636 0
          1498.6792091527193 1518.617938869226 0 1663.3979823165673 1676.000424145092 0
          3298.8164558483936 1171.2200287594897 0 958.8175016489511 2601.0501929679226 0
          1568.5086016460045 4113.786128010907 0 3444.757681933378 3117.6841799622607 0
          2419.8903659058296 4253.996834947348 0 2532.918530940759 4707.60023698552 0
          1169.1798913544824 4486.470921094632 0 1408.8272102024462 6040.220638233325 0
          4399.111304650556 4309.79448384244 0 3927.2854002277063 6513.976495342515 0
          1095.7327108946504 5918.13564197588 0 1345.7407754830508 5860.229896933533 0
          1210.7086097236663 5829.15433548449 0 315.2922387976414 6852.685795831688 0
          690.6507850571368 7738.09944593637 0 1718.4792693244071 7129.635606056323 0
          791.0058441653147 7742.843827781553 0 -1189.1618484719788 9923.12376935734 0
          306.7781989604299 8744.91030214493 0 1889.3181163378667 7709.690090911659 0
          6182.70398082785 23567.524911736204 0 935.2186082662606 10272.864564406715 0
          5035.275452364409 6419.294302092885 0 2025.0902945573825 9086.35422809506 0
          4870.3126932121295 5730.090533902891 0 2886.466930892042 5377.702660063296 0
          4725.251705701734 8361.085896343764 0 2129.8952742807996 10503.90351717782 0
          2855.710687762507 5391.662504580495 0 3255.3185845101902 7449.981445771165 0
          -835.3924095916063 5263.641216185159 0 1195.2488454834668 7551.840075898395 0
          2244.419015724261 4780.2860864329405 0 3430.8731486513416 606.0850928412914 0
          875.6798563235055 989.7294141990733 0 552.9653738852778 647.2428583193941 0
          -1218.7626673372074 23756.149544674463 0 7569.511046517971 1920.1257385158565 0
          4311.174667440931 1876.9117113224816 0 23033.166962021704 8057.169006534803 0
          2078.5411642413724 9963.742687930097 0 -3964.240162716237 25735.171886233016 0
          <InformationKey name="L2_NORM_RANGE" location="vtkDataArray" length="2">
            <Value index="0">
              851.28962308
            </Value>
            <Value index="1">
              26038.707189
            </Value>
          </InformationKey>
        </DataArray>
        <DataArray type="Float64" Name="Residual_P" format="ascii" RangeMin="-1.25805856181338" RangeMax="1.0289957657306341">
          0.21951898706723577 0.12872215314481972 0.6087810390252009 -0.01848748097913605 0.11240900760482264 -0.1357660973352754
          -0.35608540918079556 0.03172866315848717 -0.40159556996421486 -0.4931514897263223 -0.6431001612028289 -0.4428218198654458
          -0.7199687767856797 -0.23521526412682253 -0.4593316198751699 -0.8715410005338214 0.09922813706324317 -1.25805856181338
          0.3687380645429259 -1.092110829355286 0.036255268084571135 0.580149509310832 -0.10184705011428714 0.13889717128563683
          -0.14204829861943088 0.07798311060178753 0.021139679931355404 -0.06153172496447251 -0.082981049829495 -0.00003889709655179041
          0.020641043944525067 -0.012206485358047801 0.15256292553418355 0.25966801075117374 -0.09993316002388232 -0.14400013395060082
          -0.07903003700021839 -0.13976109960828564 -0.4023093990444898 0.03140182623394426 -0.15685027776982965 0.17005774761240355
          -0.19763331240530516 0.11794351320170468 0.18089047866115332 0.04466306813745291 0.23547368197543622 0.16109912478204308
          -0.20949165544934917 0.5670509534666184 0.5400808792838021 0.1609836001624015 0.31063780767580396 0.725479239657643
          0.18683659508536415 0.4114513579544028 0.2836061235269837 0.27027116780507826 0.2531509390051582 0.2529697926594611
          1.0289957657306341 0.03179992180018554 0.17163114470457036 -0.5083743280544397 -0.035104156298728734 0.9240480349181774
        </DataArray>
      </CellData>
      <Points>
        <DataArray type="Float32" Name="Points" NumberOfComponents="3" format="ascii" RangeMin="0" RangeMax="1.4142135623730951">
          0 1 0 0.20000000298023224 1 0
          0 0.7799999713897705 0 0.17500990629196167 0.8324676752090454 0
          0.14628949761390686 0.6488438844680786 0 0.4000000059604645 1 0
          0 0.5849999785423279 0 0.30190789699554443 0.7062488794326782 0
          0.4018622040748596 0.8597133755683899 0 0.14242489635944366 0.45817598700523376 0
          0.29257911443710327 0.5176876783370972 0 0.49305540323257446 0.6697210073471069 0
          0.6000000238418579 1 0 0 0.38999998569488525 0
          0.6244276165962219 0.8092629909515381 0 0.2831222116947174 0.36456531286239624 0
          0.5280297994613647 0.49493080377578735 0 0.43886861205101013 0.3865315914154053 0
          0.659912109375 0.6070019006729126 0 0.14862869679927826 0.22861619293689728 0
          0.800000011920929 1 0 0 0.19499999284744263 0
          0.791735827922821 0.7191417813301086 0 0.6928746104240417 0.44221389293670654 0
          0.39574238657951355 0.1925719976425171 0 0.7972490191459656 0.5503162145614624 0
          0.5838605761528015 0.2565388083457947 0 0 0 0
          1 1 0 0.7224256992340088 0.28607040643692017 0
          1 0.7983365058898926 0 0.2191116064786911 0 0
          0.841722309589386 0.3865504860877991 0 1 0.5966730117797852 0
          0.4382232129573822 0 0 0.6465445160865784 0.11541219800710678 0
          0.7272865176200867 0.12795010209083557 0 0.8639553785324097 0.2512752115726471 0
          1 0.3951736092567444 0 0.6558331847190857 0 0
          0.8922978043556213 0.11509300023317337 0 1 0.19681400060653687 0
          0.8700000047683716 0 0 1 0 0
          <InformationKey name="L2_NORM_RANGE" location="vtkDataArray" length="2">
            <Value index="0">
              0
            </Value>
            <Value index="1">
              1.4142135624
            </Value>
          </InformationKey>
        </DataArray>
      </Points>
      <Cells>
        <DataArray type="Int64" Name="connectivity" format="ascii" RangeMin="0" RangeMax="43">
          42 36 35 35 36 26
          26 17 24 2 6 9
          4 2 9 9 6 13
          9 13 19 4 9 10
          10 9 15 19 13 21
          19 21 27 9 19 15
          15 19 24 15 24 17
          15 17 10 19 27 31
          39 24 34 34 24 31
          24 39 35 24 19 31
          42 35 39 35 26 24
          42 43 40 40 43 41
          42 40 36 40 41 37
          37 41 38 40 37 36
          36 37 29 29 37 32
          32 37 38 29 32 23
          36 29 26 26 29 23
          32 38 33 23 32 25
          25 32 33 23 25 18
          18 25 22 23 18 16
          22 25 33 18 22 14
          16 18 11 23 16 26
          14 22 20 18 14 11
          11 14 8 16 11 10
          8 14 12 11 8 7
          17 26 16 17 16 10
          7 8 3 11 7 10
          2 4 3 4 10 7
          4 7 3 3 8 1
          3 1 0 2 3 0
          28 20 22 12 5 8
          8 5 1 20 12 14
          33 30 22 22 30 28
        </DataArray>
        <DataArray type="Int64" Name="offsets" format="ascii" RangeMin="3" RangeMax="198">
          3 6 9 12 15 18
          21 24 27 30 33 36
          39 42 45 48 51 54
          57 60 63 66 69 72
          75 78 81 84 87 90
          93 96 99 102 105 108
          111 114 117 120 123 126
          129 132 135 138 141 144
          147 150 153 156 159 162
          165 168 171 174 177 180
          183 186 189 192 195 198
        </DataArray>
        <DataArray type="UInt8" Name="types" format="ascii" RangeMin="5" RangeMax="5">
          5 5 5 5 5 5
          5 5 5 5 5 5
          5 5 5 5 5 5
          5 5 5 5 5 5
          5 5 5 5 5 5
          5 5 5 5 5 5
          5 5 5 5 5 5
          5 5 5 5 5 5
          5 5 5 5 5 5
          5 5 5 5 5 5
          5 5 5 5 5 5
        </DataArray>
      </Cells>
    </Piece>
  </UnstructuredGrid>
</VTKFile>
