<?xml version="1.0"?>
<VTKFile type="UnstructuredGrid" version="0.1" byte_order="LittleEndian" header_type="UInt32" compressor="vtkZLibDataCompressor">
  <UnstructuredGrid>
    <Piece NumberOfPoints="36" NumberOfCells="50">
      <PointData>
        <DataArray type="Float64" Name="Velocity" NumberOfComponents="3" format="ascii" RangeMin="0" RangeMax="0.1887482382469483">
          0 0 0 0 0 0
          0 0 0 0.08721143466472275 0.05993289538804519 0
          0 0 0 0 0 0
          0.01873399150583857 0.07404895751374585 0 0.08265020979675808 -0.04434589100630326 0
          0.022133133500458507 -0.03931105903805615 0 0 0 0
          0 0 0 0.08539238164852206 0.00650430353615411 0
          -0.0051956734419812585 0.05273826828852901 0 0.03549349154967579 0.006999829497083734 0
          -0.011761363628482156 -0.024066568379306902 0 0 0 0
          0 0 0 -0.06490031801647067 -0.014074513178163772 0
          0.07453711082504702 -0.05905884862326579 0 0.0016192636734407295 0.024875236084973884 0
          -0.058368181059326285 -0.01587800911896753 0 0.015463144038581955 -0.16200605545453312 0
          0 0 0 0 0 0
          -0.047182651086562055 0.04808452164725807 0 -0.003913783063944576 -0.18870765682254426 0
          0 0 0 0 0 0
          0 0 0 0 0 0
          -0.03894458877079743 -0.14246737573421248 0 0 0 0
          0 0 0 0 0 0
          0 0 0 0 0 0
          <InformationKey name="L2_NORM_RANGE" location="vtkDataArray" length="2">
            <Value index="0">
              0
            </Value>
            <Value index="1">
              0.18874823825
            </Value>
          </InformationKey>
        </DataArray>
        <DataArray type="Float64" Name="Pressure" format="ascii" RangeMin="1.1081335988549004" RangeMax="2.8330353625319042">
          1.3375782666611402 1.3000478183984567 1.5682708314229281 1.555584531804845 1.26186953875317 1.8211054005391323
          1.8194841060074065 1.5375483199049067 1.8158799903172809 1.2296463214818965 2.0883029661740578 1.5198598254661646
          2.090237692182441 1.8104011565079774 2.0968456821471206 1.1877475119285297 2.3534521245768363 2.3603759704183926
          1.500870339681358 2.102858967543274 2.3784285666825973 1.8038888088594822 2.5905106378251945 1.1081335988549004
          2.3966330103763713 2.1071390747220327 2.6255083351321096 1.4836639472879134 2.6591275259990157 1.8005878405955478
          2.418348968857548 2.690260121724844 2.109564659651985 2.745251482857362 2.430593404691771 2.8330353625319042
        </DataArray>
        <DataArray type="Float64" Name="Temperature" format="ascii" RangeMin="239.99999999999997" RangeMax="960.0000000000001">
          960 685.9347849618883 959.9999999999999 655.0247468936701 573.7329709688893 959.9999999999998
          647.9107155473156 591.5054933261504 594.7497928750968 601.0085781642811 960 601.8871871859443
          641.0881484715753 597.9123188139266 599.2715404195174 574.1185789592573 960 626.0215270378739
          594.2985920839716 600.1778698663409 599.080361351333 575.0046823332244 960.0000000000001 240
          603.7703528173568 567.3876445495971 635.0415317869932 240 600.7993413768886 240
          562.6209278078367 621.2002673087262 240 536.7221206957339 240 239.99999999999997
        </DataArray>
        <DataArray type="Float64" Name="Density" format="ascii" RangeMin="0.36679317600252775" RangeMax="1.4671727040101115">
          0.3667931760025278 0.5133453743448674 0.36679317600252787 0.5375696882175758 0.6137375168935872 0.3667931760025279
          0.5434721799051833 0.5952970055821111 0.5920497210435778 0.5858842315328435 0.3667931760025278 0.5850289829373688
          0.549255901551016 0.588918204028522 0.5875824650640437 0.6133252987575154 0.3667931760025278 0.5624749848915717
          0.5924992144566171 0.5866951559557567 0.5877699749131382 0.6123801419035518 0.36679317600252775 1.4671727040101112
          0.5832042718217816 0.6206011927558756 0.5544857010714945 1.4671727040101112 0.586088273924283 1.4671727040101112
          0.6258591381134935 0.5668404659385444 1.4671727040101112 0.6560591326215214 1.4671727040101112 1.4671727040101115
        </DataArray>
        <DataArray type="Float64" Name="stream" format="ascii" RangeMin="-0.013092162252821104" RangeMax="0.020251016647157748">
          0 -0.0004065150551286507 -0.0002273211606389795 -0.002870141963932628 0.002080427138437586 -0.003725964948297042
          -0.010085268741197135 -0.004187149494309301 -0.011369052296161855 0.00810294935743905 -0.004959963720862422 0.0019270562209697513
          -0.009912118809508695 -0.008895560274640004 -0.011537687569133542 0.014248073137570018 -0.005026156789156647 -0.0071929447213025105
          0.008914485898013929 -0.013092162252821104 -0.005646995255713498 0.002542616838818237 -0.0028818824414458787 0.020251016647157748
          -0.006428873543887561 0.001158560184674853 -0.0012132882747777672 0.018585423005394886 -0.000020399282474927356 0.01844545439471848
          0.000439296350530993 -0.0024469647892033397 0.012918900293590276 0.004309326990183155 0.007076448839188243 0.004309326990183155
        </DataArray>
      </PointData>
      <CellData>
        <DataArray type="UInt8" Name="vtkGhostType" format="ascii" RangeMin="0" RangeMax="0">
          0 0 0 0 0 0
          0 0 0 0 0 0
          0 0 0 0 0 0
          0 0 0 0 0 0
          0 0 0 0 0 0
          0 0 0 0 0 0
          0 0 0 0 0 0
          0 0 0 0 0 0
          0 0
        </DataArray>
      </CellData>
      <Points>
        <DataArray type="Float32" Name="Points" NumberOfComponents="3" format="ascii" RangeMin="0" RangeMax="1.4142135623730951">
          0 1 0 0.20000000298023224 1 0
          0 0.800000011920929 0 0.20000000298023224 0.800000011920929 0
          0.4000000059604645 1 0 0 0.6000000238418579 0
          0.20000000298023224 0.6000000238418579 0 0.4000000059604645 0.800000011920929 0
          0.4000000059604645 0.6000000238418579 0 0.6000000238418579 1 0
          0 0.4000000059604645 0 0.6000000238418579 0.800000011920929 0
          0.20000000298023224 0.4000000059604645 0 0.6000000238418579 0.6000000238418579 0
          0.4000000059604645 0.4000000059604645 0 0.800000011920929 1 0
          0 0.20000000298023224 0 0.20000000298023224 0.20000000298023224 0
          0.800000011920929 0.800000011920929 0 0.6000000238418579 0.4000000059604645 0
          0.4000000059604645 0.20000000298023224 0 0.800000011920929 0.6000000238418579 0
          0 0 0 1 1 0
          0.6000000238418579 0.20000000298023224 0 0.800000011920929 0.4000000059604645 0
          0.20000000298023224 0 0 1 0.800000011920929 0
          0.4000000059604645 0 0 1 0.6000000238418579 0
          0.800000011920929 0.20000000298023224 0 0.6000000238418579 0 0
          1 0.4000000059604645 0 0.800000011920929 0 0
          1 0.20000000298023224 0 1 0 0
          <InformationKey name="L2_NORM_RANGE" location="vtkDataArray" length="2">
            <Value index="0">
              0
            </Value>
            <Value index="1">
              1.4142135624
            </Value>
          </InformationKey>
        </DataArray>
      </Points>
      <Cells>
        <DataArray type="Int64" Name="connectivity" format="ascii" RangeMin="0" RangeMax="35">
          26 17 22 17 16 22
          28 20 26 20 17 26
          31 24 28 24 20 28
          33 30 31 30 24 31
          35 34 33 34 30 33
          17 12 16 12 10 16
          20 14 17 14 12 17
          24 19 20 19 14 20
          30 25 24 25 19 24
          34 32 30 32 25 30
          12 6 10 6 5 10
          14 8 12 8 6 12
          19 13 14 13 8 14
          25 21 19 21 13 19
          32 29 25 29 21 25
          6 3 5 3 2 5
          8 7 6 7 3 6
          13 11 8 11 7 8
          21 18 13 18 11 13
          29 27 21 27 18 21
          3 1 2 1 0 2
          7 4 3 4 1 3
          11 9 7 9 4 7
          18 15 11 15 9 11
          27 23 18 23 15 18
        </DataArray>
        <DataArray type="Int64" Name="offsets" format="ascii" RangeMin="3" RangeMax="150">
          3 6 9 12 15 18
          21 24 27 30 33 36
          39 42 45 48 51 54
          57 60 63 66 69 72
          75 78 81 84 87 90
          93 96 99 102 105 108
          111 114 117 120 123 126
          129 132 135 138 141 144
          147 150
        </DataArray>
        <DataArray type="UInt8" Name="types" format="ascii" RangeMin="5" RangeMax="5">
          5 5 5 5 5 5
          5 5 5 5 5 5
          5 5 5 5 5 5
          5 5 5 5 5 5
          5 5 5 5 5 5
          5 5 5 5 5 5
          5 5 5 5 5 5
          5 5 5 5 5 5
          5 5
        </DataArray>
      </Cells>
    </Piece>
  </UnstructuredGrid>
</VTKFile>
