<?xml version="1.0"?>
<VTKFile type="UnstructuredGrid" version="0.1" byte_order="LittleEndian" header_type="UInt32" compressor="vtkZLibDataCompressor">
  <UnstructuredGrid>
    <Piece NumberOfPoints="88" NumberOfCells="239">
      <PointData>
        <DataArray type="Float64" Name="nsi_BC" NumberOfComponents="3" format="ascii" RangeMin="0" RangeMax="1">
          1 0 0 1 0 0
          1 0 0 1 0 0
          1 0 0 0 0 0
          1 0 0 0 0 0
          1 0 0 0 0 0
          1 0 0 0 0 0
          0 0 0 0 0 0
          1 0 0 0 0 0
          0 0 0 1 0 0
          1 0 0 1 0 0
          0 0 0 1 0 0
          1 0 0 0 0 0
          0 0 0 0 0 0
          1 0 0 1 0 0
          0 0 0 0 0 0
          0 0 0 0 0 0
          1 0 0 0 0 0
          0 0 0 0 0 0
          1 0 0 1 0 0
          0 0 0 1 0 0
          1 0 0 0 0 0
          0 0 0 0 0 0
          0 0 0 1 0 0
          0 0 0 0 0 0
          1 0 0 0 0 0
          0 0 0 0 0 0
          1 0 0 1 0 0
          0 0 0 0 0 0
          1 0 0 0 0 0
          0 0 0 1 0 0
          0 0 0 0 0 0
          1 0 0 0 0 0
          0 0 0 1 0 0
          0 0 0 0 0 0
          0 0 0 1 0 0
          1 0 0 0 0 0
          0 0 0 1 0 0
          0 0 0 1 0 0
          0 0 0 0 0 0
          1 0 0 1 0 0
          1 0 0 1 0 0
          0 0 0 0 0 0
          1 0 0 0 0 0
          1 0 0 0 0 0
          <InformationKey name="L2_NORM_RANGE" location="vtkDataArray" length="2">
            <Value index="0">
              0
            </Value>
            <Value index="1">
              1
            </Value>
          </InformationKey>
        </DataArray>
        <DataArray type="Float64" Name="nsi_FIXNO" NumberOfComponents="3" format="ascii" RangeMin="1.7320508075688772" RangeMax="1.7320508075688772">
          1 1 1 1 1 1
          1 1 1 1 1 1
          1 1 1 1 1 1
          1 1 1 1 1 1
          1 1 1 -1 -1 -1
          1 1 1 1 1 1
          1 1 1 1 1 1
          1 1 1 -1 -1 -1
          -1 -1 -1 1 1 1
          1 1 1 1 1 1
          1 1 1 1 1 1
          1 1 1 1 1 1
          1 1 1 -1 -1 -1
          1 1 1 1 1 1
          1 1 1 -1 -1 -1
          1 1 1 1 1 1
          1 1 1 1 1 1
          -1 -1 -1 1 1 1
          1 1 1 1 1 1
          1 1 1 1 1 1
          1 1 1 1 1 1
          1 1 1 1 1 1
          1 1 1 1 1 1
          1 1 1 1 1 1
          1 1 1 1 1 1
          1 1 1 1 1 1
          1 1 1 1 1 1
          1 1 1 1 1 1
          1 1 1 1 1 1
          1 1 1 1 1 1
          1 1 1 1 1 1
          1 1 1 1 1 1
          1 1 1 1 1 1
          1 1 1 1 1 1
          1 1 1 1 1 1
          1 1 1 -1 -1 -1
          1 1 1 1 1 1
          1 1 1 1 1 1
          1 1 1 1 1 1
          1 1 1 1 1 1
          1 1 1 1 1 1
          1 1 1 1 1 1
          1 1 1 1 1 1
          1 1 1 1 1 1
          <InformationKey name="L2_NORM_RANGE" location="vtkDataArray" length="2">
            <Value index="0">
              1.7320508076
            </Value>
            <Value index="1">
              1.7320508076
            </Value>
          </InformationKey>
        </DataArray>
        <DataArray type="Float64" Name="tem_BC" format="ascii" RangeMin="0" RangeMax="12">
          0 0 0 0 0 12
          0 12 0 0 0 12
          12 12 0 0 0 0
          0 0 12 0 0 12
          12 0 0 0 12 0
          12 12 0 12 0 12
          0 0 12 0 0 12
          12 12 12 0 12 12
          0 12 12 12 0 0
          12 12 0 12 12 0
          12 12 0 12 12 0
          12 12 12 0 0 0
          12 0 12 7.64356 12 12
          0 7.64356 8.129456 8.136573 12 12
          7.64356 12 8.129456 12
        </DataArray>
        <DataArray type="Float64" Name="tem_FIXNO" format="ascii" RangeMin="-1" RangeMax="1">
          -1 -1 -1 -1 -1 1
          -1 1 -1 -1 -1 1
          1 1 -1 -1 -1 -1
          -1 -1 1 -1 -1 1
          1 -1 -1 -1 1 -1
          1 1 -1 1 -1 1
          -1 -1 1 -1 -1 1
          1 1 1 -1 1 1
          -1 1 1 1 -1 -1
          1 1 -1 1 1 -1
          1 1 -1 1 1 -1
          1 1 1 -1 -1 -1
          1 -1 1 1 1 1
          -1 1 1 1 1 1
          1 1 1 1
        </DataArray>
        <DataArray type="Float64" Name="Velocity" NumberOfComponents="3" format="ascii" RangeMin="0" RangeMax="1.0000000000000002">
          1 0 0 1 0 0
          1 0 0 1 0 0
          1 0 0 0 0 0
          1 0 0 0 0 0
          1 0 0 0.8450142795324831 0.10236327575541682 0.070866247875358
          1 0 0 0 0 0
          0 0 0 0 0 0
          1 0 0 0.8830496369519601 0.04227814604276867 0.015046603767244399
          0.8182686319969777 0.09160240262773957 -0.018850776821121358 1.0000000000000002 0 0
          1.0000000000000002 0 0 1 0 0
          0 0 0 1 0 0
          1 0 0 0 0 0
          0 0 0 0.596017490066336 0.14591001411888593 -0.11168353834674855
          1 0 0 1.0000000000000002 0 0
          0 0 0 0.6552389901467033 0.16540394689995858 0.015407230905155903
          0 0 0 0 0 0
          1 0 0 0 0 0
          0.7769165207617522 -0.053234894565097224 0.09419589583746421 0 0 0
          1 0 0 1 0 0
          0 0 0 1 0 0
          1 0 0 0 0 0
          0 0 0 0 0 0
          0 0 0 1 0 0
          0 0 0 0 0 0
          1 0 0 0 0 0
          0 0 0 0 0 0
          1 0 0 1 0 0
          0 0 0 0 0 0
          1 0 0 0 0 0
          0 0 0 1 0 0
          0 0 0 0 0 0
          1 0 0 0 0 0
          0 0 0 1 0 0
          0 0 0 0 0 0
          0 0 0 1 0 0
          1 0 0 0.7474597251655422 0.03775514098118486 -0.14344789197593086
          0 0 0 1 0 0
          0 0 0 1 0 0
          0 0 0 0 0 0
          1 0 0 1 0 0
          1 0 0 1 0 0
          0 0 0 0 0 0
          1 0 0 0 0 0
          1 0 0 0 0 0
          <InformationKey name="L2_NORM_RANGE" location="vtkDataArray" length="2">
            <Value index="0">
              0
            </Value>
            <Value index="1">
              1
            </Value>
          </InformationKey>
        </DataArray>
        <DataArray type="Float64" Name="Pressure" format="ascii" RangeMin="0" RangeMax="9.56690761063877">
          0 7.819817542728979 7.4755454073331435 8.288678566733372 8.250581605417137 8.22781353247388
          8.578403854690961 8.504297352226573 8.638840842956133 8.720292863534295 8.800457186543737 8.755183587511528
          8.735285561059845 8.756063828305441 8.690082571642373 8.957342248297811 8.828176379169856 8.893465753946463
          9.038110935937317 8.808703700284248 8.831213512941474 8.792047415741674 9.067341860189703 8.980913415993657
          9.078447431633075 9.126538339503968 8.860764211271208 9.161133064453692 8.86181370637267 9.105926792667399
          9.008116188667666 8.883549884591515 8.965428615955412 9.310466527322127 9.137216229453456 9.310506184089988
          9.249355829038091 8.954228379329509 8.984693938269132 9.315169735332564 9.295010216123591 9.31046451169164
          9.310516330387502 9.312156228574295 9.310567608492235 9.146180742884063 9.310508331929256 9.11232864743938
          9.360594525191972 9.310568746454885 9.310561254832795 9.310577859320308 9.292067101028175 9.254919016588719
          9.41557640240666 9.310660612400243 9.408272031284588 9.310579730677093 9.31052881206863 9.250320375400731
          9.31065644552183 9.310691230403695 9.458342840479537 9.310751836833141 9.310728254787643 9.318091261805872
          9.310666832508675 9.310579008155855 9.31073164056396 9.321822696731873 9.49016624690817 9.433073773474586
          9.310720247134304 9.477173357286562 9.321400436828252 9.44052151128928 9.334467097618564 9.310736785716971
          9.32074038514617 9.46952092966072 9.377038572519472 9.352929398142797 9.337073408642695 9.299669219680318
          9.56690761063877 9.310713266239091 9.424655195185602 9.361471511075614
        </DataArray>
        <DataArray type="Float64" Name="DISSI_NS" format="ascii" RangeMin="0.00008120601763928323" RangeMax="119.87504527960971">
          19.03825540976846 2.470770183361958 2.405633539619321 0.9913515639273668 0.09105735466159373 22.46177514547774
          0.05337071224938566 13.823007800894997 0.07764659197521266 0.08855405642673193 0.09616278421569213 6.488316168723522
          119.87504527960971 102.44522977665038 0.00987962838634174 0.02619744814966742 0.03362960175436329 0.016775956138188396
          0.05564282617763177 0.042071446291178205 70.29652172624556 0.013872250758252401 0.07451626778532719 84.75701302036455
          20.61805784270734 0.06557172568973414 0.03882949030201895 0.0151673485083992 1.0746856770570805 0.029126032134871246
          46.34469303602554 0.7440191297435196 0.021151298285825158 29.196255896383267 0.04332879401949899 6.211852136481099
          0.0744417545026297 0.03015950943444712 29.088629055177723 0.02337942341111001 0.07345828683451115 12.912388861541073
          0.1440235612440107 85.05460193559037 57.324770429473745 0.03341023193866052 0.00009421290175916898 8.260083538827859
          0.07554190964650091 0.00015017059958766758 7.714353893915779 3.154251121137802 0.29564795247522846 0.015649183268114403
          69.96193592728366 90.86583431308918 0.0019840662098142927 0.00014167517752446528 1.9384248593084525 0.04077154020707968
          0.05058107354830879 56.40430270697494 0.11260004270197971 0.05155971340305325 0.05708568742645398 0.19294754367562406
          0.11089736902271506 0.29257032253382337 0.00008120601763928323 0.19549710846626073 0.012992198967257371 0.09010484973729879
          0.01296280687157619 0.0768917786424033 0.032641276616290314 0.0004744044819337576 0.23371029277577213 0.1948310627591178
          0.08129422955117817 0.017508274588248465 0.06887481413466807 0.11337823043710023 0.25578406527047237 0.03516731571330749
          0.029868553714400437 0.10902705032781855 0.06006645728556605 0.3723965180228821
        </DataArray>
        <DataArray type="Float64" Name="Temperature" format="ascii" RangeMin="-2.0720574991153184" RangeMax="12.000000000000005">
          0.18120990550458618 -2.0720574991153184 -0.5932443078514136 -1.5756385503032084 0.6059672416515098 12
          -0.5588590848209375 12 -0.7640258207453815 2.4320946443565803 1.3064042976843309 11.999999999999998
          11.999999999999998 12.000000000000002 -0.02449513743802381 3.2306260818348536 2.076809224218478 -0.344740887265492
          0.8591530183931589 -1.629715040127151 12.000000000000002 -0.8694447598668978 1.105909554247859 11.999999999999998
          11.999999999999998 6.131453239116262 -0.06616773762848382 2.2187429051099232 12 5.108408107310971
          11.999999999999996 12.000000000000002 -1.067246583286147 12 3.3949011516227543 12.000000000000002
          3.929778357643117 0.9824107765516812 12.000000000000002 2.498664141715922 0.14994957985419655 12.000000000000002
          11.999999999999998 12.000000000000005 12 0.43068576202270015 12.000000000000002 12
          3.6914234835005764 11.999999999999998 12.000000000000002 12.000000000000005 5.875415307283861 0.3005511316783304
          12.000000000000004 12.000000000000002 6.679578827135204 12.000000000000002 11.999999999999998 2.5015615060782177
          12 11.999999999999998 5.6550896078574855 12.000000000000002 12 7.441456021777909
          11.999999999999998 12 12.000000000000002 5.314874324246219 5.857841728813063 8.035740860253291
          11.999999999999996 4.897459126868912 11.999999999999998 7.643560000000001 12 11.999999999999998
          7.764689314425876 7.64356 8.129456 8.136573 11.999999999999998 12
          7.643559999999999 12 8.129456 12
        </DataArray>
        <DataArray type="Float64" Name="DISSI_TEMPE" format="ascii" RangeMin="1.1103794362413774e-31" RangeMax="0.6210135022484219">
          0.014714549489572175 0.39043567432049664 0.015193955914157656 0.22814424562924687 0.22563711624194704 0.46984119760108206
          0.01882203812845876 0.6210135022484219 0.07093841306000331 0.2678165209498233 0.33180065622511584 0.5009345406117206
          0.44009491838503917 0.5245685404161429 0.008981151652133437 0.1521890983426328 0.22510945707464403 0.042938509881891546
          0.20425002099444536 0.2989743718356628 0.41318557013056373 0.011439952097907057 0.20631513966415743 0.3665924317093183
          0.4255233207139265 0.39426768035370285 0.4005976337870182 0.01763024344373185 0.42202859881330296 0.2783170743898802
          0.42572966220887837 0.5886064235707955 0.030602813648838333 0.19547748409007867 0.22922081338198708 0.3218360730679996
          0.339146090356903 0.24450324465732268 0.5794582850340412 0.144237355743665 0.17998675147048965 0.23731499067965295
          0.29947564513170916 0.3792011270558179 0.24867127279172746 0.22060528773941956 1.868449744580756e-31 0.4462990737925488
          0.15418355418209817 1.1103794362413774e-31 0.3017429489065031 0.31900072789538986 0.3791787670019734 0.05350686711810173
          0.2708347915444089 0.24744680725677967 0.023122602050250376 2.024297886103003e-31 0.33612900908340226 0.24283575888708717
          0.573275888836211 0.25065241442999997 0.11978884777573688 0.09648988805281655 0.4066636377095739 0.1274650016870302
          0.34064133974035604 0.41958490024504197 2.3941544261672665e-31 0.37847872468454496 0.04760569144659126 0.14997395934703003
          0.10950738301779953 0.1503140973178074 0.08525158842701124 0.008960786646605993 0.17380102036327602 0.0734382450508998
          0.14175241804368766 0.012218531958784777 0.05078940477206733 0.0693377645373935 0.0998248222426168 0.10288800749537703
          0.023828111378793385 0.06130430350657461 0.04027200879996612 0.017640199855811747
        </DataArray>
        <DataArray type="Float64" Name="CN2" format="ascii" RangeMin="0" RangeMax="6.146771202111308e-11">
          0 2.4582625118240832e-11 2.2176577229729406e-12 1.2202349459161597e-11 1.673722048774626e-11 4.3004973164760524e-11
          4.736044993134612e-12 4.0087903141796954e-11 6.6372790260256704e-12 2.3926380033189794e-11 1.7983065413967236e-11 3.465885416728684e-11
          6.011029766273754e-11 4.557074607975463e-11 0 1.1994935670712786e-11 2.02573808566523e-11 9.147421677409672e-12
          1.3897780917023941e-11 2.501325518256794e-11 6.146771202111308e-11 3.948810376831689e-12 1.295374604541305e-11 3.685024621751311e-11
          2.443047255398494e-11 1.931508558202705e-11 2.6399905963482055e-11 0 4.438236545835225e-11 2.0140741143049053e-11
          4.606271286513961e-11 4.13609963727353e-11 4.817459315633924e-12 1.4773554189219343e-11 1.5679011691792632e-11 1.6882136664294594e-11
          4.2994943580533644e-11 1.8412393623665408e-11 4.5755928157732164e-11 2.6438828833355758e-11 1.0949343821018512e-11 1.5907460941265024e-11
          1.1938468698351495e-11 3.0551357617522615e-11 3.120448636318952e-11 1.7066736294020045e-11 0 2.770850103375161e-11
          1.3663998680431244e-11 0 2.7816513215044093e-11 2.474881032634401e-11 4.241611983427628e-11 7.726790967985812e-12
          2.2263945790022175e-11 3.3308171375063836e-11 0 0 1.8238812920433293e-11 3.182613142397605e-11
          1.1177317481499525e-11 3.742699573305624e-11 9.79495511906504e-12 3.452750644630648e-12 1.087469284003192e-11 7.023591981259116e-12
          1.8291706734648982e-11 2.5646938401161436e-11 0 4.921565303591149e-11 5.1295953321993366e-12 7.275714013466266e-12
          3.7461011426784546e-12 1.1841161726768616e-11 6.532096667948044e-12 0 1.7647671128570998e-11 7.677272217705218e-12
          1.7304755620578547e-11 2.309719717926472e-12 1.5746419230268052e-12 3.126346092313721e-12 4.299510020730607e-12 4.744104719313536e-12
          3.2680966360624403e-12 3.0659978432217784e-12 2.530168611457169e-12 2.014192154714546e-12
        </DataArray>
        <DataArray type="Float64" Name="CT2" format="ascii" RangeMin="0" RangeMax="65.10429707398708">
          0 21.265855851533647 1.960664098930753 10.633404609430002 15.059545311102628 45.54980561219384
          4.189228656082959 42.45988230752082 5.85328688842371 22.108081068248495 16.346567397574063 36.709415310866476
          63.666696792088125 48.266899025145214 0 11.212341436505037 18.62153004318865 8.116676057572823
          12.550847320138956 21.779536498144687 65.10429707398708 3.4769803037761284 11.740494956471277 39.03028298649023
          25.87571306276658 18.824851386154958 23.5209673704178 0 47.008109500427054 19.343512947610847
          48.787726670890095 43.80797150620509 4.229509905783838 15.647444990356009 14.69087791768914 17.880755110201665
          40.597770070180864 16.657883673669136 48.46281565519134 24.45291734313626 9.786138828207683 16.84842501923821
          12.644657449918618 32.358541852844944 33.05030574089064 15.31646627139237 0 29.34764093357374
          12.857798333026778 0 29.461925949342124 26.212761149826417 41.18803655221285 6.921174462419181
          23.580861468699112 35.27842864502299 0 0 19.317681977614765 29.436836875037237
          11.838482299328925 39.64089120023661 9.481321992510791 3.65698902085735 11.517956676596814 6.974641964107502
          19.37370453296145 27.164015629587702 0 47.40779719931951 4.979802543733754 7.286394293716037
          3.967691897981293 11.337923624267098 6.9184841795781935 0 18.691563798188227 8.131401050461644
          17.263470976197922 2.300230789222769 1.57905851988764 3.1354337750958545 4.553833821994689 5.02473086043054
          3.254664107355691 3.2473588779772093 2.537262878480008 2.1333342261320767
        </DataArray>
        <DataArray type="Float64" Name="CN2_MEAN" format="ascii" RangeMin="0" RangeMax="9.697147047652351e-11">
          0 2.370021806465164e-11 9.610921712443409e-13 1.0543917976108305e-11 1.7989830949738128e-11 4.01866444854112e-11
          1.9636266272361344e-12 4.046789999402797e-11 4.289797015783898e-12 3.0718697205008083e-11 2.0533026321725457e-11 3.936878243815368e-11
          8.548170256400259e-11 6.29324024604216e-11 0 1.4245077149694847e-11 2.4331602204561942e-11 5.493779872416853e-12
          1.5208061449479938e-11 2.3761846609517356e-11 9.095920844832695e-11 1.6018989264183612e-12 1.209713878652818e-11 6.426083476180942e-11
          3.77779280725452e-11 2.8639629140715953e-11 2.653832557077364e-11 0 4.1777948010558826e-11 3.519548830336983e-11
          9.301173041364614e-11 4.008635354650585e-11 3.0455943121623684e-12 3.384349699356049e-11 2.0263788060707262e-11 2.7397232486017622e-11
          6.508265070601278e-11 1.7041942999426632e-11 6.353438820195682e-11 3.8136002195110435e-11 1.399116160682853e-11 4.53289969997882e-11
          2.1460018509512665e-11 4.3559163792888526e-11 4.515701015665095e-11 1.7096708524993703e-11 0 6.234960618106727e-11
          2.0479616692966472e-11 0 4.307426377795198e-11 3.669326191062402e-11 8.357137451156444e-11 6.310643964633357e-12
          3.4457552539625333e-11 5.483334557276059e-11 0 0 3.256873019834854e-11 4.585429754747672e-11
          2.3319307063739088e-11 6.479823290167015e-11 1.8312772455998528e-11 6.882801857269944e-12 2.3239121323650608e-11 1.554907037972497e-11
          3.7368873909477844e-11 4.6909247795897386e-11 0 9.697147047652351e-11 1.1569211651461458e-11 1.6902444517946033e-11
          7.882244524182478e-12 1.886463354435123e-11 1.4542211506167602e-11 0 3.6139536705783904e-11 1.5960119246417156e-11
          3.9239366197312756e-11 6.423738643428147e-12 3.749211767322555e-12 8.103312280149233e-12 9.857803623391208e-12 1.0988184157727357e-11
          1.0412126243994896e-11 5.868480300569477e-12 6.935946863034583e-12 2.014211942693712e-12
        </DataArray>
        <DataArray type="Float64" Name="CN2_FROM_MEAN" format="ascii" RangeMin="0" RangeMax="4.177794829115881e-11">
          0 2.3644605302503415e-11 1.109274162995987e-12 1.3407049973375805e-11 2.0285779476038195e-11 3.846581407504491e-11
          1.4521566038104856e-12 3.165014837394037e-11 4.690653666700282e-12 1.8032133280280875e-11 2.3012307195700952e-11 2.3612258128974884e-11
          3.314014849800548e-11 3.110355418383613e-11 0 1.4224667224097749e-11 1.664406044310111e-11 3.0870885046844545e-12
          1.5283000038674427e-11 2.08312407038362e-11 3.1623044274964635e-11 1.0336133208150923e-12 1.2616235944198744e-11 2.4824566115640642e-11
          2.443163684714359e-11 2.345691349151566e-11 2.785853707045357e-11 0 4.177794829115881e-11 2.107243753182162e-11
          2.8010044053121372e-11 3.1179476639787366e-11 2.070641701451454e-12 1.6852370469185687e-11 1.711514332932802e-11 2.044468012370018e-11
          2.5318489110976712e-11 1.780111932441828e-11 3.2484067007531036e-11 1.4936613377872717e-11 1.4318178090388966e-11 1.9575986899089073e-11
          2.0205249787786173e-11 2.244875925068547e-11 1.9127563821017776e-11 1.6025601060790908e-11 0 2.6666530876993145e-11
          1.251310176170928e-11 0 2.0872115081651002e-11 2.0566680631686756e-11 2.8419755650130995e-11 5.958656168018058e-12
          1.6930866146915066e-11 1.6392632349455974e-11 0 0 2.175697069795526e-11 2.0229526345176413e-11
          3.055740859383151e-11 1.7675284534436397e-11 1.1057818578381675e-11 7.005245313381481e-12 2.2720825702289292e-11 1.0176205263812566e-11
          2.3530391236289374e-11 2.49725377304756e-11 0 2.8741202225765476e-11 1.0497501427428966e-11 1.3638916154642582e-11
          8.233152408980323e-12 1.3321979117874198e-11 1.4076981909869816e-11 0 2.7246775275866724e-11 8.382493726818962e-12
          1.422911954285421e-11 5.015219134308787e-12 6.0546882385298e-12 8.16236394066391e-12 1.0044649364457562e-11 8.857080183235468e-12
          6.4320549378728095e-12 5.598718994888455e-12 7.088925148120797e-12 1.883772648002196e-12
        </DataArray>
      </PointData>
      <CellData>
        <DataArray type="UInt8" Name="vtkGhostType" format="ascii" RangeMin="0" RangeMax="0">
          0 0 0 0 0 0
          0 0 0 0 0 0
          0 0 0 0 0 0
          0 0 0 0 0 0
          0 0 0 0 0 0
          0 0 0 0 0 0
          0 0 0 0 0 0
          0 0 0 0 0 0
          0 0 0 0 0 0
          0 0 0 0 0 0
          0 0 0 0 0 0
          0 0 0 0 0 0
          0 0 0 0 0 0
          0 0 0 0 0 0
          0 0 0 0 0 0
          0 0 0 0 0 0
          0 0 0 0 0 0
          0 0 0 0 0 0
          0 0 0 0 0 0
          0 0 0 0 0 0
          0 0 0 0 0 0
          0 0 0 0 0 0
          0 0 0 0 0 0
          0 0 0 0 0 0
          0 0 0 0 0 0
          0 0 0 0 0 0
          0 0 0 0 0 0
          0 0 0 0 0 0
          0 0 0 0 0 0
          0 0 0 0 0 0
          0 0 0 0 0 0
          0 0 0 0 0 0
          0 0 0 0 0 0
          0 0 0 0 0 0
          0 0 0 0 0 0
          0 0 0 0 0 0
          0 0 0 0 0 0
          0 0 0 0 0 0
          0 0 0 0 0 0
          0 0 0 0 0
        </DataArray>
      </CellData>
      <Points>
        <DataArray type="Float32" Name="Points" NumberOfComponents="3" format="ascii" RangeMin="0" RangeMax="24.49489742783178">
          20 10 10 20 6.5 10
          16 10 10 20 10 5
          16.37211036682129 5.206768989562988 10 20 3 10
          14.333330154418945 10 5.767949104309082 17.5 2.625 10
          12 10 10 14.425399780273438 5.033590793609619 7.012404918670654
          13.360549926757812 4.658843994140625 10 20 3 5
          16.25 2.4375 7.37460994720459 15 2.25 10
          20 10 0 12.214110374450684 6.010365009307861 4.925261974334717
          14.570380210876465 5.105739116668701 2.9404709339141846 12 10 3.0717968940734863
          10 10 6.535898208618164 20 6.5 0
          16.344310760498047 2.451646089553833 3.285098075866699 16 10 0
          10.119270324707031 5.519060134887695 10 13.631239891052246 2.0446860790252686 6.215021133422852
          12.5 1.875 10 10.550640106201172 4.647356033325195 7.100153923034668
          16.37211036682129 5.206768989562988 0 8 10 10
          20 3 0 11.739009857177734 4.367464065551758 2.512845993041992
          13.663330078125 2.049499034881592 2.55780291557312 17.5 2.625 0
          12 10 0 10.661359786987305 1.5992039442062378 6.873061180114746
          9.59029769897461 6.954894065856934 2.912667989730835 10 1.5 10
          8.36054801940918 3.908843994140625 10 13.360549926757812 4.658843994140625 0
          15 2.25 0 6.61377477645874 6.690732002258301 10
          8 10 3.0717968940734863 10.999679565429688 1.6499520540237427 3.4145760536193848
          9 3 5 8 4.732050895690918 5
          8 3 6.732050895690918 10.596699714660645 5.428274154663086 0
          9 1.350000023841858 5 12.5 1.875 0
          5.6666669845581055 10 5.767949104309082 7.9958391189575195 1.1993759870529175 6.734446048736572
          7.5 1.125 10 8 3 3.267949104309082
          5.86054801940918 3.533843994140625 10 8 10 0
          6 4.732050895690918 5 6 3 6.732050895690918
          4 10 10 7.995840072631836 1.1993759870529175 3.2655539512634277
          10 1.5 0 7.719629764556885 4.535800933837891 0
          6.004158973693848 0.9006239175796509 6.734445095062256 6 3 3.267949104309082
          3.305811882019043 6.3972368240356445 10 5 3 5
          5 0.75 10 3.3605480194091797 3.158843994140625 10
          6.004159927368164 0.9006239771842957 3.2655539512634277 7.5 1.125 0
          5 0.75 5 5.535371780395508 3.26835298538208 0
          4 10 0 3.0012240409851074 5.308693885803223 3.156306028366089
          3.720721960067749 0.5581083297729492 6.921747207641602 4.087935924530029 6.566143035888672 0
          2.5 0.375 10 0 10 10
          5 0.75 0 3.3971519470214844 0.5095726847648621 3.1724090576171875
          3.3605480194091797 3.158843994140625 0 0 10 5
          0 5 10 0 4.949490070343018 5.050509929656982
          2.5 0.375 0 0 0 10
          0 10 0 0 0 5
          0 5 0 0 0 0
          <InformationKey name="L2_NORM_RANGE" location="vtkDataArray" length="2">
            <Value index="0">
              0
            </Value>
            <Value index="1">
              24.494897428
            </Value>
          </InformationKey>
        </DataArray>
      </Points>
      <Cells>
        <DataArray type="Int64" Name="connectivity" format="ascii" RangeMin="0" RangeMax="87">
          16 20 19 11 53 40
          70 73 81 63 77 71
          69 59 61 51 62 55
          52 65 66 77 69 76
          55 68 72 63 79 62
          75 80 52 55 64 65
          10 8 2 9 32 37
          21 16 47 41 30 29
          15 9 23 16 54 48
          34 40 44 42 43 25
          43 39 44 25 41 15
          23 29 62 54 81 71
          77 69 78 61 32 17
          53 34 39 54 62 48
          59 73 54 34 19 3
          21 16 11 1 4 12
          79 56 75 62 45 17
          32 34 54 59 61 73
          23 33 24 25 18 22
          39 25 23 10 24 13
          24 10 23 25 39 48
          56 27 46 42 44 33
          4 11 12 9 64 60
          52 50 40 73 54 71
          23 15 41 25 44 35
          36 50 39 18 43 48
          10 9 23 25 43 54
          39 48 23 16 30 29
          85 81 65 72 60 50
          49 55 21 17 32 16
          49 35 44 50 81 62
          79 80 39 22 36 25
          26 38 20 16 81 85
          65 80 81 63 65 72
          8 9 22 25 20 38
          30 16 46 44 49 33
          20 16 19 26 70 40
          48 73 7 4 12 13
          61 59 69 73 45 51
          58 29 52 39 36 55
          69 73 78 71 36 35
          44 25 42 15 41 29
          19 21 3 14 77 63
          61 71 78 82 77 86
          40 73 53 34 18 48
          39 27 68 61 77 63
          17 40 53 34 23 13
          12 9 49 50 44 55
          17 37 32 16 48 54
          34 43 81 77 63 85
          18 8 22 25 44 35
          49 33 36 39 44 55
          61 54 43 59 86 73
          84 71 59 45 53 34
          11 9 3 16 10 13
          23 9 52 50 60 55
          11 1 3 9 77 72
          63 85 86 81 77 71
          6 17 21 16 4 1
          11 9 54 73 61 71
          39 62 56 48 43 15
          42 29 70 48 79 71
          67 59 69 51 4 2
          3 9 37 16 17 29
          43 34 18 25 43 18
          39 25 52 62 39 55
          86 84 79 71 15 34
          17 29 12 13 4 9
          32 17 45 37 3 1
          4 9 45 34 51 29
          79 62 81 71 69 78
          61 71 45 37 17 29
          48 73 40 71 57 58
          67 51 10 2 4 9
          6 8 18 15 31 26
          20 19 67 61 57 51
          54 73 40 34 62 48
          54 71 18 27 39 22
          11 20 12 9 41 58
          57 51 56 62 79 48
          46 41 57 51 41 42
          46 33 47 37 30 38
          46 42 41 51 3 2
          4 1 43 51 59 34
          23 20 30 16 77 86
          85 81 8 15 6 9
          0 2 3 1 24 22
          10 25 41 33 23 25
          87 85 77 86 69 61
          67 51 52 60 64 55
          59 51 45 34 41 51
          42 29 39 55 62 54
          12 20 23 9 15 34
          43 25 15 16 23 29
          22 9 10 25 44 39
          43 54 44 55 39 54
          23 9 15 25 84 70
          79 71 35 33 44 25
          44 33 42 25 61 73
          69 71 84 73 70 71
          17 15 18 34 36 22
          35 25 36 50 55 44
          79 81 86 71 2 8
          6 9 18 17 6 15
          27 22 18 8 4 13
          10 9 42 51 43 29
          22 8 10 9 31 11
          28 19 15 9 8 25
          43 59 54 34 78 73
          86 71 86 77 78 71
          41 15 42 25 18 40
          17 34 54 63 81 71
          70 73 48 71 3 2
          6 9 17 34 45 29
          74 65 64 72 64 55
          60 72 64 65 55 72
          57 61 67 66 69 76
          67 66 67 61 69 66
          21 26 19 16 77 86
          82 87 24 33 35 25
          20 26 31 38 35 22
          24 25 55 68 60 72
          17 16 15 29 76 82
          77 78 77 66 69 61
          77 72 68 63 61 78
          77 71 48 40 54 71
          30 16 37 29 58 51
          41 29 61 63 54 71
          67 58 59 51 59 58
          45 51 37 26 21 16
          23 9 20 16 50 36
          55 52 43 48 18 34
          85 65 80 83 42 15
          43 25 61 59 43 51
          30 38 37 16 45 58
          47 29 43 34 15 29
          62 54 55 63 81 54
          62 63 55 72 65 63
          31 11 19 20 42 33
          41 25 3 9 6 16
          55 65 62 63 62 65
          81 63 48 40 18 34
          74 85 65 72 79 48
          62 71 11 5 1 12
          53 73 59 34 44 39
          36 25 62 80 81 65
          30 41 23 29 53 45
          32 34 3 6 21 16
          12 7 1 4 85 74
          65 83 18 15 8 25
          18 34 15 25 68 61
          66 77 6 15 17 16
          63 72 81 85 47 58