<?xml version="1.0"?>
<VTKFile type="UnstructuredGrid" version="0.1" byte_order="LittleEndian" header_type="UInt32" compressor="vtkZLibDataCompressor">
  <UnstructuredGrid>
    <Piece NumberOfPoints="88" NumberOfCells="239">
      <PointData>
        <DataArray type="Float64" Name="nsi_BC" NumberOfComponents="3" format="ascii" RangeMin="0" RangeMax="1">
          1 0 0 1 0 0
          1 0 0 1 0 0
          1 0 0 0 0 0
          1 0 0 0 0 0
          1 0 0 0 0 0
          1 0 0 0 0 0
          0 0 0 0 0 0
          1 0 0 0 0 0
          0 0 0 1 0 0
          1 0 0 1 0 0
          0 0 0 1 0 0
          1 0 0 0 0 0
          0 0 0 0 0 0
          1 0 0 1 0 0
          0 0 0 0 0 0
          0 0 0 0 0 0
          1 0 0 0 0 0
          0 0 0 0 0 0
          1 0 0 1 0 0
          0 0 0 1 0 0
          1 0 0 0 0 0
          0 0 0 0 0 0
          0 0 0 1 0 0
          0 0 0 0 0 0
          1 0 0 0 0 0
          0 0 0 0 0 0
          1 0 0 1 0 0
          0 0 0 0 0 0
          1 0 0 0 0 0
          0 0 0 1 0 0
          0 0 0 0 0 0
          1 0 0 0 0 0
          0 0 0 1 0 0
          0 0 0 0 0 0
          0 0 0 1 0 0
          1 0 0 0 0 0
          0 0 0 1 0 0
          0 0 0 1 0 0
          0 0 0 0 0 0
          1 0 0 1 0 0
          1 0 0 1 0 0
          0 0 0 0 0 0
          1 0 0 0 0 0
          1 0 0 0 0 0
          <InformationKey name="L2_NORM_RANGE" location="vtkDataArray" length="2">
            <Value index="0">
              0
            </Value>
            <Value index="1">
              1
            </Value>
          </InformationKey>
        </DataArray>
        <DataArray type="Float64" Name="nsi_FIXNO" NumberOfComponents="3" format="ascii" RangeMin="1.7320508075688772" RangeMax="1.7320508075688772">
          1 1 1 1 1 1
          1 1 1 1 1 1
          1 1 1 1 1 1
          1 1 1 1 1 1
          1 1 1 -1 -1 -1
          1 1 1 1 1 1
          1 1 1 1 1 1
          1 1 1 -1 -1 -1
          -1 -1 -1 1 1 1
          1 1 1 1 1 1
          1 1 1 1 1 1
          1 1 1 1 1 1
          1 1 1 -1 -1 -1
          1 1 1 1 1 1
          1 1 1 -1 -1 -1
          1 1 1 1 1 1
          1 1 1 1 1 1
          -1 -1 -1 1 1 1
          1 1 1 1 1 1
          1 1 1 1 1 1
          1 1 1 1 1 1
          1 1 1 1 1 1
          1 1 1 1 1 1
          1 1 1 1 1 1
          1 1 1 1 1 1
          1 1 1 1 1 1
          1 1 1 1 1 1
          1 1 1 1 1 1
          1 1 1 1 1 1
          1 1 1 1 1 1
          1 1 1 1 1 1
          1 1 1 1 1 1
          1 1 1 1 1 1
          1 1 1 1 1 1
          1 1 1 1 1 1
          1 1 1 -1 -1 -1
          1 1 1 1 1 1
          1 1 1 1 1 1
          1 1 1 1 1 1
          1 1 1 1 1 1
          1 1 1 1 1 1
          1 1 1 1 1 1
          1 1 1 1 1 1
          1 1 1 1 1 1
          <InformationKey name="L2_NORM_RANGE" location="vtkDataArray" length="2">
            <Value index="0">
              1.7320508076
            </Value>
            <Value index="1">
              1.7320508076
            </Value>
          </InformationKey>
        </DataArray>
        <DataArray type="Float64" Name="tem_BC" format="ascii" RangeMin="0" RangeMax="12">
          0 0 0 0 0 12
          0 12 0 0 0 12
          12 12 0 0 0 0
          0 0 12 0 0 12
          12 0 0 0 12 0
          12 12 0 12 0 12
          0 0 12 0 0 12
          12 12 12 0 12 12
          0 12 12 12 0 0
          12 12 0 12 12 0
          12 12 0 12 12 0
          12 12 12 0 0 0
          12 0 12 7.64356 12 12
          0 7.64356 8.129456 8.136573 12 12
          7.64356 12 8.129456 12
        </DataArray>
        <DataArray type="Float64" Name="tem_FIXNO" format="ascii" RangeMin="-1" RangeMax="1">
          -1 -1 -1 -1 -1 1
          -1 1 -1 -1 -1 1
          1 1 -1 -1 -1 -1
          -1 -1 1 -1 -1 1
          1 -1 -1 -1 1 -1
          1 1 -1 1 -1 1
          -1 -1 1 -1 -1 1
          1 1 1 -1 1 1
          -1 1 1 1 -1 -1
          1 1 -1 1 1 -1
          1 1 -1 1 1 -1
          1 1 1 -1 -1 -1
          1 -1 1 1 1 1
          -1 1 1 1 1 1
          1 1 1 1
        </DataArray>
        <DataArray type="Float64" Name="Velocity" NumberOfComponents="3" format="ascii" RangeMin="0" RangeMax="1.0000000000000002">
          1 0 0 1 0 0
          1 0 0 1 0 0
          1 0 0 0 0 0
          1 0 0 0 0 0
          1 0 0 0.5557183182387484 0.08965161321073845 0.0760091723246125
          1 0 0 0 0 0
          0 0 0 0 0 0
          1 0 0 0.4557580094758489 0.06407615543136985 -0.007649281240344835
          0.5399683452203605 0.08734457069057966 -0.012848604776648509 1 0 0
          1 0 0 1 0 0
          0 0 0 1 0 0
          1 0 0 0 0 0
          0 0 0 0.4394515942882573 -0.009554516666762436 -0.030324173434387425
          1 0 0 1 0 0
          0 0 0 0.3552140788937417 0.043418886550945446 -0.06803995563619325
          0 0 0 0 0 0
          1 0 0 0 0 0
          0.47255182812035734 -0.07200902863282667 0.008784767204238389 0 0 0
          1 0 0 1 0 0
          0 0 0 1 0 0
          1 0 0 0 0 0
          0 0 0 0 0 0
          0 0 0 1 0 0
          0 0 0 0 0 0
          1 0 0 0 0 0
          0 0 0 0 0 0
          1 0 0 1 0 0
          0 0 0 0 0 0
          1 0 0 0 0 0
          0 0 0 1 0 0
          0 0 0 0 0 0
          1 0 0 0 0 0
          0 0 0 1 0 0
          0 0 0 0 0 0
          0 0 0 1 0 0
          1.0000000000000002 0 0 0.6590824170516094 -0.02272800412254735 -0.09179231061439512
          0 0 0 1 0 0
          0 0 0 1 0 0
          0 0 0 0 0 0
          1 0 0 1 0 0
          1 0 0 1 0 0
          0 0 0 0 0 0
          1 0 0 0 0 0
          1 0 0 0 0 0
          <InformationKey name="L2_NORM_RANGE" location="vtkDataArray" length="2">
            <Value index="0">
              0
            </Value>
            <Value index="1">
              1
            </Value>
          </InformationKey>
        </DataArray>
        <DataArray type="Float64" Name="Pressure" format="ascii" RangeMin="0" RangeMax="12.144863767388879">
          0 7.705632090003292 7.997832048683 7.705637212736826 8.778823327954656 8.3603711452737
          9.321923424014487 8.936992711111229 9.973962030309886 9.56934756770084 9.87360905210953 8.475920113382447
          9.33283031821648 9.482174734711926 8.450154178819208 10.313546973796019 9.565335798618122 10.08808997913262
          10.716291656536411 8.374753525055805 9.374751546023896 9.025127523660043 10.735856369851335 10.034737081938296
          10.426592476201185 10.744189723221485 9.180167819888926 10.907923494338187 8.859250780585809 10.418462005543995
          10.012874510365993 9.188483757709925 10.112258145146848 10.6765726325344 10.941542483265854 10.786409793869558
          10.963155847974203 9.943379452797968 9.739329256354365 11.172047253964145 11.071936727865852 10.589886484666168
          10.96088641729245 11.193238009509953 10.993348161084045 10.55550590258651 10.837194218795135 10.28513357780909
          11.106637345396969 10.94465314841212 10.884338253893972 10.965233202782166 10.99026575209645 11.0960737741525
          10.852547765159537 10.986347092722331 11.282361364385833 10.89949406581858 10.652446641181198 10.875509803568463
          10.984770628677172 10.841981185290516 11.35244200271167 11.019592389098959 11.002721324370743 11.096524078333086
          10.900342730108807 10.788976719665127 11.028204456939424 10.861082949150584 11.201121495677285 11.388116313106854
          11.017090047842634 11.219494276255501 11.080469216786016 11.65842183300487 10.983262341907324 11.069791558717657
          11.10720380376093 12.144863767388879 11.293196316561716 11.553954962904323 11.157768315600302 11.070243617261461
          12.097169157863357 11.06612944013965 11.710908252332775 11.316150236587836
        </DataArray>
        <DataArray type="Float64" Name="DISSI_NS" format="ascii" RangeMin="-0.2932876209894445" RangeMax="2916.296699434121">
          19.016841053213668 2.5258246241449727 2.527943354787839 1.102718449872796 0.1737230078738522 70.77828852798086
          0.21889334800286134 42.87203522026176 0.21775894789751202 -0.265333080331767 0.23380257254766892 478.7538116286438
          2916.296699434121 1420.2189236799895 0.051892386431884624 -0.15010605895181628 -0.2932876209894445 0.1306603727314926
          0.09734926299355665 0.12268895199602546 2704.6168728304388 0.13426125075385228 0.13728065535136336 1744.8471235645343
          26.015732755686837 -0.09566994465339237 0.12348386959095876 0.043747863182014145 55.25460909506949 -0.10082106633630127
          2737.443895418801 37.4296685251093 0.18739191804733124 270.35242517656434 -0.09517055682942632 138.80417831613423
          0.07829988377671812 0.1488225330175263 1258.6149387647947 0.022181729285088513 0.08460914162062234 866.0320032078213
          173.75462756014403 1032.1991290875571 620.5306569086921 0.08785645268599034 1070.7470089047054 882.4526223693591
          0.10476733562880076 515.8499256121628 64.1194033678291 233.62737746993352 0.303222337508223 0.06843779356518306
          756.5105678968148 350.47111191479325 0.027809238563912275 715.9603917309543 324.91681343879407 0.06359637547913563
          24.39687849251588 442.0301352666557 0.15980242505546655 17.60640406078232 2.627733060331992 0.21235104648728456
          101.33827078594629 180.52724334575078 245.75245459820567 0.18934565556507274 0.07244782101241488 -0.14616922390414114
          5.643804279874323 0.0876545106002017 0.3608728221432274 0.01908140826017991 35.006708659099154 47.78924011354438
          0.08895359443848783 0.08582049267875248 0.07921139990301615 0.18665274729813283 9.317369025935145 0.08984208888398292
          0.11150637688307816 5.171824140059849 0.11395291260969838 12.74542056864187
        </DataArray>
        <DataArray type="Float64" Name="Temperature" format="ascii" RangeMin="-1.3832906503177527" RangeMax="12.000000000000005">
          0.508124986272828 -0.7755844026702673 0.045428473659849346 -0.4416068256747488 -0.09880367119367776 12
          -0.1323757161457845 12 -0.21366029516252644 0.2651126103786322 0.03240953938370983 11.999999999999998
          11.999999999999998 12.000000000000005 0.40613493757852387 -0.14914935589020528 0.22923448561244722 -0.17959266370326732
          0.19446032977608 -0.5810501497351395 11.999999999999998 -0.0379621392122636 -0.6066451554608453 12.000000000000005
          11.999999999999998 1.8063807109153418 -0.17160612026736108 0.0751687529351671 12 1.1180718835174142
          12 12.000000000000002 -0.3307001402832706 12 1.328595218928089 11.999999999999998
          1.070549070955826 0.019905736728208126 12.000000000000002 -0.1742058575117952 -1.3832906503177527 12
          12.000000000000002 11.999999999999998 12.000000000000002 -0.4189797334760726 12.000000000000002 11.999999999999998
          -0.012463190392738086 11.999999999999998 12.000000000000002 11.999999999999996 0.675191790586169 -0.2035567784694616
          12.000000000000004 12.000000000000002 2.174392955475005 12.000000000000002 12.000000000000002 0.13370489866276908
          12 12 1.9153445582579305 11.999999999999998 12 2.609738827632323
          11.999999999999998 12 12.000000000000002 -0.004345321023041671 1.6752715057130383 3.139457143417755
          11.999999999999996 0.21076035367490142 11.999999999999998 7.643560000000001 12 12
          2.8341094535159104 7.643559999999999 8.129456 8.136573000000002 11.999999999999998 12
          7.64356 12 8.129455999999998 12
        </DataArray>
        <DataArray type="Float64" Name="DISSI_TEMPE" format="ascii" RangeMin="1.4326732526947667e-31" RangeMax="1.9600723340210477">
          0.004704848446482023 0.25576671844974624 0.0013773092597891721 0.08660445459842901 0.3185021818353901 0.38725536561162444
          0.0003933580735368582 0.6410056829806455 0.015154202429759187 0.23916882614129814 0.5161608897372736 0.33070482463284756
          0.594622690895423 0.9731182944146607 0.003084686881278687 0.218175818733862 0.21728065257273138 0.009628547779022289
          0.22851565343182287 0.2109215085887713 0.556635854377331 0.0008170068497502604 0.15950568463635345 0.6478147204723118
          0.6450526729498098 0.5415797040900756 0.5221060656427594 0.0033649256827902067 0.35958545537646375 0.3687780359955697
          0.7779590156118135 0.5518287565815634 0.010136852258999159 0.4066798224697957 0.29101157638118436 0.6006605461704395
          0.6482333971785501 0.34461813851445205 0.9978657300052716 0.18212394791719091 0.29672983887594656 0.4507701728579913
          0.5277029160918458 0.539847602841747 0.4477977319185029 0.1957727289825337 1.4326732526947667e-31 0.6753651954182803
          0.32428856310103776 2.278058887129034e-31 0.8446025787985924 0.4772146359801171 1.236096045929429 0.017776612258857093
          0.6996383935719693 0.7962622596580801 0.03525466053768008 1.8028652669968355e-31 0.4396028232783498 0.35636769072035357
          1.9600723340210477 0.7785593841787266 0.4162130058748966 0.37142241152961863 1.5165785294321854 0.5150822725687642
          1.0983864329383297 1.083529613783456 3.324341755182999e-31 1.1275567193913467 0.06520494942921164 0.5634093445339221
          0.4352952226451826 0.278943153414103 0.3617474885426773 0.06992109985435169 0.5811625568371395 0.37359816580080546
          0.5868542812434342 0.1196203102247087 0.2590154214538185 0.41850554993381817 0.571867952857634 0.4887099126096348
          0.1525542896210431 0.23305668663451018 0.3037181379193185 0.017640199855811754
        </DataArray>
        <DataArray type="Float64" Name="CN2" format="ascii" RangeMin="0" RangeMax="1.7599421856883378e-10">
          0 2.0607273758022274e-11 5.622675851075849e-14 7.893310030934864e-12 1.909062714073865e-11 3.544591415037284e-11
          6.151157253892839e-14 3.928112162678827e-11 1.0692786448082216e-12 3.939710931832127e-11 2.374926768076898e-11 4.3632311391360485e-11
          1.1906607885440626e-10 8.613623840835578e-11 0 1.7626585685973455e-11 2.994131062037416e-11 1.1448860136772104e-12
          1.6100311152096523e-11 2.1710821750622304e-11 1.2931334952581734e-10 1.1442622036458445e-13 9.215184090870196e-12 1.009106375196872e-10
          4.03014442297951e-11 3.499269104687186e-11 2.7667510771273055e-11 0 3.7815570605704755e-11 6.901167395682125e-11
          1.7599421856883378e-10 3.757603490081163e-11 1.6555724547267255e-12 3.896545433731459e-11 2.79556926593291e-11 3.4184749872729216e-11
          9.001524732200323e-11 1.5799042714490753e-11 8.691609185639349e-11 4.975876014737385e-11 1.6556404816752334e-11 1.0274377409228348e-10
          3.759926117502236e-11 5.946101845474729e-11 6.021201436794186e-11 1.7623411293505783e-11 0 1.409176469906498e-10
          2.8129568176098568e-11 0 5.993360529407647e-11 5.154104427098342e-11 1.3418092472041772e-10 4.200704857702614e-12
          5.2375454518013784e-11 7.957303240320118e-11 0 0 6.087262761892368e-11 6.650732965029937e-11
          3.821734817418657e-11 9.73343771987841e-11 2.980271804316426e-11 1.3506453709774255e-11 4.0413740158720514e-11 2.8741876493511395e-11
          5.89828622933493e-11 7.004282585628984e-11 0 1.5498629486492007e-10 2.0557156716718326e-11 3.321853508389738e-11
          1.4812176586933404e-11 2.672467927168158e-11 2.771857666996751e-11 0 5.732650000465369e-11 2.6966665615198073e-11
          6.929982688612047e-11 1.3742514211900408e-11 7.67607833576977e-12 1.8065502222013978e-11 1.9789636512922323e-11 2.184921201594583e-11
          2.235792984893773e-11 1.0750181410833528e-11 1.5108522365756186e-11 2.0142708900843398e-12
        </DataArray>
        <DataArray type="Float64" Name="CT2" format="ascii" RangeMin="0" RangeMax="186.40207601717452">
          0 18.170407327566764 0.05017797112056758 6.994103517266443 17.00067191058127 37.54333744242084
          0.05475003509927059 41.605003958292926 0.9505949909977883 35.270946265511604 21.1895237336674 46.21403746877684
          126.1090636685459 91.23108811483326 0 15.684851973226953 26.791413303056284 1.0183163248560223
          14.398859878329691 19.197949758393662 136.96236505016304 0.10198970625005749 8.145147710989276 106.87819324404121
          42.68441758699028 32.03944904483388 24.612133079456193 0 40.05281279190152 62.55742895088278
          186.40207601717452 39.79884365306496 1.4692866318394313 41.269225995645094 25.418795052778684 36.20579031641935
          81.53923800371408 14.093589773183663 92.05659549820486 44.260353028749414 14.467740151524984 108.81852798210721
          39.822032380206934 62.97590766405753 63.77155173701589 15.62004392552258 0 149.2503512023185
          25.08060210993594 0 63.47682240598915 54.588012937311824 120.84668241481589 3.734920457174429
          55.47187628979633 84.27714163858897 0 0 64.47165780354892 59.425904955833005
          40.47663975336338 103.08877930179484 27.330437696255785 14.304903573321214 42.80286028272112 26.624899813089478
          62.469852399537274 74.18383183687402 0 138.20442594769696 18.786169133492137 31.008775981421916
          15.687816575926462 23.905925169658786 29.357157123557876 0 60.71546744745709 28.560803032334288
          64.40473422730433 13.685324193851113 7.697313440601801 18.11721767584174 20.95946618690344 23.140830388985783
          22.264907672684473 11.38568040644351 15.150192031128904 2.1333342261320785
        </DataArray>
      </PointData>
      <CellData>
        <DataArray type="UInt8" Name="vtkGhostType" format="ascii" RangeMin="0" RangeMax="0">
          0 0 0 0 0 0
          0 0 0 0 0 0
          0 0 0 0 0 0
          0 0 0 0 0 0
          0 0 0 0 0 0
          0 0 0 0 0 0
          0 0 0 0 0 0
          0 0 0 0 0 0
          0 0 0 0 0 0
          0 0 0 0 0 0
          0 0 0 0 0 0
          0 0 0 0 0 0
          0 0 0 0 0 0
          0 0 0 0 0 0
          0 0 0 0 0 0
          0 0 0 0 0 0
          0 0 0 0 0 0
          0 0 0 0 0 0
          0 0 0 0 0 0
          0 0 0 0 0 0
          0 0 0 0 0 0
          0 0 0 0 0 0
          0 0 0 0 0 0
          0 0 0 0 0 0
          0 0 0 0 0 0
          0 0 0 0 0 0
          0 0 0 0 0 0
          0 0 0 0 0 0
          0 0 0 0 0 0
          0 0 0 0 0 0
          0 0 0 0 0 0
          0 0 0 0 0 0
          0 0 0 0 0 0
          0 0 0 0 0 0
          0 0 0 0 0 0
          0 0 0 0 0 0
          0 0 0 0 0 0
          0 0 0 0 0 0
          0 0 0 0 0 0
          0 0 0 0 0
        </DataArray>
      </CellData>
      <Points>
        <DataArray type="Float32" Name="Points" NumberOfComponents="3" format="ascii" RangeMin="0" RangeMax="24.49489742783178">
          20 10 10 20 6.5 10
          16 10 10 20 10 5
          16.37211036682129 5.206768989562988 10 20 3 10
          14.333330154418945 10 5.767949104309082 17.5 2.625 10
          12 10 10 14.425399780273438 5.033590793609619 7.012404918670654
          13.360549926757812 4.658843994140625 10 20 3 5
          16.25 2.4375 7.37460994720459 15 2.25 10
          20 10 0 12.214110374450684 6.010365009307861 4.925261974334717
          14.570380210876465 5.105739116668701 2.9404709339141846 12 10 3.0717968940734863
          10 10 6.535898208618164 20 6.5 0
          16.344310760498047 2.451646089553833 3.285098075866699 16 10 0
          10.119270324707031 5.519060134887695 10 13.631239891052246 2.0446860790252686 6.215021133422852
          12.5 1.875 10 10.550640106201172 4.647356033325195 7.100153923034668
          16.37211036682129 5.206768989562988 0 8 10 10
          20 3 0 11.739009857177734 4.367464065551758 2.512845993041992
          13.663330078125 2.049499034881592 2.55780291557312 17.5 2.625 0
          12 10 0 10.661359786987305 1.5992039442062378 6.873061180114746
          9.59029769897461 6.954894065856934 2.912667989730835 10 1.5 10
          8.36054801940918 3.908843994140625 10 13.360549926757812 4.658843994140625 0
          15 2.25 0 6.61377477645874 6.690732002258301 10
          8 10 3.0717968940734863 10.999679565429688 1.6499520540237427 3.4145760536193848
          9 3 5 8 4.732050895690918 5
          8 3 6.732050895690918 10.596699714660645 5.428274154663086 0
          9 1.350000023841858 5 12.5 1.875 0
          5.6666669845581055 10 5.767949104309082 7.9958391189575195 1.1993759870529175 6.734446048736572
          7.5 1.125 10 8 3 3.267949104309082
          5.86054801940918 3.533843994140625 10 8 10 0
          6 4.732050895690918 5 6 3 6.732050895690918
          4 10 10 7.995840072631836 1.1993759870529175 3.2655539512634277
          10 1.5 0 7.719629764556885 4.535800933837891 0
          6.004158973693848 0.9006239175796509 6.734445095062256 6 3 3.267949104309082
          3.305811882019043 6.3972368240356445 10 5 3 5
          5 0.75 10 3.3605480194091797 3.158843994140625 10
          6.004159927368164 0.9006239771842957 3.2655539512634277 7.5 1.125 0
          5 0.75 5 5.535371780395508 3.26835298538208 0
          4 10 0 3.0012240409851074 5.308693885803223 3.156306028366089
          3.720721960067749 0.5581083297729492 6.921747207641602 4.087935924530029 6.566143035888672 0
          2.5 0.375 10 0 10 10
          5 0.75 0 3.3971519470214844 0.5095726847648621 3.1724090576171875
          3.3605480194091797 3.158843994140625 0 0 10 5
          0 5 10 0 4.949490070343018 5.050509929656982
          2.5 0.375 0 0 0 10
          0 10 0 0 0 5
          0 5 0 0 0 0
          <InformationKey name="L2_NORM_RANGE" location="vtkDataArray" length="2">
            <Value index="0">
              0
            </Value>
            <Value index="1">
              24.494897428
            </Value>
          </InformationKey>
        </DataArray>
      </Points>
      <Cells>
        <DataArray type="Int64" Name="connectivity" format="ascii" RangeMin="0" RangeMax="87">
          16 20 19 11 53 40
          70 73 81 63 77 71
          69 59 61 51 62 55
          52 65 66 77 69 76
          55 68 72 63 79 62
          75 80 52 55 64 65
          10 8 2 9 32 37
          21 16 47 41 30 29
          15 9 23 16 54 48
          34 40 44 42 43 25
          43 39 44 25 41 15
          23 29 62 54 81 71
          77 69 78 61 32 17
          53 34 39 54 62 48
          59 73 54 34 19 3
          21 16 11 1 4 12
          79 56 75 62 45 17
          32 34 54 59 61 73
          23 33 24 25 18 22
          39 25 23 10 24 13
          24 10 23 25 39 48
          56 27 46 42 44 33
          4 11 12 9 64 60
          52 50 40 73 54 71
          23 15 41 25 44 35
          36 50 39 18 43 48
          10 9 23 25 43 54
          39 48 23 16 30 29
          85 81 65 72 60 50
          49 55 21 17 32 16
          49 35 44 50 81 62
          79 80 39 22 36 25
          26 38 20 16 81 85
          65 80 81 63 65 72
          8 9 22 25 20 38
          30 16 46 44 49 33
          20 16 19 26 70 40
          48 73 7 4 12 13
          61 59 69 73 45 51
          58 29 52 39 36 55
          69 73 78 71 36 35
          44 25 42 15 41 29
          19 21 3 14 77 63
          61 71 78 82 77 86
          40 73 53 34 18 48
          39 27 68 61 77 63
          17 40 53 34 23 13
          12 9 49 50 44 55
          17 37 32 16 48 54
          34 43 81 77 63 85
          18 8 22 25 44 35
          49 33 36 39 44 55
          61 54 43 59 86 73
          84 71 59 45 53 34
          11 9 3 16 10 13
          23 9 52 50 60 55
          11 1 3 9 77 72
          63 85 86 81 77 71
          6 17 21 16 4 1
          11 9 54 73 61 71
          39 62 56 48 43 15
          42 29 70 48 79 71
          67 59 69 51 4 2
          3 9 37 16 17 29
          43 34 18 25 43 18
          39 25 52 62 39 55
          86 84 79 71 15 34
          17 29 12 13 4 9
          32 17 45 37 3 1
          4 9 45 34 51 29
          79 62 81 71 69 78
          61 71 45 37 17 29
          48 73 40 71 57 58
          67 51 10 2 4 9
          6 8 18 15 31 26
          20 19 67 61 57 51
          54 73 40 34 62 48
          54 71 18 27 39 22
          11 20 12 9 41 58
          57 51 56 62 79 48
          46 41 57 51 41 42
          46 33 47 37 30 38
          46 42 41 51 3 2
          4 1 43 51 59 34
          23 20 30 16 77 86
          85 81 8 15 6 9
          0 2 3 1 24 22
          10 25 41 33 23 25
          87 85 77 86 69 61
          67 51 52 60 64 55
          59 51 45 34 41 51
          42 29 39 55 62 54
          12 20 23 9 15 34
          43 25 15 16 23 29
          22 9 10 25 44 39
          43 54 44 55 39 54
          23 9 15 25 84 70
          79 71 35 33 44 25
          44 33 42 25 61 73
          69 71 84 73 70 71
          17 15 18 34 36 22
          35 25 36 50 55 44
          79 81 86 71 2 8
          6 9 18 17 6 15
          27 22 18 8 4 13
          10 9 42 51 43 29
          22 8 10 9 31 11
          28 19 15 9 8 25
          43 59 54 34 78 73
          86 71 86 77 78 71
          41 15 42 25 18 40
          17 34 54 63 81 71
          70 73 48 71 3 2
          6 9 17 34 45 29
          74 65 64 72 64 55
          60 72 64 65 55 72
          57 61 67 66 69 76
          67 66 67 61 69 66
          21 26 19 16 77 86
          82 87 24 33 35 25
          20 26 31 38 35 22
          24 25 55 68 60 72
          17 16 15 29 76 82
          77 78 77 66 69 61
          77 72 68 63 61 78
          77 71 48 40 54 71
          30 16 37 29 58 51
          41 29 61 63 54 71
          67 58 59 51 59 58
          45 51 37 26 21 16
          23 9 20 16 50 36
          55 52 43 48 18 34
          85 65 80 83 42 15
          43 25 61 59 43 51
          30 38 37 16 45 58
          47 29 43 34 15 29
          62 54 55 63 81 54
          62 63 55 72 65 63
          31 11 19 20 42 33
          41 25 3 9 6 16
          55 65 62 63 62 65
          81 63 48 40 18 34
          74 85 65 72 79 48
          62 71 11 5 1 12
          53 73 59 34 44 39
          36 25 62 80 81 65
          30 41 23 29 53 45
          32 34 3 6 21 16
          12 7 1 4 85 74
          65 83 18 15 8 25
          18 34 15 25 68 61
          66 77 6 15 17 16
          63 72 81 85 47 58
          41 29 47 37 45 29
          20 9 11 16 5 7
          1 12 69 77 78 76
          30 37 47 29 37 38
          26 16 11 3 19 16
          51 34 43 29 6 9
          15 16
        </DataArray>
        <DataArray type="Int64" Name="offsets" format="ascii" RangeMin="4" RangeMax="956">
          4 8 12 16 20 24
          28 32 36 40 44 48
          52 56 60 64 68 72
          76 80 84 88 92 96
          100 104 108 112 116 120
          124 128 132 136 140 144
          148 152 156 160 164 168
          172 176 180 184 188 192
          196 200 204 208 212 216
          220 224 228 232 236 240
          244 248 252 256 260 264
          268 272 276 280 284 288
          292 296 300 304 308 312
          316 320 324 328 332 336
          340 344 348 352 356 360
          364 368 372 376 380 384
          388 392 396 400 404 408
          412 416 420 424 428 432
          436 440 444 448 452 456
          460 464 468 472 476 480
          484 488 492 496 500 504
          508 512 516 520 524 528
          532 536 540 544 548 552
          556 560 564 568 572 576
          580 584 588 592 596 600
          604 608 612 616 620 624
          628 632 636 640 644 648
          652 656 660 664 668 672
          676 680 684 688 692 696
          700 704 708 712 716 720
          724 728 732 736 740 744
          748 752 756 760 764 768
          772 776 780 784 788 792
          796 800 804 808 812 816
          820 824 828 832 836 840
          844 848 852 856 860 864
          868 872 876 880 884 888
          892 896 900 904 908 912
          916 920 924 928 932 936
          940 944 948 952 956
        </DataArray>
        <DataArray type="UInt8" Name="types" format="ascii" RangeMin="10" RangeMax="10">
          10 10 10 10 10 10
          10 10 10 10 10 10
          10 10 10 10 10 10
          10 10 10 10 10 10
          10 10 10 10 10 10
          10 10 10 10 10 10
          10 10 10 10 10 10
          10 10 10 10 10 10
          10 10 10 10 10 10
          10 10 10 10 10 10
          10 10 10 10 10 10
          10 10 10 10 10 10
          10 10 10 10 10 10
          10 10 10 10 10 10
          10 10 10 10 10 10
          10 10 10 10 10 10
          10 10 10 10 10 10
          10 10 10 10 10 10
          10 10 10 10 10 10
          10 10 10 10 10 10
          10 10 10 10 10 10
          10 10 10 10 10 10
          10 10 10 10 10 10
          10 10 10 10 10 10
          10 10 10 10 10 10
          10 10 10 10 10 10
          10 10 10 10 10 10
          10 10 10 10 10 10
          10 10 10 10 10 10
          10 10 10 10 10 10
          10 10 10 10 10 10
          10 10 10 10 10 10
          10 10 10 10 10 10
          10 10 10 10 10 10
          10 10 10 10 10 10
          10 10 10 10 10 10
          10 10 10 10 10 10
          10 10 10 10 10 10
          10 10 10 10 10 10
          10 10 10 10 10
        </DataArray>
      </Cells>
    </Piece>
  </UnstructuredGrid>
</VTKFile>
