<?xml version="1.0"?>
<VTKFile type="UnstructuredGrid" version="0.1" byte_order="LittleEndian" header_type="UInt32" compressor="vtkZLibDataCompressor">
  <UnstructuredGrid>
    <Piece NumberOfPoints="88" NumberOfCells="239">
      <PointData>
        <DataArray type="Float64" Name="nsi_BC" NumberOfComponents="3" format="ascii" RangeMin="0" RangeMax="1">
          1 0 0 1 0 0
          1 0 0 1 0 0
          1 0 0 0 0 0
          1 0 0 0 0 0
          1 0 0 0 0 0
          1 0 0 0 0 0
          0 0 0 0 0 0
          1 0 0 0 0 0
          0 0 0 1 0 0
          1 0 0 1 0 0
          0 0 0 1 0 0
          1 0 0 0 0 0
          0 0 0 0 0 0
          1 0 0 1 0 0
          0 0 0 0 0 0
          0 0 0 0 0 0
          1 0 0 0 0 0
          0 0 0 0 0 0
          1 0 0 1 0 0
          0 0 0 1 0 0
          1 0 0 0 0 0
          0 0 0 0 0 0
          0 0 0 1 0 0
          0 0 0 0 0 0
          1 0 0 0 0 0
          0 0 0 0 0 0
          1 0 0 1 0 0
          0 0 0 0 0 0
          1 0 0 0 0 0
          0 0 0 1 0 0
          0 0 0 0 0 0
          1 0 0 0 0 0
          0 0 0 1 0 0
          0 0 0 0 0 0
          0 0 0 1 0 0
          1 0 0 0 0 0
          0 0 0 1 0 0
          0 0 0 1 0 0
          0 0 0 0 0 0
          1 0 0 1 0 0
          1 0 0 1 0 0
          0 0 0 0 0 0
          1 0 0 0 0 0
          1 0 0 0 0 0
          <InformationKey name="L2_NORM_RANGE" location="vtkDataArray" length="2">
            <Value index="0">
              0
            </Value>
            <Value index="1">
              1
            </Value>
          </InformationKey>
        </DataArray>
        <DataArray type="Float64" Name="nsi_FIXNO" NumberOfComponents="3" format="ascii" RangeMin="1.7320508075688772" RangeMax="1.7320508075688772">
          1 1 1 1 1 1
          1 1 1 1 1 1
          1 1 1 1 1 1
          1 1 1 1 1 1
          1 1 1 -1 -1 -1
          1 1 1 1 1 1
          1 1 1 1 1 1
          1 1 1 -1 -1 -1
          -1 -1 -1 1 1 1
          1 1 1 1 1 1
          1 1 1 1 1 1
          1 1 1 1 1 1
          1 1 1 -1 -1 -1
          1 1 1 1 1 1
          1 1 1 -1 -1 -1
          1 1 1 1 1 1
          1 1 1 1 1 1
          -1 -1 -1 1 1 1
          1 1 1 1 1 1
          1 1 1 1 1 1
          1 1 1 1 1 1
          1 1 1 1 1 1
          1 1 1 1 1 1
          1 1 1 1 1 1
          1 1 1 1 1 1
          1 1 1 1 1 1
          1 1 1 1 1 1
          1 1 1 1 1 1
          1 1 1 1 1 1
          1 1 1 1 1 1
          1 1 1 1 1 1
          1 1 1 1 1 1
          1 1 1 1 1 1
          1 1 1 1 1 1
          1 1 1 1 1 1
          1 1 1 -1 -1 -1
          1 1 1 1 1 1
          1 1 1 1 1 1
          1 1 1 1 1 1
          1 1 1 1 1 1
          1 1 1 1 1 1
          1 1 1 1 1 1
          1 1 1 1 1 1
          1 1 1 1 1 1
          <InformationKey name="L2_NORM_RANGE" location="vtkDataArray" length="2">
            <Value index="0">
              1.7320508076
            </Value>
            <Value index="1">
              1.7320508076
            </Value>
          </InformationKey>
        </DataArray>
        <DataArray type="Float64" Name="tem_BC" format="ascii" RangeMin="0" RangeMax="12">
          0 0 0 0 0 12
          0 12 0 0 0 12
          12 12 0 0 0 0
          0 0 12 0 0 12
          12 0 0 0 12 0
          12 12 0 12 0 12
          0 0 12 0 0 12
          12 12 12 0 12 12
          0 12 12 12 0 0
          12 12 0 12 12 0
          12 12 0 12 12 0
          12 12 12 0 0 0
          12 0 12 7.64356 12 12
          0 7.64356 8.129456 8.136573 12 12
          7.64356 12 8.129456 12
        </DataArray>
        <DataArray type="Float64" Name="tem_FIXNO" format="ascii" RangeMin="-1" RangeMax="1">
          -1 -1 -1 -1 -1 1
          -1 1 -1 -1 -1 1
          1 1 -1 -1 -1 -1
          -1 -1 1 -1 -1 1
          1 -1 -1 -1 1 -1
          1 1 -1 1 -1 1
          -1 -1 1 -1 -1 1
          1 1 1 -1 1 1
          -1 1 1 1 -1 -1
          1 1 -1 1 1 -1
          1 1 -1 1 1 -1
          1 1 1 -1 -1 -1
          1 -1 1 1 1 1
          -1 1 1 1 1 1
          1 1 1 1
        </DataArray>
        <DataArray type="Float64" Name="Velocity" NumberOfComponents="3" format="ascii" RangeMin="0" RangeMax="1.0000000000000002">
          1 0 0 1 0 0
          1 0 0 1 0 0
          1 0 0 0 0 0
          1 0 0 0 0 0
          1 0 0 0.770467926025571 0.11918295658114314 0.07686332992894794
          1 0 0 0 0 0
          0 0 0 0 0 0
          1 0 0 0.7708791936321867 0.03549458092960986 -0.003985230258337871
          0.7375910279297899 0.11091414656058435 -0.013520480632886668 1 0 0
          1 0 0 1 0 0
          0 0 0 1 0 0
          1 0 0 0 0 0
          0 0 0 0.573316086482895 0.06614018997355905 -0.08562585639416742
          1 0 0 1.0000000000000002 0 0
          0 0 0 0.5595864120581484 0.10838189506192113 -0.03153025319587571
          0 0 0 0 0 0
          1 0 0 0 0 0
          0.7057522366993053 -0.06998540565037421 0.07207419498256659 0 0 0
          1 0 0 1 0 0
          0 0 0 1 0 0
          1 0 0 0 0 0
          0 0 0 0 0 0
          0 0 0 1 0 0
          0 0 0 0 0 0
          1 0 0 0 0 0
          0 0 0 0 0 0
          1.0000000000000002 0 0 1 0 0
          0 0 0 0 0 0
          1 0 0 0 0 0
          0 0 0 1 0 0
          0 0 0 0 0 0
          1 0 0 0 0 0
          0 0 0 1 0 0
          0 0 0 0 0 0
          0 0 0 1 0 0
          1 0 0 0.7617113810615853 0.026563295150908245 -0.13399709757724426
          0 0 0 1 0 0
          0 0 0 1 0 0
          0 0 0 0 0 0
          1 0 0 1 0 0
          1 0 0 1 0 0
          0 0 0 0 0 0
          1 0 0 0 0 0
          1 0 0 0 0 0
          <InformationKey name="L2_NORM_RANGE" location="vtkDataArray" length="2">
            <Value index="0">
              0
            </Value>
            <Value index="1">
              1
            </Value>
          </InformationKey>
        </DataArray>
        <DataArray type="Float64" Name="Pressure" format="ascii" RangeMin="0" RangeMax="9.977852007816155">
          0 7.806878385540812 7.525897105725417 8.23641048117555 8.337550413737837 8.264329342222041
          8.68286110915222 8.594842036769323 8.902741267362227 8.871035178930835 9.07241358305244 8.765336336022607
          8.847982822966243 8.963065970543292 8.729152173016924 9.197618515930893 8.963278217563456 9.12327017210375
          9.375841150500962 8.82888815017304 8.938637537344752 8.91423945706088 9.460359009881268 9.271850289575312
          9.45185917723757 9.496320126518418 8.970279183160267 9.53762128371644 8.926025144019588 9.47223917812236
          9.308993032180158 8.984974234721596 9.249421123290706 9.7559017193144 9.575807816496315 9.755948922765949
          9.68696963827225 9.216131179271176 9.211142854408317 9.73552996723291 9.749821946427845 9.755879416170137
          9.75594593602146 9.765105974343395 9.756003716399604 9.591469830154772 9.755938282619054 9.47629763135647
          9.786398778529591 9.756005148950928 9.755999865455962 9.7560271905599 9.73291675943037 9.744673469811648
          9.889263146815312 9.756099327005455 9.823385578351964 9.756025702266307 9.755976945755773 9.727329769629687
          9.756094330990818 9.756143905804148 9.88358800888274 9.756195367477192 9.756162632961697 9.755264479426174
          9.75611416556537 9.756026811086022 9.756170886054926 9.77801905544594 9.921515472496637 9.872558551697722
          9.75615738730906 9.977852007816155 9.761569216693536 9.786666078623789 9.781686793085942 9.75617161605392
          9.757318948283364 9.7114374198014 9.803578732989228 9.75272430735639 9.7704198462057 9.740267344624598
          9.81501393170486 9.756132490915293 9.792804558403704 9.776869333134755
        </DataArray>
        <DataArray type="Float64" Name="DISSI_NS" format="ascii" RangeMin="-0.00003270853311068409" RangeMax="928.2054212938984">
          19.031736877272408 2.4727468395442984 2.4288184275706137 0.9964804092306911 0.10801794728111233 27.553735285452905
          0.07197493217214673 18.85624428300221 0.09794539826174642 0.10006276533795742 0.12123044700027606 20.649256058397285
          824.8390131422251 651.5490818698164 0.015178613631805058 -0.00003270853311068409 0.03914585605102383 0.036259452586670696
          0.06511234963630669 0.04297828246828363 745.2693638475295 0.02468269193995686 0.0805190844480143 928.2054212938984
          481.4020469357218 0.06564492936329834 0.04838982864097246 0.02287584943372858 3.2257297946059436 0.006681732247518062
          909.1128873580892 2.4478569344347445 0.04695448351541004 749.3604615961408 0.023530829157987043 129.125181032907
          0.07137295385320867 0.05087623641854514 490.5616616765602 0.023442403910698593 0.07572254827858034 324.03240920740654
          0.37219380187367124 133.76252665102166 85.55073784516769 0.03597409010332346 0.00013013020480385565 189.42689680675613
          0.07758512354241093 0.00015486095840504667 9.809783938174219 1.9663313227760217 0.2953917243505783 0.025464173494066468
          109.30752342423861 97.46634904657562 0.0027430665788233167 0.00018361174302929838 40.18663526088772 0.04180757011893627
          0.054899077936890896 78.0335594705648 0.11367015556132071 0.060681900952933444 0.05858548084679125 0.19183007361764043
          0.3227924091939476 0.8069654775625796 0.00007716142945129076 0.19667774959066833 0.01257645417156347 0.10212473244479855
          0.009305193012075132 0.07740356671546374 0.033792438851590854 0.0008938545183460029 0.31539644612165857 0.4547243438556477
          0.08485865179418431 0.015020188756760144 0.0689371904605818 0.10912380110516826 0.04370346867626462 0.035592264206093426
          0.026360858734393262 0.02830329402237988 0.055968524000307926 0.03977401605945881
        </DataArray>
        <DataArray type="Float64" Name="Temperature" format="ascii" RangeMin="-1.9078829475775636" RangeMax="12.000000000000004">
          0.6846901599073522 -1.367849250992317 0.014506451565479313 -0.7977223139278591 -0.08640445040394727 12
          -0.4079029408097817 12 -0.5054394504295466 0.6723459227261567 0.12168708224746476 12
          12 12 0.5144948292186622 0.5155602498972944 0.5178737033391528 -0.30753653479838683
          0.1578929206995456 -1.0191193638095066 12 -0.14070450004752091 -0.5905477168819061 12.000000000000002
          12.000000000000002 3.357589419412443 -0.2597591528507474 0.35140288144337206 12 2.375713998596389
          12 12.000000000000002 -0.5526380595938263 12.000000000000002 2.0805992363317967 12
          1.7498337851609358 0.053357582792128246 11.999999999999998 0.14269333006387785 -1.9078829475775636 12.000000000000002
          12.000000000000002 12 11.999999999999998 -0.4204991457022206 12.000000000000002 12
          0.7022246470145194 11.999999999999998 12 12.000000000000004 2.0005728412866928 -0.4700422867437966
          12.000000000000004 12.000000000000002 3.858908199079477 12.000000000000002 12 0.31354673736998945
          12 12 3.33120003406395 12 12 4.476286622729037
          11.999999999999998 12 12.000000000000002 1.1603175674955153 3.102581417133333 5.252045180292484
          11.999999999999996 1.249029777680154 11.999999999999998 7.643560000000001 12 12
          4.819386492319937 7.643560000000001 8.129456 8.136573 11.999999999999998 12
          7.643559999999998 12 8.129456 12
        </DataArray>
        <DataArray type="Float64" Name="DISSI_TEMPE" format="ascii" RangeMin="6.32898901841717e-32" RangeMax="1.5281311526915071">
          0.011760247977953713 0.3638672431223607 0.004000637017167695 0.18267329491688564 0.285715873869546 0.4239932782526666
          0.0017602350030835074 0.6539778401882883 0.04017470796118545 0.2797460265523184 0.408733581119792 0.46952794377222595
          0.5383588838531946 0.7283996557027593 0.0073572244833894716 0.19271236403042108 0.23237664879164732 0.02063957467517505
          0.2779919611853279 0.26990222406462233 0.5064371030115615 0.002123261444882339 0.19404372312121432 0.4997630497212295
          0.5136525125427556 0.5493707140166043 0.4647777841060718 0.008184293497116172 0.38506278491635515 0.33831939101617897
          0.5758858033930714 0.5732620317695595 0.017834302645285263 0.3661218245734446 0.30807741385655296 0.4938445133987508
          0.5495533839500399 0.27419366066850587 0.7647419433833524 0.20964763885076812 0.27771973814986717 0.4035709304762084
          0.5386120715664083 0.5767781747075734 0.4171699752743895 0.2166133409772208 6.32898901841717e-32 0.5428408099569102
          0.2784935871805391 8.841407881301866e-32 0.6792474839310643 0.4617627874282777 0.9697171665444079 0.03482729319831052
          0.5284452793211822 0.5991642961597652 0.034198380242532675 8.382194095449692e-32 0.4358187784217562 0.34912730743724135
          1.5281311526915071 0.6224157582692801 0.27689782535168367 0.2176939186697065 1.0928948225363293 0.33004129760650563
          0.8955942938960993 0.9167106097582892 2.693961254491745e-31 0.9309410968467872 0.07685718205698808 0.37154046682632846
          0.28032447842269015 0.26801835968417365 0.2322280451308892 0.03925439452091439 0.4597928270716553 0.21691137826204437
          0.42766816433076577 0.05000697424642684 0.15302891433711055 0.19823290267740257 0.3291660889658107 0.2941867082787021
          0.08954133840481782 0.14682876943470383 0.14931313526749787 0.017640199855811747
        </DataArray>
        <DataArray type="Float64" Name="CN2" format="ascii" RangeMin="0" RangeMax="1.215762837051581e-10">
          0 2.3581076143842914e-11 2.961186534674976e-13 9.778033294152745e-12 1.8403062371017636e-11 3.880850159959104e-11
          3.6828575992282274e-13 4.0709726233200145e-11 3.1531990740995907e-12 3.4157773427727516e-11 2.1340423083055806e-11 4.1964186997229084e-11
          9.730851526192921e-11 7.05008100786319e-11 0 1.6861849035512626e-11 2.6546792089805132e-11 3.3730143184978192e-12
          1.5688713571049325e-11 2.266961306139114e-11 1.0648627690886683e-10 4.705178749643374e-13 1.1554696000337108e-11 8.054703332733232e-11
          5.62388286124418e-11 3.8464126515703717e-11 2.6374552774298396e-11 0 4.049493147656792e-11 3.752878019891233e-11
          1.1088441404813568e-10 3.94213176822823e-11 1.9342927548641078e-12 6.063594216025563e-11 2.1925872797065122e-11 3.776458615810333e-11
          7.61047265476928e-11 1.5941941118020086e-11 7.279698722269161e-11 4.430636318627201e-11 1.5103126128236563e-11 5.611218765862198e-11
          2.4686339318000356e-11 5.0795209039240087e-11 5.1911951471261636e-11 1.609956566097615e-11 0 6.854906648153894e-11
          2.3934569539591675e-11 0 5.072821469294263e-11 4.214513642514624e-11 1.0546532329974985e-10 4.891680243021905e-12
          3.8606694261745156e-11 6.596316076077348e-11 0 0 3.626715034511412e-11 4.9433868243610747e-11
          2.9794658263158486e-11 7.83889339288329e-11 2.2203932370030442e-11 7.862275038296959e-12 2.921326717331262e-11 1.928351441290638e-11
          4.809191427646301e-11 5.878525143232185e-11 0 1.215762837051581e-10 1.5483309387755263e-11 2.0520540307530432e-11
          9.531088453642204e-12 2.2138670803879318e-11 1.7793796229905314e-11 0 4.633916273340686e-11 1.9939767784894292e-11
          4.90939456847558e-11 8.17009780271347e-12 4.548286663264386e-12 9.45080306424292e-12 1.188760460153853e-11 1.338182880561651e-11
          1.3819703749519124e-11 6.941119795037085e-12 8.451894951053184e-12 2.014208887003596e-12
        </DataArray>
        <DataArray type="Float64" Name="CT2" format="ascii" RangeMin="0" RangeMax="117.44349382759943">
          0 20.612247206051286 0.2641455379181997 8.61885997494279 16.391500241065526 41.10497654078284
          0.3264855900177002 43.11842025273892 2.791304531116388 30.763366267848216 19.065516859128937 44.446952817710276
          103.0654981710379 74.67161912623834 0 15.151362949835693 23.854772228927587 2.994557092287853
          14.023628581791199 19.917028129102597 112.7860316377894 0.4187494444768938 10.215676975652475 85.31164744087386
          59.56532040345003 36.020308135940006 23.43176568557529 0 42.890632551409084 34.64786899741989
          117.44349382759943 41.753453988002 1.7110955758135666 64.22212999835749 20.156094571182756 39.99809474190266
          69.62596184364436 14.228236920452236 77.1032549784436 39.5949166272341 13.0965369742035 59.43082738596559
          26.146361959251596 53.79937709437643 54.98217674666119 14.269380811734141 0 72.60366571540264
          21.56510214255545 0 53.72843030277544 44.63772355263043 96.83952341923923 4.332435441173602
          40.889898579503125 69.86441568837054 0 0 38.41209615370045 44.287756696036844
          31.556801802561353 83.02508547690239 20.78510776722851 8.327273043646258 30.94102549496985 18.35226196773386
          50.936211220207575 62.26198382554325 0 110.27531669346395 14.446039691240859 19.748700998520356
          10.094784986572657 20.106707995272796 18.84617150175433 0 49.07977170763572 21.119064143875423
          46.95446216461022 8.1364935548573 4.561004911217771 9.47819893915371 12.590668821744956 14.173273923891356
          13.762833725519558 7.351637986850544 8.475530576841878 2.1333342261320767
        </DataArray>
      </PointData>
      <CellData>
        <DataArray type="UInt8" Name="vtkGhostType" format="ascii" RangeMin="0" RangeMax="0">
          0 0 0 0 0 0
          0 0 0 0 0 0
          0 0 0 0 0 0
          0 0 0 0 0 0
          0 0 0 0 0 0
          0 0 0 0 0 0
          0 0 0 0 0 0
          0 0 0 0 0 0
          0 0 0 0 0 0
          0 0 0 0 0 0
          0 0 0 0 0 0
          0 0 0 0 0 0
          0 0 0 0 0 0
          0 0 0 0 0 0
          0 0 0 0 0 0
          0 0 0 0 0 0
          0 0 0 0 0 0
          0 0 0 0 0 0
          0 0 0 0 0 0
          0 0 0 0 0 0
          0 0 0 0 0 0
          0 0 0 0 0 0
          0 0 0 0 0 0
          0 0 0 0 0 0
          0 0 0 0 0 0
          0 0 0 0 0 0
          0 0 0 0 0 0
          0 0 0 0 0 0
          0 0 0 0 0 0
          0 0 0 0 0 0
          0 0 0 0 0 0
          0 0 0 0 0 0
          0 0 0 0 0 0
          0 0 0 0 0 0
          0 0 0 0 0 0
          0 0 0 0 0 0
          0 0 0 0 0 0
          0 0 0 0 0 0
          0 0 0 0 0 0
          0 0 0 0 0
        </DataArray>
      </CellData>
      <Points>
        <DataArray type="Float32" Name="Points" NumberOfComponents="3" format="ascii" RangeMin="0" RangeMax="24.49489742783178">
          20 10 10 20 6.5 10
          16 10 10 20 10 5
          16.37211036682129 5.206768989562988 10 20 3 10
          14.333330154418945 10 5.767949104309082 17.5 2.625 10
          12 10 10 14.425399780273438 5.033590793609619 7.012404918670654
          13.360549926757812 4.658843994140625 10 20 3 5
          16.25 2.4375 7.37460994720459 15 2.25 10
          20 10 0 12.214110374450684 6.010365009307861 4.925261974334717
          14.570380210876465 5.105739116668701 2.9404709339141846 12 10 3.0717968940734863
          10 10 6.535898208618164 20 6.5 0
          16.344310760498047 2.451646089553833 3.285098075866699 16 10 0
          10.119270324707031 5.519060134887695 10 13.631239891052246 2.0446860790252686 6.215021133422852
          12.5 1.875 10 10.550640106201172 4.647356033325195 7.100153923034668
          16.37211036682129 5.206768989562988 0 8 10 10
          20 3 0 11.739009857177734 4.367464065551758 2.512845993041992
          13.663330078125 2.049499034881592 2.55780291557312 17.5 2.625 0
          12 10 0 10.661359786987305 1.5992039442062378 6.873061180114746
          9.59029769897461 6.954894065856934 2.912667989730835 10 1.5 10
          8.36054801940918 3.908843994140625 10 13.360549926757812 4.658843994140625 0
          15 2.25 0 6.61377477645874 6.690732002258301 10
          8 10 3.0717968940734863 10.999679565429688 1.6499520540237427 3.4145760536193848
          9 3 5 8 4.732050895690918 5
          8 3 6.732050895690918 10.596699714660645 5.428274154663086 0
          9 1.350000023841858 5 12.5 1.875 0
          5.6666669845581055 10 5.767949104309082 7.9958391189575195 1.1993759870529175 6.734446048736572
          7.5 1.125 10 8 3 3.267949104309082
          5.86054801940918 3.533843994140625 10 8 10 0
          6 4.732050895690918 5 6 3 6.732050895690918
          4 10 10 7.995840072631836 1.1993759870529175 3.2655539512634277
          10 1.5 0 7.719629764556885 4.535800933837891 0
          6.004158973693848 0.9006239175796509 6.734445095062256 6 3 3.267949104309082
          3.305811882019043 6.3972368240356445 10 5 3 5
          5 0.75 10 3.3605480194091797 3.158843994140625 10
          6.004159927368164 0.9006239771842957 3.2655539512634277 7.5 1.125 0
          5 0.75 5 5.535371780395508 3.26835298538208 0
          4 10 0 3.0012240409851074 5.308693885803223 3.156306028366089
          3.720721960067749 0.5581083297729492 6.921747207641602 4.087935924530029 6.566143035888672 0
          2.5 0.375 10 0 10 10
          5 0.75 0 3.3971519470214844 0.5095726847648621 3.1724090576171875
          3.3605480194091797 3.158843994140625 0 0 10 5
          0 5 10 0 4.949490070343018 5.050509929656982
          2.5 0.375 0 0 0 10
          0 10 0 0 0 5
          0 5 0 0 0 0
          <InformationKey name="L2_NORM_RANGE" location="vtkDataArray" length="2">
            <Value index="0">
              0
            </Value>
            <Value index="1">
              24.494897428
            </Value>
          </InformationKey>
        </DataArray>
      </Points>
      <Cells>
        <DataArray type="Int64" Name="connectivity" format="ascii" RangeMin="0" RangeMax="87">
          16 20 19 11 53 40
          70 73 81 63 77 71
          69 59 61 51 62 55
          52 65 66 77 69 76
          55 68 72 63 79 62
          75 80 52 55 64 65
          10 8 2 9 32 37
          21 16 47 41 30 29
          15 9 23 16 54 48
          34 40 44 42 43 25
          43 39 44 25 41 15
          23 29 62 54 81 71
          77 69 78 61 32 17
          53 34 39 54 62 48
          59 73 54 34 19 3
          21 16 11 1 4 12
          79 56 75 62 45 17
          32 34 54 59 61 73
          23 33 24 25 18 22
          39 25 23 10 24 13
          24 10 23 25 39 48
          56 27 46 42 44 33
          4 11 12 9 64 60
          52 50 40 73 54 71
          23 15 41 25 44 35
          36 50 39 18 43 48
          10 9 23 25 43 54
          39 48 23 16 30 29
          85 81 65 72 60 50
          49 55 21 17 32 16
          49 35 44 50 81 62
          79 80 39 22 36 25
          26 38 20 16 81 85
          65 80 81 63 65 72
          8 9 22 25 20 38
          30 16 46 44 49 33
          20 16 19 26 70 40
          48 73 7 4 12 13
          61 59 69 73 45 51
          58 29 52 39 36 55
          69 73 78 71 36 35
          44 25 42 15 41 29
          19 21 3 14 77 63
          61 71 78 82 77 86
          40 73 53 34 18 48
          39 27 68 61 77 63
          17 40 53 34 23 13
          12 9 49 50 44 55
          17 37 32 16 48 54
          34 43 81 77 63 85
          18 8 22 25 44 35
          49 33 36 39 44 55
          61 54 43 59 86 73
          84 71 59 45 53 34
          11 9 3 16 10 13
          23 9 52 50 60 55
          11 1 3 9 77 72
          63 85 86 81 77 71
          6 17 21 16 4 1
          11 9 54 73 61 71
          39 62 56 48 43 15
          42 29 70 48 79 71
          67 59 69 51 4 2
          3 9 37 16 17 29
          43 34 18 25 43 18
          39 25 52 62 39 55
          86 84 79 71 15 34
          17 29 12 13 4 9
          32 17 45 37 3 1
          4 9 45 34 51 29
          79 62 81 71 69 78
          61 71 45 37 17 29
          48 73 40 71 57 58
          67 51 10 2 4 9
          6 8 18 15 31 26
          20 19 67 61 57 51
          54 73 40 34 62 48
          54 71 18 27 39 22
          11 20 12 9 41 58
          57 51 56 62 79 48
          46 41 57 51 41 42
          46 33 47 37 30 38
          46 42 41 51 3 2
          4 1 43 51 59 34
          23 20 30 16 77 86
          85 81 8 15 6 9
          0 2 3 1 24 22
          10 25 41 33 23 25
          87 85 77 86 69 61
          67 51 52 60 64 55
          59 51 45 34 41 51
          42 29 39 55 62 54
          12 20 23 9 15 34
          43 25 15 16 23 29
          22 9 10 25 44 39
          43 54 44 55 39 54
          23 9 15 25 84 70
          79 71 35 33 44 25
          44 33 42 25 61 73
          69 71 84 73 70 71
          17 15 18 34 36 22
          35 25 36 50 55 44
          79 81 86 71 2 8
          6 9 18 17 6 15
          27 22 18 8 4 13
          10 9 42 51 43 29
          22 8 10 9 31 11
          28 19 15 9 8 25
          43 59 54 34 78 73
          86 71 86 77 78 71
          41 15 42 25 18 40
          17 34 54 63 81 71
          70 73 48 71 3 2
          6 9 17 34 45 29
          74 65 64 72 64 55
          60 72 64 65 55 72
          57 61 67 66 69 76
          67 66 67 61 69 66
          21 26 19 16 77 86
          82 87 24 33 35 25
          20 26 31 38 35 22
          24 25 55 68 60 72
          17 16 15 29 76 82
          77 78 77 66 69 61
          77 72 68 63 61 78
          77 71 48 40 54 71
          30 16 37 29 58 51
          41 29 61 63 54 71
          67 58 59 51 59 58
          45 51 37 26 21 16
          23 9 20 16 50 36
          55 52 43 48 18 34
          85 65 80 83 42 15
          43 25 61 59 43 51
          30 38 37 16 45 58
          47 29 43 34 15 29
          62 54 55 63 81 54
          62 63 55 72 65 63
          31 11 19 20 42 33
          41 25 3 9 6 16
          55 65 62 63 62 65
          81 63 48 40 18 34
          74 85 65 72 79 48
          62 71 11 5 1 12
          53 73 59 34 44 39
          36 25 62 80 81 65
          30 41 23 29 53 45
          32 34 3 6 21 16
          12 7 1 4 85 74
          65 83 18 15 8 25
          18 34 15 25 68 61
          66 77 6 15 17 16
          63 72 81 85 47 58
          41 29 47 37 45 29
          20 9 11 16 5 7
          1 12 69 77 78 76
          30 37 47 29 37 38
          26 16 11 3 19 16
          51 34 43 29 6 9
          15 16
        </DataArray>
        <DataArray type="Int64" Name="offsets" format="ascii" RangeMin="4" RangeMax="956">
          4 8 12 16 20 24
          28 32 36 40 44 48
          52 56 60 64 68 72
          76 80 84 88 92 96
          100 104 108 112 116 120
          124 128 132 136 140 144
          148 152 156 160 164 168
          172 176 180 184 188 192
          196 200 204 208 212 216
          220 224 228 232 236 240
          244 248 252 256 260 264
          268 272 276 280 284 288
          292 296 300 304 308 312
          316 320 324 328 332 336
          340 344 348 352 356 360
          364 368 372 376 380 384
          388 392 396 400 404 408
          412 416 420 424 428 432
          436 440 444 448 452 456
          460 464 468 472 476 480
          484 488 492 496 500 504
          508 512 516 520 524 528
          532 536 540 544 548 552
          556 560 564 568 572 576
          580 584 588 592 596 600
          604 608 612 616 620 624
          628 632 636 640 644 648
          652 656 660 664 668 672
          676 680 684 688 692 696
          700 704 708 712 716 720
          724 728 732 736 740 744
          748 752 756 760 764 768
          772 776 780 784 788 792
          796 800 804 808 812 816
          820 824 828 832 836 840
          844 848 852 856 860 864
          868 872 876 880 884 888
          892 896 900 904 908 912
          916 920 924 928 932 936
          940 944 948 952 956
        </DataArray>
        <DataArray type="UInt8" Name="types" format="ascii" RangeMin="10" RangeMax="10">
          10 10 10 10 10 10
          10 10 10 10 10 10
          10 10 10 10 10 10
          10 10 10 10 10 10
          10 10 10 10 10 10
          10 10 10 10 10 10
          10 10 10 10 10 10
          10 10 10 10 10 10
          10 10 10 10 10 10
          10 10 10 10 10 10
          10 10 10 10 10 10
          10 10 10 10 10 10
          10 10 10 10 10 10
          10 10 10 10 10 10
          10 10 10 10 10 10
          10 10 10 10 10 10
          10 10 10 10 10 10
          10 10 10 10 10 10
          10 10 10 10 10 10
          10 10 10 10 10 10
          10 10 10 10 10 10
          10 10 10 10 10 10
          10 10 10 10 10 10
          10 10 10 10 10 10
          10 10 10 10 10 10
          10 10 10 10 10 10
          10 10 10 10 10 10
          10 10 10 10 10 10
          10 10 10 10 10 10
          10 10 10 10 10 10
          10 10 10 10 10 10
          10 10 10 10 10 10
          10 10 10 10 10 10
          10 10 10 10 10 10
          10 10 10 10 10 10
          10 10 10 10 10 10
          10 10 10 10 10 10
          10 10 10 10 10 10
          10 10 10 10 10 10
          10 10 10 10 10
        </DataArray>
      </Cells>
    </Piece>
  </UnstructuredGrid>
</VTKFile>
