<?xml version="1.0"?>
<VTKFile type="UnstructuredGrid" version="0.1" byte_order="LittleEndian" header_type="UInt32" compressor="vtkZLibDataCompressor">
  <UnstructuredGrid>
    <Piece NumberOfPoints="64" NumberOfCells="27">
      <PointData>
        <DataArray type="Float64" Name="nsi_SBC" NumberOfComponents="3" format="ascii" RangeMin="0" RangeMax="0">
          0 0 0 0 0 0
          0 0 0 0 0 0
          0 0 0 0 0 0
          0 0 0 0 0 0
          0 0 0 0 0 0
          0 0 0 0 0 0
          0 0 0 0 0 0
          0 0 0 0 0 0
          0 0 0 0 0 0
          0 0 0 0 0 0
          0 0 0 0 0 0
          0 0 0 0 0 0
          0 0 0 0 0 0
          0 0 0 0 0 0
          0 0 0 0 0 0
          0 0 0 0 0 0
          0 0 0 0 0 0
          0 0 0 0 0 0
          0 0 0 0 0 0
          0 0 0 0 0 0
          0 0 0 0 0 0
          0 0 0 0 0 0
          0 0 0 0 0 0
          0 0 0 0 0 0
          0 0 0 0 0 0
          0 0 0 0 0 0
          0 0 0 0 0 0
          0 0 0 0 0 0
          0 0 0 0 0 0
          0 0 0 0 0 0
          0 0 0 0 0 0
          0 0 0 0 0 0
          <InformationKey name="L2_NORM_RANGE" location="vtkDataArray" length="2">
            <Value index="0">
              0
            </Value>
            <Value index="1">
              0
            </Value>
          </InformationKey>
        </DataArray>
        <DataArray type="Float64" Name="nsi_SFIXNO" NumberOfComponents="3" format="ascii" RangeMin="0" RangeMax="1.4142135623730951">
          0 0 0 0 0 0
          0 0 0 0 0 0
          0 0 0 0 0 0
          0 0 0 -1 -1 0
          0 0 0 0 0 0
          0 0 0 0 0 0
          0 0 0 0 0 0
          0 0 0 0 0 0
          0 0 0 -1 -1 0
          -1 -1 0 -1 -1 0
          0 0 0 0 0 0
          0 0 0 0 0 0
          0 0 0 0 0 0
          -1 -1 0 -1 -1 0
          -1 -1 0 0 0 0
          0 0 0 0 0 0
          0 0 0 0 0 0
          0 0 0 0 0 0
          0 0 0 0 0 0
          -1 -1 0 0 0 0
          0 0 0 0 0 0
          0 0 0 0 0 0
          0 0 0 0 0 0
          0 0 0 0 0 0
          0 0 0 0 0 0
          0 0 0 0 0 0
          0 0 0 0 0 0
          0 0 0 0 0 0
          0 0 0 0 0 0
          0 0 0 0 0 0
          0 0 0 0 0 0
          0 0 0 0 0 0
          <InformationKey name="L2_NORM_RANGE" location="vtkDataArray" length="2">
            <Value index="0">
              0
            </Value>
            <Value index="1">
              1.4142135624
            </Value>
          </InformationKey>
        </DataArray>
        <DataArray type="Float64" Name="nsi_UBC" NumberOfComponents="3" format="ascii" RangeMin="0" RangeMax="0">
          0 0 0 0 0 0
          0 0 0 0 0 0
          0 0 0 0 0 0
          0 0 0 0 0 0
          0 0 0 0 0 0
          0 0 0 0 0 0
          0 0 0 0 0 0
          0 0 0 0 0 0
          0 0 0 0 0 0
          0 0 0 0 0 0
          0 0 0 0 0 0
          0 0 0 0 0 0
          0 0 0 0 0 0
          0 0 0 0 0 0
          0 0 0 0 0 0
          0 0 0 0 0 0
          0 0 0 0 0 0
          0 0 0 0 0 0
          0 0 0 0 0 0
          0 0 0 0 0 0
          0 0 0 0 0 0
          0 0 0 0 0 0
          0 0 0 0 0 0
          0 0 0 0 0 0
          0 0 0 0 0 0
          0 0 0 0 0 0
          0 0 0 0 0 0
          0 0 0 0 0 0
          0 0 0 0 0 0
          0 0 0 0 0 0
          0 0 0 0 0 0
          0 0 0 0 0 0
          <InformationKey name="L2_NORM_RANGE" location="vtkDataArray" length="2">
            <Value index="0">
              0
            </Value>
            <Value index="1">
              0
            </Value>
          </InformationKey>
        </DataArray>
        <DataArray type="Float64" Name="nsi_UFIXNO" NumberOfComponents="3" format="ascii" RangeMin="1.7320508075688772" RangeMax="1.7320508075688772">
          1 1 1 1 1 1
          1 1 1 1 1 1
          1 1 1 1 1 1
          1 1 1 -1 -1 -1
          1 1 1 1 1 1
          1 1 1 1 1 1
          1 1 1 1 1 1
          1 1 1 1 1 1
          1 1 1 -1 -1 -1
          -1 -1 -1 -1 -1 -1
          1 1 1 1 1 1
          1 1 1 1 1 1
          1 1 1 1 1 1
          -1 -1 -1 -1 -1 -1
          -1 -1 -1 1 1 1
          1 1 1 1 1 1
          1 1 1 1 1 1
          1 1 1 1 1 1
          1 1 1 1 1 1
          -1 -1 -1 1 1 1
          1 1 1 1 1 1
          1 1 1 1 1 1
          1 1 1 1 1 1
          1 1 1 1 1 1
          1 1 1 1 1 1
          1 1 1 1 1 1
          1 1 1 1 1 1
          1 1 1 1 1 1
          1 1 1 1 1 1
          1 1 1 1 1 1
          1 1 1 1 1 1
          1 1 1 1 1 1
          <InformationKey name="L2_NORM_RANGE" location="vtkDataArray" length="2">
            <Value index="0">
              1.7320508076
            </Value>
            <Value index="1">
              1.7320508076
            </Value>
          </InformationKey>
        </DataArray>
        <DataArray type="Float64" Name="Velocity" NumberOfComponents="3" format="ascii" RangeMin="0" RangeMax="0.05881136555967405">
          0 0 0 0 0 0
          0 0 0 0 0 0
          0 0 0 0 0 0
          0.05881136555967402 0 0 -0.015901502902608985 -0.0004608059624182521 -0.00957501604111511
          0 0 0 0 0 0
          0 0 0 0 0 0
          0 0 0 0 0 0
          0.05881136555967405 0 0 0 0 0
          0.05881136555967399 0 0 -0.001289734062623025 0.000006876933402906294 -0.000910081551816338
          -0.015902106471314226 0.00045992124720996026 -0.009575619770665221 -0.015926269476946413 0.0004613855753263981 0.009574236996195185
          0.058811365559674006 0 0 0 0 0
          0 0 0 0 0 0
          0 0 0 0 0 0
          -0.01592641797813429 -0.0004615182871974911 0.009574258317980172 -0.001289712762793216 -0.000007009601623578496 -0.0009102300054154493
          -0.0012799714377481957 -0.000007539885691843512 0.0009107009240625576 0 0 0
          0 0 0 0 0 0
          0 0 0 0 0 0
          0 0 0 0 0 0
          0 0 0 0 0 0
          -0.0012800252904671024 0.000007439638089773683 0.0009106470916738859 0 0 0
          0 0 0 0 0 0
          0 0 0 0 0 0
          0 0 0 0 0 0
          0 0 0 0 0 0
          0 0 0 0 0 0
          0 0 0 0 0 0
          0 0 0 0 0 0
          0 0 0 0 0 0
          0 0 0 0 0 0
          0 0 0 0 0 0
          0 0 0 0 0 0
          0 0 0 0 0 0
          <InformationKey name="L2_NORM_RANGE" location="vtkDataArray" length="2">
            <Value index="0">
              0
            </Value>
            <Value index="1">
              0.05881136556
            </Value>
          </InformationKey>
        </DataArray>
        <DataArray type="Float64" Name="Pressure" format="ascii" RangeMin="-0.7120654927720109" RangeMax="0.20174306614737794">
          0 -0.12930181910745503 0.20174306614737794 -0.13188538746883002 -0.1336844406245567 -0.1908055267471562
          -0.050312392787049215 -0.1944131562998909 -0.220220200350091 0.2017391055964251 -0.3785501924474879 -0.2310030199902325
          -0.23528520651552529 -0.31963253662582763 -0.050295560842468605 -0.13366760791306065 -0.4601683655159506 -0.2314286965383291
          -0.1944095378196498 -0.3160701828402056 -0.46016845941251133 -0.23100311344343577 -0.2750761637499217 -0.23693646772840812
          0.00025953164556526153 -0.5106192375280463 -0.31606819977436645 -0.23142671298973416 -0.27891657778866 -0.38103593746820774
          -0.24593460258942137 -0.23575440020471447 -0.12930214606998966 -0.1318857150888763 -0.7120654927720109 -0.37655503198625795
          -0.24720763572346593 -0.19078834911524717 -0.2789159009571837 -0.23575307426949776 -0.3785452337199184 -0.7120641669257852
          -0.2901479400409261 -0.26440828649049797 -0.22021524092654426 -0.37655440424333175 -0.2793857040526144 -0.23528423354499212
          -0.3196315642200722 -0.2631212333905978 -0.2472070080509744 -0.27938508342756585 -0.2750744770385003 -0.2631206127897242
          -0.27343011823904767 -0.23693555371431124 -0.5106183239760664 -0.24593296148179927 -0.27462976386784077 -0.3810342966950894
          -0.26440753538706313 -0.2746293277609627 -0.29014718902662595 -0.2734292120371167
        </DataArray>
        <DataArray type="Float64" Name="stream" format="ascii" RangeMin="-0.002810757542389588" RangeMax="0.024046010613918527">
          0 0.00011043128389655266 0 -0.002241387185796946 0.00008766176000211484 -0.00019319110576839784
          0.0008236817907036717 0.0001540670002118069 0.0004080525056851379 0.001161537263387734 -0.002810757542389588 0.0006914599658803048
          0.0003303266824663294 -0.0016919819421663568 0.003377630892439861 0.0016859530262602943 0.0006610873416503149 0.0006068012217866511
          0.0015778202159241477 -0.0009236857101758177 0.006153059081419665 0.002301268946388261 0.00022804759232074784 0.0005952424435771705
          0.004442221113837761 -0.002810757542389588 0.002350755655640258 0.00250648607038974 0.00044796161025424647 -0.001208865532057601
          0.0007352955313968091 0.0017558794221650788 0.0027773979424475866 0.005866449575932726 -0.00043918207317281794 -0.0008849497334871719
          0.001284625984545132 0.0034790529168213713 0.0024802907169536002 0.003900231391347256 0.012914236340171806 0.011584355346181326
          0.00021224260444379937 0.0007782279360786712 0.003448112859958843 0.0010314336955224478 0.0003423773357956986 0.004176355156703449
          0.005377410412184416 0.0013582435332858515 0.003382350227403827 0.002819341453321183 0.004787619604174518 0.0035718457396000645
          0.0007782279360786712 0.0048839463819415245 0.024046010613918527 0.0045939158460772695 0.0010903302609565108 0.005498867952280698
          0.005395223339772117 0.003344047865580367 0.00613489833763311 0.005546997839873646
        </DataArray>
        <DataArray type="Float64" Name="Sigma" NumberOfComponents="6" format="ascii" RangeMin="0.000002817439709669003" RangeMax="0.006878920593134905">
          0.000006017432572505615 -0.00003552101507401529 1.2978884385314978e-7 3.812163807595397e-7 -0.0000035476048964895966 0.00001264003950119028
          0.0000013481287813701423 0.000010046978563276123 -3.3112560029517955e-7 -0.000008206496110706575 0.0000020025220054864493 -0.000004063135842475355
          -0.0068786126928473594 0.00001764440547753757 0.00003828540644142541 1.9329428557446729e-7 0.000049122353718297486 0.000006768165640247055
          -0.0000031554245439634992 -0.000011329860026263268 6.997374973856233e-7 -0.0000011100743036101016 0.00001287939348833663 0.0034277475780798137
          0.0018490127649202067 -0.0000050124617799760134 -0.0000256666363439416 -0.000004327658942233683 0.0008020355174401186 0.00004025039065336953
          -0.00001270207206055019 -0.00008221610500135435 -0.000001230061507322831 -0.000493601641924321 -0.000010417701463979139 -0.0009282007190394277
          -0.0033930248673635227 0.000005692685368527517 0.0012941875029024285 0.00003387383081324802 0.004829487400321953 0.0017087249480088316
          0.0009844013744406894 0.0000410652329862291 -0.00011632138587359493 -0.0002509346369702619 0.0008224379021111138 -0.00048315322265568057
          -4.470767416673699e-7 1.1081949572126204e-7 3.629055329454076e-7 0.000005835805336741693 -1.9334161180297673e-7 0.0000021270085414337703
          -0.0068786115910722916 0.000017644397829718227 0.00003828567650612183 -1.9358696221951247e-7 0.0000491233587964326 -0.000006767982706541958
          -0.000002423484343917885 0.000011262516695660805 0.0000012390298467294374 0.000001024163676762415 -0.0000018941388040730144 0.0034244071501817307
          0.00006408553030991503 -5.989795817012731e-8 0.000006416394731701361 0.0000029925874542828505 0.00006345120268967235 -4.0809064420902476e-7
          0.0000025857873467181767 -1.2090100396041933e-7 1.47573607764472e-7 -0.00003679765510939441 0.0000025916902789024833 -0.00003382419798150632
          -0.000014358750762438356 0.00008224512668137873 -0.000001566380738175217 0.0004934746485024334 0.0000059020946213025945 -0.0009282383744837146
          -0.0033930270083217928 0.000005692181629323094 0.0012942658164914723 -0.000033815087643908075 0.004829527759016045 -0.0017087259296553995
          0.001849091153539489 -0.00000501295818454003 -0.000025667123107049623 0.000004327675705533547 0.0008020769573101047 -0.00004019170374355549
          0.0034761690046694843 -0.000005603274230512409 -0.0013024002250099612 -0.00003431350531786425 0.004896657652902665 0.0017130209214178387
          0.000025947058222094627 6.17463262140704e-8 -0.0006365005707205623 -0.000035864732360845844 -0.0010246307412683016 -0.000016520391786586746
          0.0009844034946952607 0.00004111142750404004 -0.00011632012823069868 0.0002509060863006057 0.000822428413464493 0.00048312531083961484
          -0.0008726155228130737 -0.00004108921944996805 0.00012892488132142961 0.00025171191105119624 0.0007504200135119467 -0.0004861165539020846
          0.0034761695631082687 -0.000005603252490340104 -0.0013024055449421612 0.00003432092738707487 0.004896667794748824 -0.001713020337842598
          0.00006408011348674764 -5.987803909528457e-8 0.0000064166358461325085 -0.0000029924291547497855 0.00006346091768368994 4.154047975567916e-7
          0.0000030117201357863686 1.5820049962126875e-8 -2.1696998989804527e-7 0.00003681158769131027 -6.735733251702232e-7 -0.000033580857753176524
          1.995238825065739e-7 1.4950518034522824e-7 -1.9300281304520777e-7 -0.0000026793221781534304 6.991539289859988e-8 -9.026624304996154e-7
          0.000006017196110746762 -0.00003552102178715695 1.297494348155361e-7 -3.808656946656419e-7 -0.000003547469734461224 -0.00001263983020923751
          -6.778055960309375e-7 0.000035710606670056614 7.359201601742983e-7 -3.6426866681315914e-7 9.705748203408586e-7 0.000011459265125327938
          -0.0008726548512237205 -0.00004108225592615763 0.00012892897001537585 -0.00025170867057542007 0.0007503988282855356 0.0004860802308634116
          0.000025951176745253994 6.869625108751427e-8 -0.0006365401768194021 0.00003582840188693207 -0.0010246518536031163 0.00001652372383607001
          -0.00004792957038373996 -1.4211097372706974e-8 0.0006366356533301206 0.000035864230469272465 -0.0010111997135569453 -0.000016204426837736064
          0.0000034009885544301486 -0.000010001400972031 -4.4480224296479773e-7 0.00000815008037116084 -0.00000231295165382473 -0.000004040241668729142
          -0.000001305892304014881 0.0000010508164242517331 -9.597952649625989e-8 -0.0000024456275220631468 -0.000001284593594647698 -0.0000036248241340738055
          0.000008689635783556466 -7.247387922801884e-8 5.365364975362525e-8 -0.0000013862545502752555 0.0000027851654787255205 -3.5968859678989984e-7
          0.0000013483796951280534 0.000010047142584922565 -3.310793533476926e-7 0.00000820633951527394 0.000002002507292012202 0.000004063647779591831
          -0.0000031549720165077484 -0.000011329686026406289 7.000120943853575e-7 0.000001110605326539132 0.00001287965228543953 -0.003427747408194504
          0.0068421878583430715 -0.000017959288032216878 -0.000041996249776455537 7.104510003273661e-8 0.00002899763782055012 0.000006759447375071627
          -0.00187162548039639 0.000004981102780972891 0.000028944850195112655 0.000004074526650810166 0.0008210009626187197 0.00004116601650855809
          0.000007618863836028026 -5.296067221058616e-7 0.00021935107348401123 0.000008533142354489578 0.00044720069233833936 -0.0000016990152424405441
          -0.000012702909613013886 -0.0000821233979511599 -0.0000012307180964165013 0.0004936536772647692 -0.000010418274724534345 0.0009282526669584707
          -0.000047927035411055575 -8.974187190995896e-9 0.0006366383334828088 -0.000035870089931466944 -0.0010112093960688844 0.000016198450816649612
          0.000008689810370040358 -7.247529416845857e-8 5.362649832545355e-8 0.0000013861814611296197 0.000002785245752776709 3.5977791582816197e-7
          -0.0000024235129765550567 0.000011262477792664975 0.0000012390946242232297 -0.000001024357994679241 -0.0000018944673204143908 -0.003424407460432262
          0.006842187548010755 -0.000017959289614541898 -0.00004199616112912468 -7.099766569603123e-8 0.00002899748920789182 -0.00000675981822656665
          -1.7752405407960043e-7 -9.839605485088164e-8 3.088330667499412e-7 -0.000005797828874931431 4.117429396664953e-7 0.0000020519312288298907
          -0.000001483232224708345 -0.0000010366510873888058 1.2382638862270616e-7 0.0000024534452601688123 3.911554829540211e-7 -0.0000035220898046038684
          -4.4699119098444836e-7 1.1077551779909981e-7 3.6290611688299755e-7 -0.00000583600643684879 -1.9357860579139923e-7 -0.000002127150160898333
          -0.0018716256053161878 0.000004981175179145109 0.00002894495129610027 -0.00000407451388155523 0.0008210132807565974 -0.000041159684580595706
          -0.00006065868067144881 4.7891720022884415e-8 -0.000009281090837509896 -0.000003011409608379066 0.00006078448901676036 -4.3881351443537646e-7
          0.0000025857589774716005 -1.0759447555201744e-7 1.479039356994305e-7 0.00003681079559362022 0.0000025919402871557353 0.0000338221072118071
          -0.00001435852074434437 0.00008225842339198019 -0.000001566394122907496 -0.0004934766898095995 0.000005902334018028699 0.0009282515058567774
          0.000002992921368126586 5.187567978637306e-7 -0.00021932093460379614 -0.000008556844650050046 0.00044082462206340245 -0.0000017293822157913434
          0.000007618910147917123 -5.29531310575125e-7 0.00021935088188847326 -0.000008526877814614216 0.00044721301777903325 0.0000016990079736739983
          -0.00006066691657409632 4.794067759641915e-8 -0.000009281211183672276 0.000003011319177040503 0.00006078339011456739 4.34072668253342e-7
          0.0000030116921088107825 2.6381435291932055e-8 -2.170319650298591e-7 -0.00003680695647159843 -6.734443655076375e-7 0.00003358551243039014
          0.0000029928753748796738 5.188047418532076e-7 -0.00021932920081099445 0.000008552057057133553 0.0004408235209314259 0.0000017293427648112037
          8.934733927648137e-8 -1.5249012543246542e-7 -1.5654465226193275e-7 0.0000026587009691081416 -2.399875612515214e-7 -8.695226515374157e-7
          1.9952810217475813e-7 1.4950887330097485e-7 -1.9300478498914065e-7 0.0000026794289492170594 6.997284033839754e-8 9.026766247152193e-7
          -6.777719863882629e-7 0.00003571060416961474 7.3594291588457e-7 3.6430600679951316e-7 9.706791202650361e-7 -0.000011459090079088733
          -0.0000013059091903775662 0.0000010509797282064214 -9.593178389122326e-8 0.0000024457634380384757 -0.0000012847457473206926 0.00000362491836849328
          -0.000009632286657400513 7.692757863768026e-8 0.0000014387859206360316 0.0000013878392572558978 0.000004163898504502491 -3.631518860924969e-7
          0.0000034010332161961092 -0.000010001229679628772 -4.448349388284124e-7 -0.000008150002863308628 -0.0000023130885066843124 0.000004040363629174909
          -0.0000014832342742733448 -0.0000010366921094185935 1.2393748882017785e-7 -0.000002453505779825417 3.91137007265857e-7 0.0000035220994164226306
          -0.000009632287692930012 7.692703149938126e-8 0.0000014387983290948438 -0.0000013878164739158754 0.0000041639586476977255 3.631565953698391e-7
          -1.7742134150844106e-7 -9.843658555394382e-8 3.0884834928367113e-7 0.000005797847946219592 4.1172520961459946e-7 -0.0000020520004485476084
          8.934324179277486e-8 -1.5248886645701364e-7 -1.5655213121331808e-7 -0.0000026586674101120415 -2.399526683891256e-7 8.695591974822676e-7
          <InformationKey name="L2_NORM_RANGE" location="vtkDataArray" length="2">
            <Value index="0">
              2.8174397097e-06
            </Value>
            <Value index="1">
              0.0068789205931
            </Value>
          </InformationKey>
        </DataArray>
      </PointData>
      <CellData>
        <DataArray type="UInt8" Name="vtkGhostType" format="ascii" RangeMin="0" RangeMax="0">
          0 0 0 0 0 0
          0 0 0 0 0 0
          0 0 0 0 0 0
          0 0 0 0 0 0
          0 0 0
        </DataArray>
        <DataArray type="Float64" Name="NN-Viscosity" format="ascii" RangeMin="0.000004720181476520424" RangeMax="0.000272255706641028">
          0.000004720181476520424 0.00009638111767526208 0.00009659963615243 0.000008089918337254809 0.00017982981729488314 0.00017416270440222088
          0.000004720201425443027 0.00009638180331328941 0.0000965997835679609 0.000006432032408514488 0.00013651646818508648 0.00016415297095546057
          0.000010345819108713303 0.000128067566094195 0.000272255706641028 0.0000064321796382051514 0.0001365184268396864 0.0001641541366399264
          0.0000047697524737836015 0.0000953395744722764 0.00009658181711063564 0.000008217854609885066 0.00018109017442536132 0.000174045132354054
          0.000004769986411554417 0.00009534258338930627 0.00009658290934713116
        </DataArray>
      </CellData>
      <Points>
        <DataArray type="Float32" Name="Points" NumberOfComponents="3" format="ascii" RangeMin="0" RangeMax="1.7320508075688772">
          1 0 1 1 0 0.6666666865348816
          1 0.3333333134651184 1 0.6666666865348816 0 1
          1 0.3333333134651184 0.6666666865348816 0.6666666865348816 0 0.6666666865348816
          0.6666666865348816 0.3333333134651184 1 0.6666666865348816 0.3333333134651184 0.6666666865348816
          1 0 0.3333333134651184 1 0.6666666865348816 1
          0.3333333134651184 0 1 1 0.3333333134651184 0.3333333134651184
          0.6666666865348816 0 0.3333333134651184 0.3333333134651184 0 0.6666666865348816
          0.6666666865348816 0.6666666865348816 1 1 0.6666666865348816 0.6666666865348816
          0.3333333134651184 0.3333333134651184 1 0.6666666865348816 0.3333333134651184 0.3333333134651184
          0.6666666865348816 0.6666666865348816 0.6666666865348816 0.3333333134651184 0.3333333134651184 0.6666666865348816
          0.3333333134651184 0.6666666865348816 1 1 0.6666666865348816 0.3333333134651184
          0.3333333134651184 0 0.3333333134651184 1 0 0
          1 1 1 0 0 1
          0.3333333134651184 0.6666666865348816 0.6666666865348816 0.6666666865348816 0.6666666865348816 0.3333333134651184
          0.3333333134651184 0.3333333134651184 0.3333333134651184 0 0 0.6666666865348816
          0.6666666865348816 0 0 1 0.3333333134651184 0
          1 1 0.6666666865348816 0.6666666865348816 1 1
          0 0.3333333134651184 1 0 0.3333333134651184 0.6666666865348816
          0.6666666865348816 0.3333333134651184 0 0.6666666865348816 1 0.6666666865348816
          0.3333333134651184 0.6666666865348816 0.3333333134651184 1 0.6666666865348816 0
          0.3333333134651184 1 1 0 0.6666666865348816 1
          0 0 0.3333333134651184 0.3333333134651184 0 0
          1 1 0.3333333134651184 0 0.6666666865348816 0.6666666865348816
          0 0.3333333134651184 0.3333333134651184 0.6666666865348816 1 0.3333333134651184
          0.3333333134651184 1 0.6666666865348816 0.3333333134651184 0.3333333134651184 0
          0.6666666865348816 0.6666666865348816 0 0 0.6666666865348816 0.3333333134651184
          0.3333333134651184 1 0.3333333134651184 0.3333333134651184 0.6666666865348816 0
          0 0 0 1 1 0
          0 1 1 0.6666666865348816 1 0
          0 0.3333333134651184 0 0 1 0.6666666865348816
          0.3333333134651184 1 0 0 0.6666666865348816 0
          0 1 0.3333333134651184 0 1 0
          <InformationKey name="L2_NORM_RANGE" location="vtkDataArray" length="2">
            <Value index="0">
              0
            </Value>
            <Value index="1">
              1.7320508076
            </Value>
          </InformationKey>
        </DataArray>
      </Points>
      <Cells>
        <DataArray type="Int64" Name="connectivity" format="ascii" RangeMin="0" RangeMax="63">
          28 49 43 22 46 58
          54 42 19 28 22 13
          35 46 42 29 16 19
          13 10 34 35 29 25
          38 53 49 28 51 61
          58 46 26 38 28 19
          45 51 46 35 20 26
          19 16 41 45 35 34
          52 60 53 38 62 63
          61 51 48 52 38 26
          59 62 51 45 40 48
          26 20 56 59 45 41
          17 36 30 12 28 49
          43 22 7 17 12 5
          19 28 22 13 6 7
          5 3 16 19 13 10
          27 50 36 17 38 53
          49 28 18 27 17 7
          26 38 28 19 14 18
          7 6 20 26 19 16
          47 57 50 27 52 60
          53 38 37 47 27 18
          48 52 38 26 33 37
          18 14 40 48 26 20
          11 31 23 8 17 36
          30 12 4 11 8 1
          7 17 12 5 2 4
          1 0 6 7 5 3
          21 39 31 11 27 50
          36 17 15 21 11 4
          18 27 17 7 9 15
          4 2 14 18 7 6
          44 55 39 21 47 57
          50 27 32 44 21 15
          37 47 27 18 24 32
          15 9 33 37 18 14
        </DataArray>
        <DataArray type="Int64" Name="offsets" format="ascii" RangeMin="8" RangeMax="216">
          8 16 24 32 40 48
          56 64 72 80 88 96
          104 112 120 128 136 144
          152 160 168 176 184 192
          200 208 216
        </DataArray>
        <DataArray type="UInt8" Name="types" format="ascii" RangeMin="12" RangeMax="12">
          12 12 12 12 12 12
          12 12 12 12 12 12
          12 12 12 12 12 12
          12 12 12 12 12 12
          12 12 12
        </DataArray>
      </Cells>
    </Piece>
  </UnstructuredGrid>
</VTKFile>
