<?xml version="1.0"?>
<VTKFile type="UnstructuredGrid" version="0.1" byte_order="LittleEndian" header_type="UInt32" compressor="vtkZLibDataCompressor">
  <UnstructuredGrid>
    <Piece NumberOfPoints="64" NumberOfCells="27">
      <PointData>
        <DataArray type="Float64" Name="nsi_SBC" NumberOfComponents="3" format="ascii" RangeMin="0" RangeMax="0">
          0 0 0 0 0 0
          0 0 0 0 0 0
          0 0 0 0 0 0
          0 0 0 0 0 0
          0 0 0 0 0 0
          0 0 0 0 0 0
          0 0 0 0 0 0
          0 0 0 0 0 0
          0 0 0 0 0 0
          0 0 0 0 0 0
          0 0 0 0 0 0
          0 0 0 0 0 0
          0 0 0 0 0 0
          0 0 0 0 0 0
          0 0 0 0 0 0
          0 0 0 0 0 0
          0 0 0 0 0 0
          0 0 0 0 0 0
          0 0 0 0 0 0
          0 0 0 0 0 0
          0 0 0 0 0 0
          0 0 0 0 0 0
          0 0 0 0 0 0
          0 0 0 0 0 0
          0 0 0 0 0 0
          0 0 0 0 0 0
          0 0 0 0 0 0
          0 0 0 0 0 0
          0 0 0 0 0 0
          0 0 0 0 0 0
          0 0 0 0 0 0
          0 0 0 0 0 0
          <InformationKey name="L2_NORM_RANGE" location="vtkDataArray" length="2">
            <Value index="0">
              0
            </Value>
            <Value index="1">
              0
            </Value>
          </InformationKey>
        </DataArray>
        <DataArray type="Float64" Name="nsi_SFIXNO" NumberOfComponents="3" format="ascii" RangeMin="0" RangeMax="1.4142135623730951">
          0 0 0 0 0 0
          0 0 0 0 0 0
          0 0 0 0 0 0
          0 0 0 -1 -1 0
          0 0 0 0 0 0
          0 0 0 0 0 0
          0 0 0 0 0 0
          0 0 0 0 0 0
          0 0 0 -1 -1 0
          -1 -1 0 -1 -1 0
          0 0 0 0 0 0
          0 0 0 0 0 0
          0 0 0 0 0 0
          -1 -1 0 -1 -1 0
          -1 -1 0 0 0 0
          0 0 0 0 0 0
          0 0 0 0 0 0
          0 0 0 0 0 0
          0 0 0 0 0 0
          -1 -1 0 0 0 0
          0 0 0 0 0 0
          0 0 0 0 0 0
          0 0 0 0 0 0
          0 0 0 0 0 0
          0 0 0 0 0 0
          0 0 0 0 0 0
          0 0 0 0 0 0
          0 0 0 0 0 0
          0 0 0 0 0 0
          0 0 0 0 0 0
          0 0 0 0 0 0
          0 0 0 0 0 0
          <InformationKey name="L2_NORM_RANGE" location="vtkDataArray" length="2">
            <Value index="0">
              0
            </Value>
            <Value index="1">
              1.4142135624
            </Value>
          </InformationKey>
        </DataArray>
        <DataArray type="Float64" Name="nsi_UBC" NumberOfComponents="3" format="ascii" RangeMin="0" RangeMax="0">
          0 0 0 0 0 0
          0 0 0 0 0 0
          0 0 0 0 0 0
          0 0 0 0 0 0
          0 0 0 0 0 0
          0 0 0 0 0 0
          0 0 0 0 0 0
          0 0 0 0 0 0
          0 0 0 0 0 0
          0 0 0 0 0 0
          0 0 0 0 0 0
          0 0 0 0 0 0
          0 0 0 0 0 0
          0 0 0 0 0 0
          0 0 0 0 0 0
          0 0 0 0 0 0
          0 0 0 0 0 0
          0 0 0 0 0 0
          0 0 0 0 0 0
          0 0 0 0 0 0
          0 0 0 0 0 0
          0 0 0 0 0 0
          0 0 0 0 0 0
          0 0 0 0 0 0
          0 0 0 0 0 0
          0 0 0 0 0 0
          0 0 0 0 0 0
          0 0 0 0 0 0
          0 0 0 0 0 0
          0 0 0 0 0 0
          0 0 0 0 0 0
          0 0 0 0 0 0
          <InformationKey name="L2_NORM_RANGE" location="vtkDataArray" length="2">
            <Value index="0">
              0
            </Value>
            <Value index="1">
              0
            </Value>
          </InformationKey>
        </DataArray>
        <DataArray type="Float64" Name="nsi_UFIXNO" NumberOfComponents="3" format="ascii" RangeMin="1.7320508075688772" RangeMax="1.7320508075688772">
          1 1 1 1 1 1
          1 1 1 1 1 1
          1 1 1 1 1 1
          1 1 1 -1 -1 -1
          1 1 1 1 1 1
          1 1 1 1 1 1
          1 1 1 1 1 1
          1 1 1 1 1 1
          1 1 1 -1 -1 -1
          -1 -1 -1 -1 -1 -1
          1 1 1 1 1 1
          1 1 1 1 1 1
          1 1 1 1 1 1
          -1 -1 -1 -1 -1 -1
          -1 -1 -1 1 1 1
          1 1 1 1 1 1
          1 1 1 1 1 1
          1 1 1 1 1 1
          1 1 1 1 1 1
          -1 -1 -1 1 1 1
          1 1 1 1 1 1
          1 1 1 1 1 1
          1 1 1 1 1 1
          1 1 1 1 1 1
          1 1 1 1 1 1
          1 1 1 1 1 1
          1 1 1 1 1 1
          1 1 1 1 1 1
          1 1 1 1 1 1
          1 1 1 1 1 1
          1 1 1 1 1 1
          1 1 1 1 1 1
          <InformationKey name="L2_NORM_RANGE" location="vtkDataArray" length="2">
            <Value index="0">
              1.7320508076
            </Value>
            <Value index="1">
              1.7320508076
            </Value>
          </InformationKey>
        </DataArray>
        <DataArray type="Float64" Name="Velocity" NumberOfComponents="3" format="ascii" RangeMin="0" RangeMax="0.018383980202095383">
          0 0 0 0 0 0
          0 0 0 0 0 0
          0 0 0 0 0 0
          0.018383980202095376 0 0 -0.00498410788680568 -0.00012879463204873594 -0.0021829054440983906
          0 0 0 0 0 0
          0 0 0 0 0 0
          0 0 0 0 0 0
          0.018383980202095383 0 0 0 0 0
          0.01838398020209537 0 0 0.00010889654900480322 0.0000061790729717703275 -0.00009235192885683526
          -0.004984252354732406 0.00012858529864766128 -0.0021830499237178724 -0.004985959720853765 0.00012871732048483264 0.0021829516612762515
          0.018383980202095376 0 0 0 0 0
          0 0 0 0 0 0
          0 0 0 0 0 0
          -0.004985995751448159 -0.0001287461588340065 0.0021829590556729874 0.00010890394186888299 -0.00000620790806190873 -0.00009238795374421732
          0.00010952415090627454 -0.000006227674275835831 0.00009246861152699484 0 0 0
          0 0 0 0 0 0
          0 0 0 0 0 0
          0 0 0 0 0 0
          0 0 0 0 0 0
          0.00010951164511012376 0.000006203944126124134 0.0000924561067588834 0 0 0
          0 0 0 0 0 0
          0 0 0 0 0 0
          0 0 0 0 0 0
          0 0 0 0 0 0
          0 0 0 0 0 0
          0 0 0 0 0 0
          0 0 0 0 0 0
          0 0 0 0 0 0
          0 0 0 0 0 0
          0 0 0 0 0 0
          0 0 0 0 0 0
          0 0 0 0 0 0
          <InformationKey name="L2_NORM_RANGE" location="vtkDataArray" length="2">
            <Value index="0">
              0
            </Value>
            <Value index="1">
              0.018383980202
            </Value>
          </InformationKey>
        </DataArray>
        <DataArray type="Float64" Name="Pressure" format="ascii" RangeMin="-0.23501366018779346" RangeMax="0.06555624623752457">
          0 -0.04218923491228614 0.06555624623752457 -0.04327313072361065 -0.043496832472493224 -0.06299569885485717
          -0.014877458542421115 -0.06394196133101672 -0.07131257855751735 0.06555539127066382 -0.12619350381160133 -0.07341553248847668
          -0.07749146168481943 -0.10647494995452172 -0.01487136558952146 -0.043490739483812595 -0.15459547541301222 -0.07645990819638154
          -0.06394031842216487 -0.10552848718530715 -0.1545952949282829 -0.07341535196751783 -0.0919695538082008 -0.07679865435656238
          0.00008696873365552529 -0.16954624951070418 -0.10552766707945029 -0.07645908807599824 -0.09300020113465701 -0.12726962768210864
          -0.08082986600180038 -0.07582866965052679 -0.042188571401224034 -0.04327246724152564 -0.23501366018779346 -0.12595925773002453
          -0.08107136925086375 -0.06298915464692907 -0.09299985819104149 -0.07582812669451061 -0.1261914424290112 -0.23501311723715484
          -0.09814913176830535 -0.08862958649759081 -0.07131051710561648 -0.1259589655984777 -0.0960462567158204 -0.07749071832784298
          -0.1064742066390216 -0.08838736156069499 -0.08107107713894424 -0.0960459834711968 -0.09196871773219936 -0.08838708832744771
          -0.092661953703387 -0.07679812352419528 -0.16954571869433266 -0.0808291142981753 -0.09363316790794354 -0.1272688759955215
          -0.08862917225176427 -0.09363296239598894 -0.09814871752968043 -0.09266152022561577
        </DataArray>
        <DataArray type="Float64" Name="stream" format="ascii" RangeMin="-0.0008496768720705029" RangeMax="0.007519135339541641">
          0 0.00003461286011324425 0 -0.0006396122567336574 0.000051202733074621984 -0.00005505516012479035
          0.00029045186520126263 0.000036618456172329166 0.00012497648466964164 0.0003517576499985624 -0.0008496768720705029 0.0002260010576675318
          0.00011349012462043806 -0.00042163206976323866 0.001056858027729456 0.0005403913295942015 0.00021953201557900414 0.00019835411311838126
          0.0004903975173948682 -0.00023015717866954407 0.001925344591567391 0.0007250961698783648 0.00011958874775039115 0.00018072724911279478
          0.001391141632443511 -0.0008496768720705029 0.0007357136452940304 0.0007860763605053789 0.00017984056706356279 -0.0003251900520814846
          0.00023030750063850856 0.0005387684524614859 0.0008606705014538531 0.0018349809536295245 -0.00012384947255111373 -0.00025398790765388896
          0.00040261598446701176 0.0010880860473819157 0.0008153282342009117 0.0012132013851210506 0.004039245365130855 0.0036233517846696274
          0.00010539014669358534 0.00025101465523129287 0.0010799931123690618 0.00032078612275542956 0.0001467886805905215 0.0013221708394482157
          0.0016818748603260132 0.0004346158351898033 0.001053869403929117 0.000925553256186996 0.0015648362176297359 0.0011124412558738877
          0.00025101465523129287 0.0015295931144319243 0.007519135339541641 0.001451401452848079 0.0003536877954670544 0.0017200715017788256
          0.0016933606312616353 0.0010234994085966554 0.001968969744071986 0.0017087699808471808
        </DataArray>
        <DataArray type="Float64" Name="Sigma" NumberOfComponents="6" format="ascii" RangeMin="4.183615900260778e-7" RangeMax="0.0012955072596456184">
          7.885573719607935e-7 -0.000004971751813935341 1.9041765087997426e-8 4.460339547577622e-8 -2.0827742077179545e-7 0.0000017491142531239656
          -1.8414848041584256e-8 0.0000014022859246693185 -2.37627181324485e-8 -0.0000011560011463535856 7.52456605386916e-8 -5.495314230327144e-7
          -0.0012954807638136628 0.0000024802374013997267 0.000005449575146972511 6.518802983274036e-9 0.000005660057748501146 8.74437080348132e-7
          -3.844496166110365e-8 -0.0000016770963353995945 -7.257578506434482e-8 -1.2178417917241487e-7 9.77262858372059e-7 0.0006465267109539894
          0.00034980812192300116 -7.006775577058359e-7 -0.0000036946061926771992 -5.846795879721461e-7 0.00012645685375898375 0.000007202825441607278
          -9.192019488287876e-7 -0.000014504863435591876 -8.442463380781728e-9 -0.00007704440921871286 -7.570395041931687e-7 -0.00017503058285996484
          -0.0006456644974767649 8.400825509177335e-7 0.00020423551048993454 0.0000060271399999535094 0.0009180920409220671 0.0003229548126291639
          0.00017926591464815958 0.0000072454339453528095 -0.000022234747259012817 -0.00003939572246963423 0.00015705083647132688 -0.00009113863288299592
          -2.0555722075452808e-8 -3.496926802968913e-8 2.0932801571698144e-8 8.072118351301366e-7 4.027159637157277e-9 2.7748034449850144e-7
          -0.0012954806907768132 0.000002480237396084486 0.000005449597328633022 -6.559570404661058e-9 0.00000566013805284634 -8.744484354264484e-7
          -4.0316874798975015e-7 0.0000016753629931476256 1.5274327872418745e-7 1.1635792720694253e-7 9.650691456327032e-8 0.0006462884889365027
          -0.00000800309481001401 1.7262155109496802e-8 0.0000010197382225821434 4.1445074051780685e-7 0.000005559717722342337 -2.4739344301220335e-7
          1.767113608503788e-7 3.699124530378995e-7 1.569946382599617e-8 -0.000003219026696035989 2.219273892052918e-7 0.0000037266637849549913
          -9.702822345194423e-7 0.000014498759876045098 -1.0240296537650096e-7 0.0000770432761031624 1.6098456567603184e-7 -0.0001750339329436608
          -0.0006456646456716837 8.400147655086942e-7 0.00020424815866538929 -0.000006017718897487812 0.0009180987470516137 -0.000322954861291553
          0.0003498207656185149 -7.007448667381245e-7 -0.000003694652396657917 5.846911032601269e-7 0.00012646362221084076 -0.0000071934113829979645
          0.0006504366935856651 -8.363179793381915e-7 -0.00020457887740200713 -0.000006041561062735937 0.0009220349253236838 0.00032325704198180277
          -0.0000041491001144165335 -1.8564383589357267e-7 -0.00010026917688605436 -0.000004663488974407831 -0.00019119864059628696 0.000002039206882739292
          0.00017926604199751698 0.0000072527978253402196 -0.000022234685609814975 0.0000393910141876173 0.00015704896174680212 0.00009113396916506639
          -0.00017137195024434425 -0.0000072484471328023005 0.000022725438363574488 0.00003943061701157526 0.0001530348399996249 -0.00009132341937175676
          0.0006504367451443736 -8.363146463488452e-7 -0.00020457986616486963 0.00000604265106745253 0.0009220365042353518 -0.0003232569957828437
          -0.000008004088267620531 1.7265412674781093e-8 0.0000010197699772939765 -4.1443012714736745e-7 0.000005561271003989313 2.484777818400335e-7
          1.9540625944986307e-7 -3.7569687220140415e-7 -2.9085288651039358e-8 0.000003222624393541942 4.302936777374879e-8 0.000003738471949356459
          1.1105514954844767e-8 1.77492589809628e-8 -1.1643191120635298e-8 -4.0162563873982693e-7 -6.20086321399111e-9 -1.189097048807208e-7
          7.885433554770803e-7 -0.0000049717522776024894 1.9040160880302024e-8 -4.455914667263004e-8 -2.082489772310647e-7 -0.0000017490787300584745
          -2.646992440779174e-7 0.000004978570943158381 3.8807504181163036e-8 -4.2444328316142525e-8 3.647054240218619e-8 0.0000016722375910469669
          -0.00017137827018480581 -0.00000724740588709506 0.000022726115410994494 -0.000039430027759453556 0.00015303148207881958 0.0000913176242220417
          -0.000004148423057473997 -1.8460312238904546e-7 -0.00010027550902683785 0.000004657696435976039 -0.00019120199539866294 -0.000002038614422593209
          0.0000026472861272680713 1.8693222552957375e-7 0.00010032213872882967 0.000004662785800613369 -0.00019046586898895557 0.000002058052656022774
          3.5356582784861416e-7 -0.0000013994306003571732 -2.6661845849366223e-8 0.000001151679795861765 -1.5503751550425288e-7 -5.467044437438947e-7
          -8.928422053836427e-8 1.4299371963078173e-7 -1.1880444990097302e-8 -3.3748199634705837e-7 -1.1059788340665732e-7 -5.264108649969189e-7
          0.0000012891923158485458 -8.765112237719451e-9 -1.1151772781924065e-7 -2.0738956498946793e-7 4.5398911687346146e-7 -4.6322827850386925e-8
          -1.8397466947945182e-8 0.000001402306010423839 -2.3760505196364946e-8 0.000001155977054324821 7.522771608573517e-8 5.495865539272523e-7
          -3.841669264434798e-8 -0.0000016770760712383427 -7.255939641853355e-8 1.2183946356615062e-7 9.772607285744232e-7 -0.0006465267150567926
          0.0012925934824932787 -0.0000024943229106359586 -0.000005695810356868307 3.3255094929330857e-9 0.0000045818923031838805 8.780003588967296e-7
          -0.00035140773018626137 6.988809934113605e-7 0.000003908508026267508 5.741814162612863e-7 0.00012746513030659657 0.000007256314590532145
          7.452224463890685e-7 -7.167390812809012e-8 0.000041109469768324286 0.0000016359454579123414 0.00009781498607357519 -2.6224935342042924e-7
          -9.192745231801087e-7 -0.00001449012111803728 -8.500081108613668e-9 0.00007705279787526494 -7.570646634767649e-7 0.0001750389640826777
          0.0000026477612759869413 1.87763997001798e-7 0.00010032262138100234 -0.000004663684957714933 -0.00019046742681647996 -0.000002058957598604791
          0.000001289215509070574 -8.765363090272016e-9 -1.1152223818789392e-7 2.0737981824313824e-7 4.5400489820668604e-7 4.633523278326585e-8
          -4.031709584487707e-7 0.0000016753577348237881 1.5275368643812717e-7 -1.1637861963858962e-7 9.64743994974095e-8 -0.0006462885207361869
          0.0012925934614469007 -0.0000024943231860674984 -0.000005695791646537078 -3.3155131200598264e-9 0.000004581894092924245 -8.780277913365726e-7
          -2.136265926453063e-8 3.556596350260701e-8 1.7043047855667417e-8 -8.050834413273707e-7 3.982374433150033e-8 2.729015724461015e-7
          -9.616974972807012e-8 -1.4238355963307685e-7 1.8848493260338812e-8 3.380145337447092e-7 -2.0207467187578838e-8 -5.194621280237026e-7
          -2.0544301795112582e-8 -3.497460443779434e-8 2.0932689215143758e-8 -8.072368640088429e-7 4.000235138386654e-9 -2.774980381104645e-7
          -0.00035140777086818935 6.988910379771978e-7 0.000003908511171003387 -5.741857330067274e-7 0.00012746715145575845 -0.000007255236511479848
          0.000008231468759241983 -1.78749231449401e-8 -0.000001181784789703073 -4.1610642003876607e-7 0.000005404544415522577 -2.4977301134259085e-7
          1.767060026696064e-7 3.719213450376072e-7 1.5737687440499214e-8 0.000003221140503189874 2.219492734674938e-7 -0.000003727084310399867
          -9.702486720141277e-7 0.000014500768743536511 -1.0240800713893321e-7 -0.00007704369408678134 1.6100553762328974e-7 0.00017503604736191945
          -1.5913130390045874e-8 7.123137879030329e-8 -0.00004112716802689924 -0.0000016370973864390807 0.0000974751389139586 -2.6473525009587e-7
          7.452235153758977e-7 -7.166371168457561e-8 0.00004110942399850989 -0.0000016348724675295902 0.00009781700769248048 2.6224433151817387e-7
          0.00000823013817478749 -1.7868887814142555e-8 -0.0000011817956039582781 4.1609714253465983e-7 0.0000054043799553379 2.4900108256531617e-7
          1.9540210487966243e-7 -3.7402130852706153e-7 -2.909123861374836e-8 -0.0000032218935072497594 4.304503755390422e-8 -0.000003737739742350743
          -1.5920241292581347e-8 7.123737948685198e-8 -0.00004112850009696391 0.0000016363231850793996 0.00009747497462385807 2.6472847442916903e-7
          8.455236265401827e-9 -1.785431132100435e-8 -8.49020829375976e-9 4.0044998344314086e-7 -2.3493950315380782e-8 -1.1685291454528254e-7
          1.1105742800754893e-8 1.7749508734434256e-8 -1.1643330152685735e-8 4.0163922270176253e-7 -6.194907290598028e-9 1.1891118408072595e-7
          -2.646971576112477e-7 0.000004978570930048881 3.88087005447945e-8 4.2447230616765535e-8 3.6479416101567495e-8 -0.0000016722198338955007
          -8.928532922798001e-8 1.4301459782403993e-7 -1.1872802429872238e-8 3.3750065548842365e-7 -1.1061181033801693e-7 5.26423573876787e-7
          -0.0000013590614490452088 8.970887152593282e-9 1.9747298206146801e-7 2.0787519175815773e-7 5.310559733895339e-7 -4.634296758209125e-8
          3.535727456684247e-7 -0.0000013994093701251792 -2.666355492579319e-8 -0.0000011516681147066915 -1.550505039398076e-7 5.467216745511432e-7
          -9.616974373780854e-8 -1.4238884506797523e-7 1.8861013158835612e-8 -3.380230363805087e-7 -2.020950339056604e-8 5.194635827301751e-7
          -0.0000013590627839639049 8.970842795264415e-9 1.974722299584123e-7 -2.078732514882551e-7 5.310642564595708e-7 4.634403841861259e-8
          -2.135045359352385e-8 3.5560703468146293e-8 1.7043914368960606e-8 8.050853501012941e-7 3.982174215072896e-8 -2.7291056896452613e-7
          8.455008114837585e-9 -1.785417345802422e-8 -8.490576108562986e-9 -4.0044553960043866e-7 -2.3489685758324486e-8 1.1685750267522493e-7
          <InformationKey name="L2_NORM_RANGE" location="vtkDataArray" length="2">
            <Value index="0">
              4.1836159003e-07
            </Value>
            <Value index="1">
              0.0012955072596
            </Value>
          </InformationKey>
        </DataArray>
      </PointData>
      <CellData>
        <DataArray type="UInt8" Name="vtkGhostType" format="ascii" RangeMin="0" RangeMax="0">
          0 0 0 0 0 0
          0 0 0 0 0 0
          0 0 0 0 0 0
          0 0 0 0 0 0
          0 0 0
        </DataArray>
        <DataArray type="Float64" Name="NN-Viscosity" format="ascii" RangeMin="4.56084277862994e-7" RangeMax="0.00007769307474629663">
          4.568535247157936e-7 0.000026307808110371186 0.00002767136406753457 7.779266240368803e-7 0.000049923117673455035 0.0000499672622971205
          4.56799195249056e-7 0.000026307972262379548 0.000027671393294846184 6.051866637140951e-7 0.000037998221082393194 0.00004699476281613625
          9.271252033424603e-7 0.000036383790389602685 0.00007769307474629663 6.052012968267579e-7 0.00003799863582929829 0.00004699500339349663
          4.56084277862994e-7 0.00002622925842079389 0.00002766970339477705 7.779085348635421e-7 0.000050018825467427046 0.0000499541691919287
          4.5616339208696434e-7 0.000026229890279125434 0.000027669925738695176
        </DataArray>
      </CellData>
      <Points>
        <DataArray type="Float32" Name="Points" NumberOfComponents="3" format="ascii" RangeMin="0" RangeMax="1.7320508075688772">
          1 0 1 1 0 0.6666666865348816
          1 0.3333333134651184 1 0.6666666865348816 0 1
          1 0.3333333134651184 0.6666666865348816 0.6666666865348816 0 0.6666666865348816
          0.6666666865348816 0.3333333134651184 1 0.6666666865348816 0.3333333134651184 0.6666666865348816
          1 0 0.3333333134651184 1 0.6666666865348816 1
          0.3333333134651184 0 1 1 0.3333333134651184 0.3333333134651184
          0.6666666865348816 0 0.3333333134651184 0.3333333134651184 0 0.6666666865348816
          0.6666666865348816 0.6666666865348816 1 1 0.6666666865348816 0.6666666865348816
          0.3333333134651184 0.3333333134651184 1 0.6666666865348816 0.3333333134651184 0.3333333134651184
          0.6666666865348816 0.6666666865348816 0.6666666865348816 0.3333333134651184 0.3333333134651184 0.6666666865348816
          0.3333333134651184 0.6666666865348816 1 1 0.6666666865348816 0.3333333134651184
          0.3333333134651184 0 0.3333333134651184 1 0 0
          1 1 1 0 0 1
          0.3333333134651184 0.6666666865348816 0.6666666865348816 0.6666666865348816 0.6666666865348816 0.3333333134651184
          0.3333333134651184 0.3333333134651184 0.3333333134651184 0 0 0.6666666865348816
          0.6666666865348816 0 0 1 0.3333333134651184 0
          1 1 0.6666666865348816 0.6666666865348816 1 1
          0 0.3333333134651184 1 0 0.3333333134651184 0.6666666865348816
          0.6666666865348816 0.3333333134651184 0 0.6666666865348816 1 0.6666666865348816
          0.3333333134651184 0.6666666865348816 0.3333333134651184 1 0.6666666865348816 0
          0.3333333134651184 1 1 0 0.6666666865348816 1
          0 0 0.3333333134651184 0.3333333134651184 0 0
          1 1 0.3333333134651184 0 0.6666666865348816 0.6666666865348816
          0 0.3333333134651184 0.3333333134651184 0.6666666865348816 1 0.3333333134651184
          0.3333333134651184 1 0.6666666865348816 0.3333333134651184 0.3333333134651184 0
          0.6666666865348816 0.6666666865348816 0 0 0.6666666865348816 0.3333333134651184
          0.3333333134651184 1 0.3333333134651184 0.3333333134651184 0.6666666865348816 0
          0 0 0 1 1 0
          0 1 1 0.6666666865348816 1 0
          0 0.3333333134651184 0 0 1 0.6666666865348816
          0.3333333134651184 1 0 0 0.6666666865348816 0
          0 1 0.3333333134651184 0 1 0
          <InformationKey name="L2_NORM_RANGE" location="vtkDataArray" length="2">
            <Value index="0">
              0
            </Value>
            <Value index="1">
              1.7320508076
            </Value>
          </InformationKey>
        </DataArray>
      </Points>
      <Cells>
        <DataArray type="Int64" Name="connectivity" format="ascii" RangeMin="0" RangeMax="63">
          28 49 43 22 46 58
          54 42 19 28 22 13
          35 46 42 29 16 19
          13 10 34 35 29 25
          38 53 49 28 51 61
          58 46 26 38 28 19
          45 51 46 35 20 26
          19 16 41 45 35 34
          52 60 53 38 62 63
          61 51 48 52 38 26
          59 62 51 45 40 48
          26 20 56 59 45 41
          17 36 30 12 28 49
          43 22 7 17 12 5
          19 28 22 13 6 7
          5 3 16 19 13 10
          27 50 36 17 38 53
          49 28 18 27 17 7
          26 38 28 19 14 18
          7 6 20 26 19 16
          47 57 50 27 52 60
          53 38 37 47 27 18
          48 52 38 26 33 37
          18 14 40 48 26 20
          11 31 23 8 17 36
          30 12 4 11 8 1
          7 17 12 5 2 4
          1 0 6 7 5 3
          21 39 31 11 27 50
          36 17 15 21 11 4
          18 27 17 7 9 15
          4 2 14 18 7 6
          44 55 39 21 47 57
          50 27 32 44 21 15
          37 47 27 18 24 32
          15 9 33 37 18 14
        </DataArray>
        <DataArray type="Int64" Name="offsets" format="ascii" RangeMin="8" RangeMax="216">
          8 16 24 32 40 48
          56 64 72 80 88 96
          104 112 120 128 136 144
          152 160 168 176 184 192
          200 208 216
        </DataArray>
        <DataArray type="UInt8" Name="types" format="ascii" RangeMin="12" RangeMax="12">
          12 12 12 12 12 12
          12 12 12 12 12 12
          12 12 12 12 12 12
          12 12 12 12 12 12
          12 12 12
        </DataArray>
      </Cells>
    </Piece>
  </UnstructuredGrid>
</VTKFile>
