<?xml version="1.0"?>
<VTKFile type="UnstructuredGrid" version="0.1" byte_order="LittleEndian" header_type="UInt32" compressor="vtkZLibDataCompressor">
  <UnstructuredGrid>
    <Piece NumberOfPoints="164" NumberOfCells="275">
      <PointData>
        <DataArray type="Float64" Name="Velocity" NumberOfComponents="3" format="ascii" RangeMin="0" RangeMax="1.171848468414433">
          1.1536478798966612 0 0 0.9554159091507167 -0.0029198529510003927 0
          0.5598164367674383 0 0 0.6137613551352569 -0.05255224814082149 0
          0.8853271500745747 0.021998767493004747 0 0.7942343794771957 0 0
          0.8573750628462865 -0.0034648423506553295 0 0.7558119596388408 0.016052422953749874 0
          0.5104090594530576 -0.0005268799885896181 0 1.171848261426511 0.0006965033492730132 0
          0.7661543255526853 0 0 0.7422732995610344 0.0015462309187223699 0
          0.742175685430727 -0.003014999848807185 0 0.8373366895372911 -0.004282443331042834 0
          0.757704966597649 -0.016286536780643988 0 0.9126124840478952 -0.01808995672027892 0
          0.7738759302937674 0 0 0.7721905515942605 -0.000829030395720861 0
          0.7533252406860604 -0.0016354500918704974 0 0.7670468629035808 0.0016668895852629735 0
          0.751003663518562 0.0027611094864346208 0 0.5866154799988567 0.0006582716393015682 0
          0.7648999861014667 -0.0002240225721670178 0 0.7639672318027327 -0.00016763526696381476 0
          0.8019008199372017 -0.0005077504055673541 0 0.9147004686179432 0.022685750451180396 0
          0.763295966516195 0 0 0.7672668940088346 0.00010211022923700756 0
          0.7645355896735386 -0.00011345638255357979 0 0.7547120678648992 0.00034782707193007533 0
          0.7550502505281224 0.014152539609020324 0 0.763070750088141 0.00044704376555535305 0
          0.7631702424275965 0.0003005280426466786 0 0.7649578309205872 0.0013261998291546494 0
          0.7520062427521221 -0.0008659602087261575 0 1.1551266476412778 -0.010970147027918278 0
          0.7663964801782139 0 0 0.7657501539331119 -0.00011937141047148866 0
          0.7656408235833534 0.0010879711871968469 0 0.5213103510857303 0.004783028144056746 0
          0.7669355929329666 0.0004520530710773076 0 0.8279524730697179 0.0012982740041128484 0
          0.7642499737039645 -0.00020854472992403673 0 0.7648625457675794 0.0009898229623567902 0
          0.7633046429022656 -0.00045271188615335665 0 0.7650322130515301 0.001138153395213461 0
          0.755702914440189 0.00327408452189027 0 0.8529992437090297 0.005783627627348484 0
          0.766972880991945 0 0 0.7644458540516195 -0.00012408941967327595 0
          0.766171218117139 0.001925024344597766 0 0.7877852754394021 0.0024594573338516485 0
          0.7661486368650402 -0.0006053517931954561 0 0.7630925053010162 0.0006007218116844973 0
          0.7635576097920533 -0.00022739678789968074 0 0.7631890998554047 0.0023501001298854955 0
          0.7439020213549932 0.0004677115837176137 0 0.7635822983901073 -0.0008058857453620257 0
          0.7653134311058172 0.003562443252937 0 0.7707261402432197 0.0012683743192157262 0
          1.1502801505367302 0 0 0.769526990667482 0 0
          0.7639238674158007 0.0006737842508877962 0 0.5261939199523246 0 0
          0.7683168130352616 0.003526848059263173 0 0.8261184967735108 0 0
          0.7622558657689206 -0.0005986815285913215 0 0.7580325862164506 0.0007272687928100615 0
          0.7641312262435587 0.0008941560929795947 0 0.7646029287217936 -0.0019166318703801302 0
          0.7585391509298671 0.007572667024474315 0 0.7588941062019842 0 0
          0.7659272685992995 -0.0010889954296220922 0 0.7626524185602037 0.008838838020001594 0
          0.7659365048800983 0 0 0.7770751162226067 0 0
          0.766155798158792 -0.0013569373878301457 0 0.7713168662569809 0.00862655975994155 0
          0.7621868028038301 -0.00485018186295421 0 0.7532102385377211 0.004834832305891764 0
          0.7646938254114837 -0.001866946882850831 0 0.7689373902326901 0.012761488106748459 0
          0.7664051989957681 0 0 0.7538554425479707 -0.0037159828485643543 0
          0.7661639287173299 -0.0014099520596614296 0 0.7842188916358005 0.012280320829033747 0
          0.7671141547060192 0 0 0.7797174153579784 0 0
          0.7383115967735361 0.03405540613384843 0 0.763502526676537 -0.00773737627999655 0
          0.7677013607746888 -0.002888088873434045 0 0.7223504834162515 0.03096068921563695 0
          0.7414604103579767 -0.028363480509063645 0 0.7657531279291303 0 0
          0.7285834065766742 0.039552715445833136 0 0.8060380525272031 0.007847228150385669 0
          0.7667219754343576 -0.014854539880390748 0 0.7867180905812904 0 0
          0.7727994929787292 -0.004109379249468081 0 0.7679164297200065 -0.017138118346674374 0
          0.7702907260811537 0 0 0.6539896060306198 -0.0036159980509007437 0
          0.7214839533563028 -0.05252944464812438 0 0.7925459730508752 0.04039714398022534 0
          0.812832974570661 0.0013699579357190083 0 0.9852911918136874 0.17196390004253248 0
          0.7883649287076494 -0.020285873832253564 0 0.7948077136388472 0 0
          0.7736763109726739 0 0 0 0 0
          0.7786528747505655 -0.009549047430836758 0 1.0499110558115194 -0.20890262412834906 0
          1.064005929706 -0.04232741760380942 0 0.7778308279767275 -0.007172000662426124 0
          0.7665113773443794 -0.05452005276059366 0 0.8029535341267633 -0.008390933775556839 0
          0 0 0 0.7861423139880562 0 0
          0 0 0 0.7948402111887354 0 0
          0 0 0 0 0 0
          0.8087566414572637 -0.010095006330778962 0 0.8130676867789485 -0.01667343139162948 0
          0.9798219998297479 -0.24044449356009373 0 0.753472108515249 -0.05939990735805766 0
          1.002804863377391 0.0182213728999732 0 0.5376577579875854 0.054391057603241394 0
          0.7967477686070203 0.021083355102678804 0 1.03665812633675 0.2749477456414849 0
          0.789395339720114 0 0 0.7761343957278964 0 0
          0.7149127614331435 -0.020123021154580284 0 0.7624488542392391 -0.017143859168766883 0
          0.7871200898867232 -0.046418721793326324 0 0.6579161293899212 -0.030703175558052576 0
          0.7090693963018689 0.08026276999354055 0 0.8008203273502754 0.0055556171139926214 0
          0.7954979778503865 0 0 0.7314310888066495 0.0684251820519469 0
          0.7747036185483733 0.008431289920092545 0 0.7433533080824141 -0.01448342602862405 0
          0.7229857750494864 0 0 0.7184430717096795 0.004096704298115106 0
          0.7325718041219472 0.004760882886089991 0 0.7518512190055 -0.010354734679721984 0
          0.7283541389441384 0.043257885859500946 0 0.7946332406835319 0 0
          0.7977838316747793 0.012135979896308845 0 0.7942711309484684 0.02487365813909975 0
          0.711867737688076 -0.003326862885490863 0 1.0000000356933778 0 0
          1.000000035693378 0 0 0.7355727245549256 0.020195611774681203 0
          1.000000035693378 0 0 0.7746593281978016 0 0
          1.000000035693378 0 0 0.7330031414955263 0.008229016134176901 0
          1.0000000356933778 0 0 1.0000000356933778 0 0
          0.7529381432260759 0 0 1.0000000356933778 0 0
          1.000000035693378 0 0 1.0000000356933776 0 0
          <InformationKey name="L2_NORM_RANGE" location="vtkDataArray" length="2">
            <Value index="0">
              0
            </Value>
            <Value index="1">
              1.1718484684
            </Value>
          </InformationKey>
        </DataArray>
        <DataArray type="Float64" Name="Pressure" format="ascii" RangeMin="0.9749449595604041" RangeMax="121.19353290406534">
          1.280113502212263 1.1866217641558263 7.211031774507212 7.635224409020878 1.1272863967648645 15.486461036523075
          15.663681243057976 11.55905591769743 7.446541782077966 1.058703810416172 23.100080467008183 19.29125839297652
          23.098985582547115 15.599726712421718 10.969830205237484 1.0974052109625876 30.772709618877325 26.93947960737979
          23.116520002316115 30.770516559972087 19.312010721598647 7.611671768983827 30.77993169012629 34.594439318549064
          15.584839728897345 1.1062805495821861 38.418542647565324 26.950601064321905 38.416020470272755 23.12576832660594
          10.972894428133944 38.39988363053619 34.590082805941215 42.2357840866981 19.31963377033129 1.0303139063023687
          46.074314814574244 30.768012080494472 46.06989719314684 7.442831105365053 26.93984671648593 15.569942468408758
          42.22907734722952 46.05425469185456 38.405872623382194 49.88581617267474 23.10876472936254 0.9749449595604041
          53.73833359809859 34.598573667800835 53.72578575175472 10.9638909795582 30.766935169804732 49.859305451664284
          46.048925379400025 53.6929344613079 19.24358953814523 42.23348930633631 57.5390100692602 26.94450277816771
          1.008478501771657 61.42032732886586 38.412217000930596 7.367857274879767 61.39467779479025 15.535348493142765
          53.67955495353636 57.48617240613758 34.5897349624415 49.866595275793415 61.3030255970739 23.094129722122222
          46.064040578837435 65.19363420842947 30.74471314603244 69.13494440034194 42.2343264376986 69.40477209040345
          56.61422091285112 65.97689240367438 53.72412140020022 68.88821867385576 38.41269287286456 63.10630840070121
          49.90181615640198 74.39090537833323 46.092317596100756 76.95125312132879 72.52922484254606 62.631160280126906
          57.779002423259364 76.63819162489116 72.62570868730201 53.74150155852783 80.180039686394 82.25185666886621
          71.28971106623958 84.82269341643246 65.26224239177965 69.97300034391633 61.42388170903119 79.69787763543063
          78.53296303194777 87.84503051025382 89.47340212309322 85.25369956844727 77.20416892473955 92.77136071739054
          69.14261843959919 85.86567431673033 75.85687834003718 84.9573577988698 94.10846933846219 95.57378703905503
          84.56340209971334 96.35982829318664 93.75551273524266 76.92574874116528 93.18092602524267 100.71816984364625
          100.31994201827588 99.6577555033657 86.18265443326077 102.15723710063985 101.23071425048676 101.75438758559768
          94.2818395556097 102.94186376153642 92.66907049193209 100.25285103775927 84.80421786116742 108.64015679228491
          107.91279346504511 109.3799036223122 109.33620328012977 107.35134631756483 105.34403724427966 96.58069352082846
          92.77247262050028 103.37260928921897 101.41008473161358 114.47935322122191 116.21205829743481 116.02695734486531
          112.71004779029248 115.07388528589924 110.9119433492062 100.70821198982769 105.16486916261857 109.21783866120347
          117.33589720766093 120.25760685814795 120.96328023693985 115.74642389880299 120.83269538270422 108.65636732864391
          120.81160458193503 114.37077525811497 121.19353290406534 120.69283066966237 116.17665223400138 120.87645549729045
          121.09953108098246 120.24064972496929
        </DataArray>
      </PointData>
      <CellData>
        <DataArray type="UInt8" Name="vtkGhostType" format="ascii" RangeMin="0" RangeMax="0">
          0 0 0 0 0 0
          0 0 0 0 0 0
          0 0 0 0 0 0
          0 0 0 0 0 0
          0 0 0 0 0 0
          0 0 0 0 0 0
          0 0 0 0 0 0
          0 0 0 0 0 0
          0 0 0 0 0 0
          0 0 0 0 0 0
          0 0 0 0 0 0
          0 0 0 0 0 0
          0 0 0 0 0 0
          0 0 0 0 0 0
          0 0 0 0 0 0
          0 0 0 0 0 0
          0 0 0 0 0 0
          0 0 0 0 0 0
          0 0 0 0 0 0
          0 0 0 0 0 0
          0 0 0 0 0 0
          0 0 0 0 0 0
          0 0 0 0 0 0
          0 0 0 0 0 0
          0 0 0 0 0 0
          0 0 0 0 0 0
          0 0 0 0 0 0
          0 0 0 0 0 0
          0 0 0 0 0 0
          0 0 0 0 0 0
          0 0 0 0 0 0
          0 0 0 0 0 0
          0 0 0 0 0 0
          0 0 0 0 0 0
          0 0 0 0 0 0
          0 0 0 0 0 0
          0 0 0 0 0 0
          0 0 0 0 0 0
          0 0 0 0 0 0
          0 0 0 0 0 0
          0 0 0 0 0 0
          0 0 0 0 0 0
          0 0 0 0 0 0
          0 0 0 0 0 0
          0 0 0 0 0 0
          0 0 0 0 0
        </DataArray>
        <DataArray type="Float64" Name="Velocity_SGS" NumberOfComponents="3" format="ascii" RangeMin="0" RangeMax="0.05888551241585019">
          6.9489879290592e-310 4.6639959966524e-310 4.6639959966524e-310 0.0016792521218921136 -0.0024430504331345274 0
          -0.015090689746316317 0.0018039507533045569 0 0.001508829634526608 -0.0024319587235764138 0
          0.026421538533797986 0.004003301064717847 0 0.034023184014125914 0.0016838716247198594 0
          -0.006490166567161055 -0.0003273385395689025 0 0.05735970218470518 0.013317962973336974 0
          -0.003979803359450989 0.0010394526091961872 0 0.03702944267050289 -0.007877781955268346 0
          -0.0332000830897776 -0.011373745197883511 0 -0.02424486298358613 -0.013122638211794647 0
          0.011133852025156488 0.00037816784999078175 0 -0.014135268928301808 0.0024536608711602566 0
          -0.003915673114605277 -0.0021863353790111733 0 -0.03413966270307932 0.003910675440462082 0
          0.0074546369000809505 0.005286587151109093 0 -0.01200002725264483 0.0032097944256877634 0
          -0.029481997715896477 -0.002773416321939165 0 -0.022912571045177035 -0.00010432546950339721 0
          -0.016932387852785735 -0.004038659589027596 0 0.009872889801851078 0.004147232931301401 0
          0.006051670472108475 -0.00020549500080794397 0 0.011149759653305936 -0.004670437810582016 0
          0.006346975927911027 -0.00114579754232675 0 0.027520618460460614 -0.010814117378099489 0
          -0.007769301363318894 0.006846629839914907 0 -0.010377024316847668 0.0036834664016912747 0
          0.006704189749030241 -0.0009117294517480659 0 0.003363580871678263 0.0011599032864096617 0
          -0.006341511691220944 -0.0012138467658013854 0 -0.005461831811627305 -0.0013644380186424105 0
          -0.002610602723810043 0.000195543889376429 0 0.0010831541550349222 0.00011918045204676393 0
          -0.006950155325928691 0.0008111334824931738 0 -0.0037030145108574 0.0032781455154035476 0
          -0.009598175955418072 -0.0003753387273467959 0 -0.019840375293204617 0.01016614052781895 0
          0.00499647877260276 -0.003613712548525402 0 -0.005432479450967098 0.00022326905737003066 0
          -0.006455110784458686 -0.00002031742043999906 0 -0.003928632168045513 -0.000497757972163462 0
          0.004377718844926888 0.0004407901810267655 0 0.0032755251379330626 0.000045971577105862024 0
          -0.0008886332025712276 -0.002203294808937075 0 0.002865151435923287 0.0012881057062016457 0
          -0.0013782972782106434 -0.0002845039622711577 0 0.001055591839589664 -0.00003067869556488009 0
          0.006115078398890713 -0.002078584471203159 0 0.009286795042044596 0.001591920506014709 0
          0.0008079488280271047 -0.005651384964862302 0 0.0006238251954466287 0.00040616979710965525 0
          0.009411399005181988 -0.002097239049298815 0 0.00435591634502438 0.003044213957622775 0
          -0.0042926277579172605 0.0013605277993135752 0 -0.0028208765640576464 -0.002146798144703989 0
          -0.0009796629549791004 0.0007063116930340752 0 0.001838104956695444 0.00031556665192436186 0
          0.0005620789067654285 -0.0015769029834001949 0 -0.008765005400463276 0.0023217563625668814 0
          0.0037592745406804053 -0.00036508757934205637 0 -0.0027921382597952205 0.0012026178654881885 0
          -0.004680398836761034 0.0004701244384847558 0 -0.001307277505611118 -0.0006362749845231361 0
          -0.0012973973624502639 -0.00002249727258608951 0 0.0004024048819553739 0.0000065003582337740476 0
          0.004813050444726301 -0.0003533423286408714 0 -0.0036968468257722047 -0.0010733232305084374 0
          0.0017709983928893638 0.000009686845284270085 0 0.013687665158566925 -0.007531343115154497 0
          -0.0046804890833150115 0.0005068426887356631 0 0.0025708999517566463 0.0002830771929963578 0
          0.00044906716677750374 -0.0003186251992298004 0 -0.0007165979640009607 0.0005338343912265975 0
          -0.00005250733872113621 0.00011674998384502612 0 -0.00017974604879221977 -0.00037482219618516563 0
          -0.006892765691193197 0.00351267548312211 0 0.000032539152890983614 -0.00011761338043558511 0
          -0.002630681166124954 0.0013531976273423645 0 0.0012246882600041732 -0.0002440310636115938 0
          -0.0024950105508797287 0.0004976841914274034 0 0.0018108159122302435 -0.000782037507601862 0
          0.0010183877133588264 0.0004107745900196283 0 0.0005651409902828653 0.00014865786679633117 0
          -0.005359398683068146 0.0007652071678501714 0 0.00008468327575461123 0.00012697386059887795 0
          -0.0015383245484795996 -0.0007168506252071441 0 -0.00036420994962934694 -0.00010277853507396028 0
          0.00017174168416366183 0.000020211906181643585 0 0.0018384046624889056 0.0000027237119612775654 0
          0.0002611439669036107 0.00018196508893896865 0 -0.000004036548049787789 0.000005767585082842788 0
          -0.000013894234144599955 -0.00004163646274844704 0 0.00004627418257478416 0.000014493049242234746 0
          -0.00003861503515360253 0.0000018593968767932671 0 -0.0001934566295368262 -0.00008749115940455814 0
          -0.00002622885469382315 0.000042219908206321384 0 0.000005064572401642304 0.000017592121227783895 0
          -0.000052241000672523875 0.00009838402562401284 0 -0.00004533641208547342 0.00004895607656067095 0
          0.000033029318978816313 -0.00008778960837779275 0 -0.000013707051734138647 -0.00005365540858365514 0
          0.00009442097429086379 -0.00012022718931104802 0 -0.00036269711431915103 0.00039243266865516955 0
          0.00012641099439744848 -0.00017298394525147863 0 0.00001676825509579641 -0.00007282845916440066 0
          0.00023855392815285635 -0.00009163523841494046 0 -0.00033117413877742607 0.0002136339794901858 0
          0.0000424893897706752 0.000015993047852169646 0 0.00002847199208412183 0.00001652960885597599 0
          0.0001368706339585575 0.00013507174437136043 0 0.00008492880533001044 -0.000027867757065268513 0
          0.00003468761841680988 -0.000004143420438881602 0 0.00010383608686377676 0.00013320995076409494 0
          -0.0011846819226410867 0.00005140494343640403 0 0.00014264204713437044 -0.00005953167453602019 0
          -0.00005671516847372459 0.00003827793741205552 0 0.000038851480870318246 -0.000013719134728603869 0
          0.00023198344586106547 -0.00020232883099437525 0 -0.0001739431369420569 0.00012944325657382607 0
          -0.00006146179465530883 0.000007725153940524395 0 0.0004939187493985375 -0.00024141862199247147 0
          0.003948286109624134 0.000026683285910795475 0 -0.00007042414475875541 0.000045059788028907146 0
          0.0002014687134811671 -0.00003233551128791712 0 -0.0007048686760856331 6.21750916769991e-7 0
          -0.0038619395597265585 0.00015047708837832011 0 0.00013264124049657225 -0.00005656711893269477 0
          0.00014588734594888427 -0.00001720346955878311 0 -0.004840873364522865 0.00029649046398230066 0
          -0.006143775416771073 0.00001402398539742659 0 -0.000013621682482297182 0.000003721548032003416 0
          0.002685876557939748 0.0001698574079573773 0 -0.006022204730585781 -0.000050340293294964185 0
          -0.00004199956725619146 0.000040396461774301466 0 0.0023203585330834257 0.0002127929811217581 0
          0.012361161007312344 0.00008814542219503753 0 0.000006808404867040255 0.000013177618999094426 0
          0.0001761852427913869 -0.000018728402377960156 0 0.0032952890939663953 -0.00001565154351442494 0
          0.00005984349613528283 -0.00012340424340320284 0 -0.0006593620263348154 -0.000041908054605156543 0
          -0.000011021207071885573 0.0001223993992838016 0 -0.0004777384511328853 -0.00016710556039314177 0
          -0.00016553573082821115 0.00010153819572607101 0 -0.0006070007820114772 0.00025132249413771924 0
          -0.0006908560272731436 0.00003082399535379548 0 0.00020299508042849546 -0.000014439450805655475 0
          0.0007643086060988884 -0.00006650507552982769 0 -0.0005651535542830992 0.000025280085483153903 0
          0.00009622456743307369 0.00003349396130047344 0 0.0009605892318833421 -0.00019341795283477563 0
          -0.0007064898960156072 0.000021462918678137945 0 0.00029165642074777007 -0.00009375970087609445 0
          0.0010314608963870428 0.00015112884168175242 0 0.0006503124039939609 -0.000007066313681320278 0
          -0.000054006719028127224 0.00018643884712857023 0 -0.0008309140844576534 0.0000804560080892818 0
          -0.0008816855214025789 0.00005640310761818196 0 0.00008717378614500767 0.00006092165129967112 0
          0.00010146852016332651 -0.0000018917929799673513 0 0.0023945133241568403 -0.0002889494704578664 0
          0.0003263240060879737 0.0000048802002007823935 0 0.0031773589456667523 -0.000367155369006325 0
          -0.002588293734425647 -0.0001841773936156644 0 0.000300855080398583 0.00006380454312601243 0
          0.0007708928626789049 0.00009383097187374949 0 -0.002905545045809678 0.0006641283026370032 0
          -0.00006106657989756148 -0.000013975402176102877 0 -0.004892090872310028 0.0007181267507772334 0
          0.008434861782839533 -0.00028112640201265416 0 -0.005714583299722436 -0.00008474196662536742 0
          0.013170014103884853 -0.00035053395792491375 0 -0.003784863542950207 0.0003234849394185862 0
          0.014234506975744344 -0.00021804692193401826 0 0.004454762971299444 -0.00021435088941589768 0
          -0.00419150752441721 -0.0007033419794513258 0 -0.000405369847766986 0.00023646889813854204 0
          -0.005007370613668182 0.00047876678299729535 0 -0.004430347933032056 -0.0013518115039669856 0
          0.00392356645705576 0.00010788381969897048 0 -0.006859517278081436 -0.000242057422737635 0
          0.00021956168374808144 -0.00004099428825257627 0 0.0048038547137192935 0.00013660765139599185 0
          0.0016452199916915293 0.0001932638379568043 0 -0.001720448854437129 -0.00004625929818243624 0
          0.0022643720018033324 0.00020076678742772237 0 -0.0014696618071291633 -0.00004326715183721173 0
          -0.000016639344922708574 -0.00014422983456950463 0 0.00033015214462736337 0.0000778967859231562 0
          -0.000055843705259600585 -0.00009827308023838592 0 -0.000067855277798639 0.00004322208297164115 0
          -0.00006196493249298245 -0.000059093402407172795 0 -0.00010593784254651731 0.00004580810845620582 0
          -0.000059900952462765646 -0.000058514284801245374 0 -0.000037141530896196256 -0.0000035814784081769028 0
          0.01197800543720786 -0.00015585449063203538 0 0.013038893140910831 0.00009761157859861268 0
          -0.00420777283013833 -0.00038151656032881827 0 0.004530837929673252 -0.000044938074052994106 0
          -0.000016885859772596513 0.000006748961998901332 0 0.000010496291380875048 0.000016523109856871356 0
          -0.00007051359284583976 -0.000003933329652493099 0 0.0002794244150528852 0.00010042608516630763 0
          -0.0084074105133841 0.000013571955239023331 0 -0.0010516564679317769 0.0000010855774989633354 0
          -0.00011919094089319661 0.000006203551330261269 0 0.0003614354166347249 0.000020121591388293543 0
          0.003487870610751814 0.0000383963756471141 0 0.0001648328643233852 -0.00007811927017856678 0
          -0.0036708768246194075 -0.00002574265588598922 0 -0.00011678099573529198 0.00004086255941625345 0
          0.0006418245424434823 0.00034932649589458143 0 -0.00016175543062927743 -0.00025545952152373266 0
          0.0015686800784619876 0.0005135539898496685 0 -0.0013605696475367003 -0.0002845932401727866 0
          0.00015653111465946764 0.000183547560067311 0 0.0021079916745591967 0.00007963372545857121 0
          -0.0021750372557989145 -0.00010333630175238693 0 -0.0009396724365092685 -0.000014016045902434607 0
          -0.000499868968571553 -0.0004667043383670597 0 0.0012929307778448969 -0.00010833718859497422 0
          -0.00020326029750054452 0.00018754859153448692 0 0.0025694070272493873 -0.00016410424804477202 0
          -0.0023501570354448323 -0.0001852688667675335 0 -0.00075086260164782 0.00007995403309846559 0
          0.008248274475650928 0.002174593354101948 0 0.00975390430525098 0.0018687162524321276 0
          -0.00042031805406955985 0.0002162529005172381 0 -0.005673503598356044 0.0003002305292232893 0
          0.0005246882294672459 -0.001590852699115019 0 0.0004092099608731403 0.00003190545764964632 0
          0.0014255800151870127 0.0005947794133667306 0 0.004624486949238823 0.00008228146563500079 0
          -0.010143383063837105 -0.000373910651405628 0 0.00007147685955922724 -0.000011081287661910271 0
          0.0001244580123003183 -0.000014654091799234278 0 -0.0007919849149745581 -0.00009555321304008537 0
          -0.0032096724280269513 0.00021442208049212927 0 -0.0031531834086989553 -0.0001480499612990218 0
          0.010505732350292134 -0.0005308969349953581 0 0.0011315437731210542 -0.00047668874659268125 0
          0.00018459326203118965 0.0000010765470523576306 0 0.0006734295121822852 -0.00016941225481487043 0
          0.0001225944807412161 -0.00013212242228194163 0 -0.0007769488324482089 -0.0015755860085870962 0
          0.0036233631344190897 0.001648617381295219 0 -0.00004300554771372226 -0.000037298723029784896 0
          0.008362071425080653 0.0002917126096994252 0 -0.004579223659218002 -0.0004292283999735295 0
          -0.002746385565990054 -0.0005209632435916798 0 -0.002793532415966366 0.00015177501343556222 0
          -0.00015981089794935054 -0.00038835380589834006 0 0.0014784663128876445 0.0017815528947814864 0
          0.0026095309963836315 0.0017273366545968952 0 -0.0008522560623962477 0.0002615756772201905 0
          -0.0029957409001448525 -0.0009239387846570802 0 -0.004764537292463942 -0.0032636194205629284 0
          -0.004708937655864163 -0.0009245521668041146 0 -0.0006450835485133695 -0.00006651176425842949 0
          0.0006888667559791165 0.000135962072199286 0 -0.0000530079764123344 0.000018898870842996423 0
          -0.011940158872845896 0.0007004323843382336 0 0.0021960371116201173 0.000004553509860735468 0
          -0.0007192097892467682 0.00018184415922366853 0 -0.0007185671845781469 0.00021958476365692854 0
          -0.011871445950056061 -0.00011966412585642788 0 0.00022962190443956307 -0.00025101392979686354 0
          -0.0013842072913237812 -0.000039266823352081365 0 0.00039749187021674646 -0.00010331603222254245 0
          -0.006598068620155029 -0.0013428098836156773 0 0.008182410025270329 0.002653904947675609 0
          -0.006698868333261135 -0.001565869403145099 0 0.002918959690988179 -0.00010825512350650217 0
          0.0046495357410777675 -0.0005034716642234572 0 0.016732777176177355 0.007425816795294714 0
          <InformationKey name="L2_NORM_RANGE" location="vtkDataArray" length="2">
            <Value index="0">
              0
            </Value>
            <Value index="1">
              0.058885512416
            </Value>
          </InformationKey>
        </DataArray>
        <DataArray type="Float64" Name="Velocity_SGS2" NumberOfComponents="3" format="ascii" RangeMin="0" RangeMax="0.3049967812617707">
          6.9489879290592e-310 4.6639959966524e-310 4.6639959966524e-310 0.16601011711245134 -0.20052802087392152 0
          -0.10597989056107628 0.06532722884476247 0 0.20494521833726342 0.22587716586838036 0
          -0.10148175445589405 -0.07000194769025365 0 -0.12671520223994068 0.053519995008660864 0
          0.10328627516318581 -0.16311707448817464 0 0.0501700855252931 -0.06062631872008782 0
          0.14320809330910367 0.17329745882142705 0 -0.00474698026864688 0.04678102665753209 0
          0.010117786904268974 0.05573173343367878 0 -0.06828814312155614 -0.033247808604986266 0
          -0.06662661655895516 0.033629860783009335 0 -0.0006861500758677669 -0.05696670095573977 0
          -0.07820628359139105 -0.04475768457241658 0 -0.019690878026703815 0.05262537296387489 0
          0.04310189089221869 -0.05716796188982097 0 -0.00980151390329766 0.058443609934391794 0
          -0.006496947566179065 -0.05486865227793209 0 -0.11485280517436654 0.043122152524906546 0
          0.027547894265595424 -0.04794906817550893 0 0.019381895351798233 0.005266439450899909 0
          0.05095384122374399 -0.006137078058472047 0 -0.05804408685051669 -0.003670858508631046 0
          0.0017717873093047593 0.016125555562932704 0 -0.013974619923885427 0.012405226614218027 0
          -0.04228638825699443 -0.01710370160701518 0 -0.016293159356895362 0.019170081186659752 0
          0.0036310279142064018 -0.015783060989652715 0 0.024578536053429682 -0.000762653982085219 0
          0.002620899624158013 0.043506790072259896 0 0.04358753191319832 -0.029051106435845613 0
          0.007270876833779902 -0.06438009686492413 0 0.0543512880806369 -0.014115810587271974 0
          0.011062714101385901 0.018460475080430805 0 0.014210110529889547 0.0007419057437560209 0
          -0.0024298075123734535 -0.0069264973282223575 0 -0.047569087997632625 0.04842995475894417 0
          0.025865058970423044 -0.012013639949143824 0 0.00488372295405904 0.007601778245984078 0
          0.0435330358906391 -0.010852244844605645 0 0.007532482471597117 0.014131216394527626 0
          -0.030624201664511012 0.02783433364786799 0 -0.02792769828345452 0.03318391928698912 0
          0.08000034802743634 0.00938305962610987 0 0.001669363506718789 0.0004479685660434187 0
          0.00674904938928959 -0.008510185276368308 0 -0.008825810203588861 -0.001874938670776584 0
          0.0118545618333862 0.004695152307906719 0 0.007342531586992327 -0.00510259614824264 0
          -0.02398413666161559 0.0019789814006121453 0 -0.04473446711406764 0.04444772945376293 0
          0.007779549841220626 0.004926792587033051 0 -0.025118416844943963 -0.016199987726748837 0
          0.007821560826065445 0.005681742592888013 0 -0.0086677719039326 0.0051621532243455535 0
          0.0011760066415492387 0.0036069171789049658 0 -0.05436980913869681 -0.006750969962945389 0