<?xml version="1.0"?>
<VTKFile type="UnstructuredGrid" version="0.1" byte_order="LittleEndian" header_type="UInt32" compressor="vtkZLibDataCompressor">
  <UnstructuredGrid>
    <Piece NumberOfPoints="164" NumberOfCells="275">
      <PointData>
        <DataArray type="Float64" Name="Velocity" NumberOfComponents="3" format="ascii" RangeMin="0" RangeMax="1.7998514603359168">
          0.897561035566121 0 0 1.0279841097383293 -0.005189165459244351 0
          1.2548529725027293 0 0 1.2350345313951978 0.024212227223871105 0
          1.0817316611409378 -0.010928366812604541 0 1.0960997797295953 0 0
          1.0699547106270215 0.0014171292745847209 0 1.1550145270036558 -0.008210991302722416 0
          1.281575677806471 -0.0010442316269230949 0 0.8779012576191161 -0.007488435175573359 0
          1.1156489002604186 0 0 1.1161103972862563 -0.003161171574291747 0
          1.1278583742426536 0.0009413968359099027 0 1.074751747315755 0.0027263613933652345 0
          1.1527022444616022 0.010231785852406338 0 1.0588980415714584 0.017829417367895662 0
          1.1170358712315545 0 0 1.1155549424826243 0.0012180230902866299 0
          1.1201977389914872 0.0016228161945238877 0 1.1174703307261022 -0.0001765195770145489 0
          1.1152859233052095 0.001528497660636435 0 1.2506545487086258 0.0009407437799268045 0
          1.1186893148926043 0.0016704830225900144 0 1.1174937274212164 0.0012815136432158265 0
          1.0956952633104382 0.002817269609055505 0 1.0587492602096562 -0.01698894075999978 0
          1.1195189343002039 0 0 1.1164153090907616 -0.001969202757876031 0
          1.1177818285516528 0.0017936484710218985 0 1.1225514372751069 -0.00004321232888634238 0
          1.1502541962944972 -0.012104363190707054 0 1.1155981916913038 0.002147970127083363 0
          1.1152039885958072 0.0001743089866598524 0 1.115860171409341 0.00213339257362496 0
          1.1177862626027277 -0.0019659384410426204 0 0.8947807064294946 0.0009193160186935364 0
          1.1218867787061322 0 0 1.1152596982996126 -0.00029635161301249426 0
          1.1190950378332798 0.0045729878451268935 0 1.2729249887495941 -0.00236586969777233 0
          1.117245087293329 0.0009001030719163847 0 1.081041928566496 -0.005702103280158594 0
          1.1130263652644812 0.002226007891597924 0 1.1127938131929098 0.0040490968941223416 0
          1.1137456194796032 0.0006688793859127029 0 1.1173323711401424 0.006510375452261898 0
          1.1187693443037685 -0.0027108967252009917 0 1.1063819267850317 0.0038435924751945806 0
          1.1269530622611452 0 0 1.1135150834700018 -0.00011365565714429403 0
          1.1237542916896675 0.008850196228344471 0 1.138900499627602 -0.0015410795072937056 0
          1.116695774160342 -0.00021442370220857668 0 1.1092586516269323 0.002803940814627774 0
          1.1112889737408633 -0.0008529305163526534 0 1.1132035842418808 0.008569348034897421 0
          1.116413437248161 0.0002520905407516835 0 1.1153622965043308 -0.0019372561066627687 0
          1.1166677075017581 0.013910294430542675 0 1.1147290227948128 -0.004450256738956512 0
          0.8895773520037283 0 0 1.1387653196216114 0 0
          1.1163605140027806 -0.003718938127450705 0 1.2756395674159213 0 0
          1.1272426656508658 0.01854200762718016 0 1.08106127692926 0 0
          1.1072983312472353 0.0002570807038423995 0 1.1013419397637914 0.005470749459507847 0
          1.1166733385030847 -0.0034887538421879767 0 1.111127971550322 -0.004372310560741037 0
          1.1153467754886697 0.018463106541892055 0 1.120323781709633 0 0
          1.1145039520555782 -0.004217931799442955 0 1.1433401850828377 0.017149157435653154 0
          1.1181056695701286 0 0 1.149451564421048 0 0
          1.1155800618712262 0.0007978202573156165 0 1.1513451833145987 0.02315835460342611 0
          1.1099907813138572 -0.011261407037841021 0 1.1090938509227122 0.023798075194734255 0
          1.1178378276423486 -0.008651007540933946 0 1.109225213288385 0.0414562174006187 0
          1.1117323814368154 0 0 1.1112736618319947 -0.019717790525060314 0
          1.1189960434881994 -0.001384707001852121 0 1.1423936257199936 0.041532583774806175 0
          1.1168499935367977 0 0 1.1842428525741089 0 0
          0.9703342382568776 0.06303794167918088 0 1.1286030610882947 -0.013445087570361744 0
          1.1239095905603058 -0.008217232955697576 0 1.09921409236576 0.1270696882729095 0
          1.0009430551941978 -0.061652108014517454 0 1.1280126319576333 0 0
          1.0930045716941679 0.1644996173811887 0 1.1975936013333548 0.02775649920501215 0
          1.1013506878791128 -0.04322285367682957 0 1.1956420226384068 0 0
          1.1331517157422257 -0.01849088832801837 0 1.1488899590580106 -0.014588849334152868 0
          1.1351529381668737 0 0 0.8467526403705935 -0.01958699714757304 0
          1.1280107101777412 -0.1927819211785874 0 1.3327695607405492 0.07267573148256154 0
          1.1946443811259662 0.02691510760476705 0 1.4000500404131107 0.3703570907739016 0
          1.140717132385916 -0.07821533853310926 0 1.20245545415847 0 0
          1.1487643255713542 0 0 0 0 0
          1.1880552773920374 -0.024530704860634998 0 1.4495065712478787 -0.3948795537711398 0
          1.7875222425117796 -0.21030813536092954 0 1.1507735354575026 -0.00566053626068317 0
          1.270009430909517 -0.15943145249778828 0 1.2286905901568501 -0.02336081815210352 0
          0 0 0 1.170852586750719 0 0
          0 0 0 1.1891246746465194 0 0
          0 0 0 0 0 0
          1.2215017005823403 -0.01877280418105171 0 1.2104030904629375 -0.06952517237190582 0
          1.3841482208076747 -0.5106910454524202 0 1.1513425739022174 -0.1457710081017451 0
          1.7334404887102257 0.11965847909217935 0 0.6892155872763128 0.08996215644881393 0
          1.2120732053765781 0.05229688952872203 0 1.3376395026083099 0.5815902615885178 0
          1.199243695778049 0 0 1.128777560384689 0 0
          0.9843186711782279 -0.070693371753741 0 1.1056736703535575 -0.0393666814203676 0
          1.1208151174864869 -0.07606580262009129 0 0.8749870175613923 -0.06676292685939517 0
          1.0113587390547822 0.1743930135653678 0 1.2149038370562157 0.01472020520297455 0
          1.2064888509791243 0 0 1.092830278890155 0.19799046347072674 0
          1.1334061061337233 0.010815782132285297 0 1.2209659824743304 -0.05344110531845926 0
          1.2196608859290834 0 0 1.1813575256160789 -0.022743517178053473 0
          1.0829538426157128 0.009194006860590596 0 1.206736490869579 -0.03508407135679288 0
          1.0204756380054254 0.0585944808476969 0 1.192026957309729 0 0
          1.1910802325754988 0.03375680588051987 0 1.1468112442209064 0.061249392839404095 0
          1.2435901139317547 0.0326907289539207 0 0.9999999966427315 0 0
          0.9999999966427316 0 0 1.202499930614107 0.03595369727476504 0
          0.9999999966427315 0 0 1.1164667208812533 0 0
          0.9999999966427315 0 0 1.130921032739716 0.04806441062122795 0
          0.9999999966427314 0 0 0.9999999966427315 0 0
          1.2534546591886324 0 0 0.9999999966427315 0 0
          0.9999999966427315 0 0 0.9999999966427315 0 0
          <InformationKey name="L2_NORM_RANGE" location="vtkDataArray" length="2">
            <Value index="0">
              0
            </Value>
            <Value index="1">
              1.7998514603
            </Value>
          </InformationKey>
        </DataArray>
        <DataArray type="Float64" Name="Pressure" format="ascii" RangeMin="-35.294124161969286" RangeMax="0.2234046185038614">
          -0.3228152061527844 -0.06485584156662415 -0.36436637876822187 -0.9875383184405858 0.11049781939645677 -3.3506546079499593
          -3.532943236054279 -2.1367371320488213 -0.8657113368179014 0.06508554395042025 -5.881183194022561 -4.723467742372565
          -5.957557312488473 -3.4691406281066137 -2.025027518351419 0.2234046185038614 -8.309024420581764 -7.126936689162213
          -5.955766858084409 -8.338499699050871 -4.753774392398836 -1.2593586769449885 -8.357339565094826 -9.570920017791472
          -3.6016938562656113 0.2118550244314698 -10.77655684135246 -7.151878382020419 -10.779702566470279 -5.958542511875003
          -2.074294344514281 -10.788553599813627 -9.584914027804961 -11.996008048025109 -4.7762448944841935 0.06404044922895705
          -13.200470171821197 -8.370734083349625 -13.212096644096166 -0.9445520501121811 -7.160667205813343 -3.515583287975535
          -12.009873521292025 -13.221669765229322 -10.799485336761286 -14.432709470006438 -5.967644522108511 0.18501281731453084
          -15.629516735076614 -9.589668971722418 -15.643638642080633 -2.023964770572215 -8.370765349348872 -14.44230550874146
          -13.230351235163612 -15.650115148012075 -4.719473210614636 -12.016293966999719 -16.854562560754637 -7.14031793558744
          -0.02405960550879212 -18.04388812604391 -10.79996174440257 -0.8000456513427796 -18.066650769160532 -3.491808088303419
          -15.665227442732988 -16.88097621948319 -9.587374107437705 -14.449017934626916 -18.103748180092314 -5.94190892422423
          -13.22688894912456 -19.319823739079126 -8.348161259313441 -20.450290247447025 -12.005203661863666 -20.589581499734184
          -16.6007729348004 -19.65705549810736 -15.659754741738071 -20.442123044456885 -10.791095124046988 -18.713172786577456
          -14.43718996606929 -22.13717776434915 -13.242309128698807 -22.858021526553248 -21.671154919601868 -18.50581271182072
          -16.936593769542515 -22.89202396378389 -21.71140690620939 -15.664502331149118 -24.086712813176902 -24.400928175124697
          -21.18899419669723 -25.278252955458033 -19.288355158865365 -20.793613529297033 -18.06316250586071 -24.62681229760834
          -23.66871701233384 -26.266641456332774 -26.602206017527248 -26.68243103572075 -23.024869783645688 -27.5897307731283
          -20.45922414931504 -27.02726576685011 -22.62804104319774 -26.51741456091749 -28.169005003787216 -28.432496056821037
          -25.477565534974875 -28.63126440093614 -28.11417946293541 -22.847801200748666 -27.88141340099919 -29.860756930017967
          -28.309081810879597 -28.220790686626753 -25.65121450007327 -30.238516412803808 -28.976582764004558 -29.979528825115526
          -28.098336220229903 -28.81968191210389 -27.53119640737564 -28.607680698986467 -25.22584774510015 -32.363135794729615
          -31.56876716071376 -32.40669258034862 -32.36662762600071 -31.099194925724596 -30.39570256310477 -28.666965071220556
          -27.57468870869973 -30.375836017410464 -30.06200009439022 -33.92315794473086 -34.79838763944732 -34.48600963639102
          -33.18239856191909 -33.85193553634345 -32.62700084881604 -29.854602021507088 -31.128548436957285 -32.22408172669342
          -34.50626321560652 -34.54024995265664 -35.081271055259485 -34.1916440609388 -34.880672068863056 -32.27015291568833
          -34.76405989690129 -33.868280787954106 -34.94451781920664 -34.6794623385148 -34.706366852593035 -35.02881582792509
          -35.294124161969286 -34.96284631733533
        </DataArray>
      </PointData>
      <CellData>
        <DataArray type="UInt8" Name="vtkGhostType" format="ascii" RangeMin="0" RangeMax="0">
          0 0 0 0 0 0
          0 0 0 0 0 0
          0 0 0 0 0 0
          0 0 0 0 0 0
          0 0 0 0 0 0
          0 0 0 0 0 0
          0 0 0 0 0 0
          0 0 0 0 0 0
          0 0 0 0 0 0
          0 0 0 0 0 0
          0 0 0 0 0 0
          0 0 0 0 0 0
          0 0 0 0 0 0
          0 0 0 0 0 0
          0 0 0 0 0 0
          0 0 0 0 0 0
          0 0 0 0 0 0
          0 0 0 0 0 0
          0 0 0 0 0 0
          0 0 0 0 0 0
          0 0 0 0 0 0
          0 0 0 0 0 0
          0 0 0 0 0 0
          0 0 0 0 0 0
          0 0 0 0 0 0
          0 0 0 0 0 0
          0 0 0 0 0 0
          0 0 0 0 0 0
          0 0 0 0 0 0
          0 0 0 0 0 0
          0 0 0 0 0 0
          0 0 0 0 0 0
          0 0 0 0 0 0
          0 0 0 0 0 0
          0 0 0 0 0 0
          0 0 0 0 0 0
          0 0 0 0 0 0
          0 0 0 0 0 0
          0 0 0 0 0 0
          0 0 0 0 0 0
          0 0 0 0 0 0
          0 0 0 0 0 0
          0 0 0 0 0 0
          0 0 0 0 0 0
          0 0 0 0 0 0
          0 0 0 0 0
        </DataArray>
        <DataArray type="Float64" Name="Velocity_SGS" NumberOfComponents="3" format="ascii" RangeMin="0" RangeMax="0.22099226275988898">
          6.94898792904416e-310 4.6639972860894e-310 0 0.00849737014484149 -0.011870254317876739 0
          -0.0739379396606197 0.011956709791404315 0 0.0021245080970245453 -0.01590538869992736 0
          0.08981146039264234 0.013438962313333117 0 0.1224938215658184 0.006381990162863182 0
          -0.026366951845203136 -0.009482080681222933 0 0.20944392262056336 0.07050406709578737 0
          -0.017033979253889685 0.012676540135604729 0 0.13518777374364002 -0.03554728900025033 0
          -0.1010223106014586 -0.05578695007962471 0 -0.05440861840671114 -0.06223457694550742 0
          0.03932240020642981 0.00687466753151323 0 -0.05809116530654009 0.015865274032100182 0
          -0.009530117468096268 -0.016249417640725655 0 -0.12692117714353515 0.01669519876937496 0
          0.05925782428784006 0.034246077101682953 0 -0.0664170751492865 0.017992366845442587 0
          -0.12456924662870847 -0.02000540121415286 0 -0.09452533955177664 0.005825550383425544 0
          -0.08917798792266182 -0.011917705517475927 0 0.026541289636578206 0.015483941230538253 0
          0.019661334268297907 -0.0020014516280549228 0 0.023042074581318447 -0.018224895921891655 0
          0.03392357117194594 0.0006562231208719401 0 0.10177743037808101 -0.051433384204026815 0
          -0.026778282529515952 0.028010592892383036 0 -0.04381466315473677 0.025193121405569768 0
          0.01176855173002049 -0.012455816871445672 0 0.0009298054517977083 0.00548544095825053 0
          0.00552093219111186 0.00046844792182457233 0 0.018746330313407982 -0.0006064236671594659 0
          0.002903179072670785 0.0014933018536245994 0 0.03171444509448313 -0.002042361353650873 0
          -0.021652246309928243 0.0030719468430240844 0 -0.030119659946011814 0.018702083204540115 0
          -0.05515663055314372 -0.0023491371308666346 0 -0.09746853105290938 0.05439047747108985 0
          0.03609499867711204 -0.019650965367938904 0 -0.010255908605620187 0.0003891370135289576 0
          -0.0034780596929980044 -0.0013856938928624764 0 -0.013878463494272809 -0.00017224955557105267 0
          0.0017751428571636896 -0.0001640038204404069 0 -0.007529615607224427 -0.0002892575864791628 0
          0.03303292406117088 -0.01001498887064912 0 0.010133184219714682 0.009077594143899841 0
          -0.008233258452844781 -0.0004946807935742603 0 -0.007332448797059615 -0.0015678089812901537 0
          0.04679457871386969 -0.02123664192850899 0 0.04581381653283356 0.013500718538174743 0
          0.011204377390917534 -0.03467456526642488 0 -0.01810051442837658 0.0021795041606598713 0
          0.01823548612956038 -0.008697875201182816 0 0.008426967420371662 0.016094251124111152 0
          -0.013950230594130345 0.004188080862289915 0 -0.004686482449103298 -0.014353039597916072 0
          -0.003674952468014949 0.0034703961790810535 0 -0.01725403861112907 0.0026035613844128174 0
          0.02171813329473761 -0.009550803034516886 0 0.0021955477664237855 0.006199998342001225 0
          -0.010067333574545418 -0.00012173990453497415 0 0.003884226027938862 0.0020764936392801085 0
          0.014110438638759975 0.0012108983929071833 0 -0.02293710611956224 0.0014315771709035325 0
          -0.010545783698434685 0.0018358658717395281 0 0.00446656007573563 -0.0003159780499373372 0
          0.014608610337241987 0.0020186486103235756 0 -0.03211982760476702 -0.000881032207984508 0
          0.009903636180046192 -0.003292185512943375 0 0.08776267026069093 -0.056303544833700196 0
          -0.004795786028768295 -0.004007163203206269 0 0.005454799830374112 -0.0005493839630792373 0
          0.009577663843669072 -0.0039497161224225 0 -0.0015878530057958692 0.0013046815246227136 0
          -0.00024361980938137316 0.0027854244744513583 0 0.0029493519944924617 -0.004109563234795842 0
          -0.024519878375715974 0.015575827789184031 0 0.0002355170859702481 0.0017194228940585392 0
          -0.013338535712213528 0.01152026474309972 0 0.004048952740279805 -0.0006401179044065942 0
          0.0020726689757105117 -0.0013610198348754689 0 0.001788969975936216 -0.0004827586542884453 0
          -0.0005261848065462511 -0.0017296800166785892 0 -0.0028419053180846576 -0.0000347726429410805 0
          0.0021816258930685128 0.00012848127849835963 0 -0.00042765144686303776 0.0006237542577105667 0
          -0.00642408039473318 -0.0015682337034610032 0 0.000358488229604456 -0.0005543348227539011 0
          -0.000136684664323419 -0.0006034254066293183 0 0.006926688208565702 -0.001327623391873734 0
          -0.00020122784990552926 -0.0005278981181188384 0 0.00008035977285054583 0.00047182659602347277 0
          -0.00016968077969312686 -0.000257195833448061 0 -0.000006303773293667558 0.00009578485637207906 0
          0.00026121973421561943 0.00023040479104719468 0 0.00005406030900870519 0.000026951079841109113 0
          -0.00008076079502823337 0.000016819885020148044 0 -0.00025166984188806587 -0.00014595986113524756 0
          0.00038395874153840246 0.00003805831707213949 0 0.00015713807096933363 -0.0000998502647173188 0
          -0.0006402258668923866 -0.00041868872446834964 0 -0.00012890411041964665 -0.000009156334440372821 0
          0.00031318383021135943 -0.00012836216613721895 0 0.0008670002326531083 0.0011707391489672843 0
          -0.00012422787648220748 -0.0004643748017411326 0 -0.000019562279002622055 0.00016267980907760504 0
          -0.00010813879193852843 0.00039924060522013327 0 0.00020113422891450105 0.00008374641007776471 0
          0.000006449718493647721 0.0006182401043681021 0 -0.00032408443794316007 0.00005496616862063284 0
          -0.00007492889724769971 -0.00037377254448800484 0 0.00018744371687791418 0.0003709155685541859 0
          -0.00017614342235474734 -0.00009803186718074557 0 -0.00015173095172459707 -0.00021642642493798983 0
          0.00031261611397683013 0.00020020179833970704 0 -0.0010887375771085526 0.00011349605229475846 0
          0.000003257599818457811 -0.00014599095469136275 0 0.00032844792821805157 -0.00001627647192205735 0
          -0.000353508553605696 0.00011729930192824444 0 0.00017307684238588293 -0.0006383643570517022 0
          0.00009125979084545721 -0.0003021346809616987 0 -0.0000254097643613811 -0.00006148522786176254 0
          -0.0002225948353072607 -0.00056381547684545 0 0.00012201942592853966 -0.00004812124930040302 0
          -0.00007405415062066494 0.00016827513479034564 0 -0.00007112253934134997 0.000029379258415213582 0
          0.002423745157587838 0.0004945239277964372 0 0.00006457825344215984 0.00007478947359623279 0
          -0.00017837991655389763 -0.000011920509476709052 0 0.00226784082157272 0.0003848958223358271 0
          -0.00011632484879001538 0.0001443067815110561 0 -0.00003209097727956172 0.00006513365962499556 0
          -0.000588284510086422 0.00006024024218509639 0 -0.000044833710406575345 0.00005917944315065975 0
          -0.00009506398113023678 -0.0001234065129738769 0 -0.0005442027909266602 0.00035745451075262384 0
          -0.007063169984504472 0.0002232959355278425 0 0.000820050230500063 0.00009659920402245171 0
          -0.0002949413200088078 -0.00004896325070371293 0 -0.0009674817239324137 -0.0002051101701951931 0
          -0.0008433828090711209 -0.000512819057403054 0 0.00011071127044316652 -0.00012063329077950618 0
          -0.0012305456514981098 0.00022724746276670666 0 0.0013556564743999837 -0.00016336056872700492 0
          -0.001127377435951581 0.000369572059656859 0 0.002996802889340765 0.002207556385357562 0
          -0.00011382245856911993 -0.0007568660481792174 0 0.0001406041845982746 0.00012717366019773522 0
          0.0008600268908070074 0.0000724990016225792 0 0.0003838380761163689 -0.0004663066000309263 0
          -0.000428920345259158 0.00012224985501838758 0 0.005161277899895489 -0.0006339150777905009 0
          -0.0007245065671858198 -0.0006056520911780491 0 -0.00023953215981577727 0.0003456458048719794 0
          0.0010869718237071823 0.001254020725956932 0 0.0014948508393631348 -0.0005601429046303324 0
          0.0003696799745754409 0.0005742869240742032 0 0.0003763879323889765 0.00010756019048458224 0
          0.00026890288146218613 0.00012501292858115994 0 -0.00043311742018941897 0.00008724918886439491 0
          -0.00021235998034964247 -0.0001297576486696608 0 -0.0004605519022179034 -0.00026002067688236913 0
          -0.00022945485706038417 0.00002069212302783832 0 -0.0006029735394520818 -0.00046451793974260373 0
          0.002543192956022713 -0.00026055977056174885 0 -0.00004757913140224125 0.000028206135716870123 0
          -0.00027966623188840526 0.00017404753294648058 0 -0.0005925584676079632 0.0004327199662009568 0
          -0.00009102731609749041 -0.00006278639786878266 0 0.000148951547457081 0.0005047791667858522 0
          -0.006094432569036907 0.00022803998894753435 0 0.002876311955432303 -0.00003268525020842048 0
          -0.008572362709995188 0.0001106221313646697 0 0.004219511770749495 -0.0004739297203189476 0
          -0.008498437927543952 0.00012320182961955348 0 -0.00019617530709845152 -0.0005636285177171085 0
          -0.0008068337097331729 -0.00038832017742860034 0 0.000646101409635886 -0.00001753846080336207 0
          0.003082277554735034 -0.000009450048317797442 0 -0.0007533263393060205 -0.0005094534877923671 0
          -0.00009674906092084983 0.0002579766577818192 0 0.002082930993617992 -0.00002081679741192619 0
          -0.00048295447965289933 0.000004242179607449631 0 0.00019052532529793186 0.00015481693553022168 0
          -0.0005058759511070113 0.00013742858973460716 0 0.0003769203969752245 -0.00015276247764888358 0
          -0.0003062128928338669 0.00018653793853864927 0 0.00031381616054798107 -0.00015895391970473133 0
          -0.00001375113604492411 -0.00003377529027014156 0 -0.0002849647399935388 -0.000002134154145979242 0
          -0.00009668656565576259 -0.0000020922773716892896 0 0.0002018041242842692 0.00005978569670764342 0
          -0.000003080040907049047 0.000025435964442596412 0 -0.000008640731722935599 0.0001808384618961788 0
          0.000048867720327153744 0.00005481252950627481 0 0.0002591174535016965 -0.00009438614533142884 0
          -0.007017625600826158 -0.00035464937903570187 0 -0.00791531881711453 -0.0005659894538078943 0
          0.0004723555404178188 -0.0000013823683872911797 0 -0.0008465730908772374 -0.00006397526926495525 0
          0.0002020361763470761 -0.00021093423877421405 0 -0.00018523354521663877 0.00012940130856048122 0
          0.0006909988699695376 -0.0003962538306011712 0 -0.00691345785101203 0.0011215537559106576 0
          0.006030125003935157 0.00012163293103593027 0 0.0004835784764685582 0.00006473371726371995 0
          -0.00031683725220744475 0.0001748609126280935 0 -0.0006289907309793191 -0.00016297074732871103 0
          -0.000494681887177044 -0.0002938040995546189 0 -0.00004930243481511364 0.00026592412107238135 0
          0.0023708157849948288 0.00005128572663317866 0 0.0004314106481889415 -0.00006970682534267628 0
          0.0034588304197803255 0.0012137300033564632 0 0.0010848692491785923 -0.0008056295083873931 0
          0.009797998972127183 0.0028517891667222788 0 -0.008190903192536196 -0.0035859796143588646 0
          0.0008501534624614621 0.0013027050630034843 0 0.005885815731334787 0.000019120361912493213 0
          0.000026418241665025072 -0.0000634602898267553 0 -0.00034597385625498734 0.00048141981731146625 0
          -0.00022054560749311934 0.0005163805658319959 0 -0.00013477656903955124 -0.00010789292134988834 0
          -0.004390931717148092 0.0014542194170157725 0 -0.0018277475809129048 -0.0014965157514558718 0
          0.007513540591340278 -0.0010030850245464655 0 -0.0014745136989932734 0.0004316851042902631 0
          -0.003943083045954624 0.0005000463859676173 0 -0.008939063436132343 0.00027821173322603484 0
          0.0013518768879129568 -0.00006330459674509469 0 0.004034155981970346 -0.000011104379618154492 0
          -0.001564677020851692 -0.007213946902839826 0 0.00013462460937868607 -0.00009421771948335008 0
          -0.0036299680297478022 0.000560685103299822 0 -0.004414720940120299 -0.0020117171729741026 0
          0.0028247137637750284 -0.00003408341002393594 0 0.0003601283339746222 -0.0000574913647431536 0
          -0.00020815476829493323 0.00020085730303930584 0 -0.0008157265690659423 -0.00001764850516420408 0
          0.018713334443100096 0.0018167947584915227 0 0.0025016174359289165 0.00008794172011342621 0
          -0.0034312564748006148 -0.00023219894826401264 0 0.0031049953916032153 -0.0012138440321120881 0
          -0.0005636866685855763 -0.00004801724787384953 0 0.0024711395030901093 -0.00077612765632292 0
          0.0002504833609469643 -0.0003006212246100445 0 0.0009035742864682067 -0.00032615235545048926 0
          0.01575387370921636 0.006072813622843016 0 -0.00010590923937875493 -0.000139939485378015 0
          -0.006240488676141115 0.00028368668975590604 0 0.004079602310047454 0.00004614079377452746 0
          0.00007585475623278514 -0.00002364194953755152 0 0.0024284598253693055 -0.00038989643466022685 0
          -0.000054789344381294715 0.000017780290079737855 0 -0.004677204076949719 0.005408006413985176 0
          0.0003312762431278032 0.00799034084377901 0 -0.002780751678864648 0.0012867836058614779 0
          -0.004920666770143146 -0.002268236858631553 0 -0.011142245025921859 -0.016639143715254132 0
          -0.013534112540949139 -0.004146694934027652 0 -0.003968240539133494 -0.0002950898009021645 0
          0.00032956587890887155 0.0006266044773744904 0 -0.0006325761892695498 0.0006537703652555381 0
          0.007710307858229017 0.0004793612904270223 0 0.00718425405257619 0.003282531814609077 0
          0.000025086912371187725 0.0000034504261790730323 0 0.0004667114023636128 0.000627603599712268 0
          0.007447761678035484 0.0005306177893339282 0 0.0006825275083534163 -0.0019759684125856816 0
          0.000028917597910076445 -0.00007393587177340804 0 0.000007828457107917375 -0.0005753431032157945 0
          -0.028377482763246566 -0.0013865681645505471 0 0.016504326679525345 0.014064516210548682 0
          0.007578061613324099 -0.00011463538789838865 0 -0.0015445804790122277 -0.0019239450524641123 0
          -0.007451195401247392 -0.0010319452826690167 0 0.06556870624191938 0.04188087065059392 0
          <InformationKey name="L2_NORM_RANGE" location="vtkDataArray" length="2">
            <Value index="0">
              0
            </Value>
            <Value index="1">
              0.22099226276
            </Value>
          </InformationKey>
        </DataArray>
        <DataArray type="Float64" Name="Velocity_SGS2" NumberOfComponents="3" format="ascii" RangeMin="0" RangeMax="0.2927627267951808">
          6.94898792904416e-310 4.6639972860894e-310 0 0.18290761786698412 -0.22859312659565026 0
          -0.12959723050563166 0.07793257348984063 0 0.18258004724938115 0.20944571701250006 0
          -0.023133437842715605 -0.08532991676651093 0 -0.050097885341022365 0.058159816108896915 0
          0.13847150890181786 -0.17105498925919288 0 0.10145372489726036 -0.08306237183400737 0
          0.1575166167086747 0.1600561280146624 0 0.027123713039533245 0.07029613825971599 0
          -0.020653482297359194 0.07670721727249036 0 -0.10894081118068819 -0.03838396586067465 0
          -0.10588803983302561 0.0492355390160888 0 -0.04637612088352431 -0.09357859669773089 0
          -0.08585933975715963 0.042717386454124893 0 -0.00446341879096053 0.0737830027069292 0
          0.07450854585773602 -0.15165828346990184 0 -0.01621147007356527 0.12223949441614533 0
          0.011524355152075443 -0.07229921781891914 0 -0.09144125409981418 -0.03877591368995235 0
          0.045997198376850915 -0.11879510792032219 0 0.055855570106558804 0.02870821972897964 0
          0.04160817615939098 -0.011691134215141506 0 -0.10238527021455111 -0.03319622298212638 0
          0.0048287853122945396 0.028083683239347124 0 -0.055830913211777744 -0.0019057231362843603 0
          -0.071328053593719 -0.030715883140583038 0 -0.016768304703440696 0.041667128288928455 0
          0.025356443468909057 -0.03550609387639915 0 -0.009485794594203938 -0.037914286625837255 0
          -0.020426908313182543 -0.015214783057449468 0 -0.029659181218601824 -0.002362946520041406 0
          -0.004298604811494428 0.033393517407816035 0 -0.015881247832284683 0.03086028996525072 0
          0.02834200239718903 0.04451977044617575 0 0.04266301123604042 0.006144618916242425 0
          -0.003207022188530341 -0.014133915622328706 0 -0.04091867264762352 0.07425581333334282 0
          0.025592771494560962 -0.01544534957198674 0 -0.018550647145032753 0.026580861222680427 0
          -0.011866865695331127 -0.007834899571648528 0 -0.010798070538806841 0.019148754269150116 0
          0.007903709123250242 -0.011930457530763838 0 0.009559098267376187 -0.012596580573142658 0
          -0.02822468555236147 0.002819790256732604 0 0.019519922704500446 0.0014004867337293419 0
          0.01190319531742623 -0.017573610614684824 0 0.00960765221742714 0.00081836284823732 0
          0.016654488675589198 0.010478205429779472 0 0.022608975866550356 -0.012244458619330757 0
          -0.05735348674501917 -0.007463572816380361 0 0.01573360810465131 -0.02115726245474183 0
          0.06494962343730926 -0.0010782456558284283 0 -0.05580116988890821 -0.0295797270452922 0
          0.007103037666191806 -0.0004596612818611977 0 -0.028481663469593826 0.0019584106780192196 0
          0.0018078411607553445 0.010512926174846046 0 0.02001010064588634 -0.012680561539200205 0
          -0.028082357246216466 -0.007259176824897754 0 -0.029825491318523648 0.014377156715541538 0