<?xml version="1.0"?>
<VTKFile type="UnstructuredGrid" version="0.1" byte_order="LittleEndian" header_type="UInt32" compressor="vtkZLibDataCompressor">
  <UnstructuredGrid>
    <Piece NumberOfPoints="65" NumberOfCells="101">
      <PointData>
        <DataArray type="Float64" Name="Velocity" NumberOfComponents="3" format="ascii" RangeMin="0" RangeMax="3.225833271922494">
          3.225833271922494 0 0 3.0152919173966692 0 0
          3.1824202072322034 -0.01162227714859626 0 2.8619890271523944 -0.00824688176338445 0
          2.9444118794223924 0.000840880497015993 0 2.760739076998327 0 0
          3.2039817715217502 0.018442702408882516 0 2.72530884004727 -0.0035996630947801866 0
          2.6140041246680346 -0.012086550198927563 0 2.793005202995084 0.013401073827440824 0
          2.5397429542885277 0 0 3.2162781798946645 0 0
          2.9893305385494706 0 0 2.5109840080779993 0.0021684597004215656 0
          2.577755481987861 0.002568699705309818 0 2.369962266927425 -0.01406396974186147 0
          2.758737049913008 0 0 2.2996493804117986 0 0
          2.2906781846182014 -0.0062860904980046595 0 2.521694204206627 0 0
          2.37345090958857 0.008205439469660014 0 2.163430658142911 -0.01813491094578501 0
          2.071653137812831 0 0 2.297890750592847 0 0
          2.1543411945037327 0.0006948492456735345 0 2.080396284224472 -0.000826404558521121 0
          1.944646408968783 -0.006968607525482007 0 2.0620791892934474 0 0
          1.9471143282538002 -0.0007713622243660234 0 1.8346811868732367 0 0
          1.896082529456649 -0.011735681898733544 0 1.7384288528090792 0.012057886183425737 0
          1.8098731354910242 0 0 1.7426682583164173 -0.027621563867091137 0
          1.8697982169204401 -0.022916100885741253 0 1.491484681126046 0 0
          1.5922948154122842 0.18589418576307448 0 1.766317136907297 0.011604034076240222 0
          1.5873613870507661 -0.2330025349648469 0 1.4019743648707461 -0.03857693102172677 0
          1.4961281649827285 0 0 1.2565117570463329 0.026626152394544578 0
          1.5246667492652577 -0.05514536039882412 0 1.0078996479747744 0.015352758489470375 0
          0 0 0 0 0 0
          0.9689005053764248 0 0 1.329710112421445 -0.03063478625804006 0
          1.069514684451768 -0.18292341695498404 0 0 0 0
          0.7867792336582013 -0.13696493802355736 0 0 0 0
          1.0241172764622668 -0.12308342849557796 0 0 0 0
          0.8896428907142209 0.054563010384574895 0 0.7897676096810997 0.10218544168277505 0
          0.6773119992012511 -0.08523048400035016 0 1.0900646364625928 0 0
          1.0586352039999696 0.01711363401620014 0 0.7448854240588716 0.1676160250746399 0
          0.9848587120733114 0.1384760950411077 0 1 0 0
          1 0 0 1 0 0
          1 0 0
          <InformationKey name="L2_NORM_RANGE" location="vtkDataArray" length="2">
            <Value index="0">
              0
            </Value>
            <Value index="1">
              3.2258332719
            </Value>
          </InformationKey>
        </DataArray>
        <DataArray type="Float64" Name="Pressure" format="ascii" RangeMin="0.15034623652409707" RangeMax="172.6749607217998">
          0.160388704448307 28.375136919941717 0.36958994219089547 40.61776213380939 32.026117301415745 54.577979314181206
          0.3053743543642131 56.63916676190578 67.11170959734346 48.16624929863876 78.53977663419471 0.15034623652409707
          28.464391042148247 78.86002657568964 71.209578542574 91.74861488074018 54.492928883085085 100.48405086751775
          99.78749591838033 78.42801323599116 92.073636012814 111.119905716551 120.33034775492989 100.34941364161273
          111.61457245287286 118.44293608972791 128.86302270634 120.16795963114673 128.9478413365618 138.10372463182614
          135.4151950444279 144.25307287963528 137.90154004984925 143.96297630728722 149.34629359707955 153.69492705985658
          156.67987193279805 158.95455171612326 156.3774497760985 162.33663840472838 153.34521598491028 162.18863991630732
          162.30152351067636 163.7914259006238 163.56697254650956 165.07944120724608 166.1818823451527 161.25201615947947
          164.06285786330437 165.5891997611634 166.31059499214635 166.9280970340892 168.34219204264568 166.91269704202554
          165.84583400959605 166.8247065235264 168.5579967120749 166.08014410307726 168.60842915194272 168.70773951861213
          170.358115520106 171.89001151914076 170.7540896656041 171.08380128136386 172.6749607217998
        </DataArray>
        <DataArray type="Float64" Name="Temperature" format="ascii" RangeMin="285.50562537474974" RangeMax="600.0000000000001">
          300 299.99999999999994 296.2825872493594 296.29818512106084 296.4822127789769 300
          296.134087540648 297.11531436405056 296.2207121196308 296.39367467797655 300 300
          300 297.231577782793 295.94143769984635 296.1663606017192 299.99999999999994 300
          297.33060331193025 300.0000000000001 296.26569192164015 295.9102094242255 300 300.00000000000006
          295.98077457295614 297.2977055192876 296.1399272966861 300 296.16278450945873 300
          297.27629411045126 295.55241316522734 299.99999999999994 295.60518939865756 301.40592637853734 300
          292.02058289906324 356.7194603652904 293.9089030321132 385.23394970954547 300 296.3355371133808
          393.960803489086 294.2726950137872 600 600 300.00000000000006 296.1831300012788
          299.3135998811927 599.9999999999999 291.67238362835286 600.0000000000001 295.45395450084044 600
          297.88239167774947 285.50562537474974 292.8204810097836 300.00000000000006 290.79855762740715 298.1559137758921
          295.79283007174985 300 299.99999999999994 300 300.00000000000006
        </DataArray>
        <DataArray type="Float64" Name="Density" format="ascii" RangeMin="0.5635171653779453" RangeMax="1.184250918989668">
          1.1270343307558908 1.127034330755891 1.1411750598161359 1.1411149855292664 1.1404066910375614 1.1270343307558908
          1.1417473146530537 1.1379766807054792 1.1414134305713877 1.140747350948412 1.1270343307558908 1.1270343307558908
          1.1270343307558908 1.137531556199076 1.1424905611551768 1.1416228991700166 1.127034330755891 1.1270343307558908
          1.1371527029528639 1.1270343307558903 1.1412401383154234 1.1426111315478218 1.1270343307558908 1.1270343307558905
          1.1423387201908501 1.1372785357902193 1.1417247998714923 1.1270343307558908 1.1416366839837324 1.1270343307558908
          1.1373604485971704 1.1439943785461433 1.127034330755891 1.1437901341129253 1.1217772101870773 1.1270343307558908
          1.1578303689080536 0.9478325036725866 1.1503914843635223 0.8776752398943343 1.1270343307558908 1.1409711522293833
          0.8582333476638215 1.1489693232018219 0.5635171653779454 0.5635171653779454 1.1270343307558905 1.1415582623672975
          1.1296188992447191 0.5635171653779455 1.15921258989533 0.5635171653779453 1.1443756093838489 0.5635171653779454
          1.1350462755533952 1.184250918989668 1.154667522096825 1.1270343307558905 1.1626959293930865 1.1340050074636678
          1.143064553473972 1.1270343307558908 1.127034330755891 1.1270343307558908 1.1270343307558905
        </DataArray>
        <DataArray type="Float64" Name="stream" format="ascii" RangeMin="-7.322662295342531" RangeMax="0.057123652122292125">
          0.04436815877418532 0.057123652122292125 -2.3405279926919618 -1.6964853532119388 -3.609413578715871 0.020249114932544554
          -4.767870589642144 -3.0669236287785373 -1.271166602480123 -5.063573297111364 0.022057909770030044 -7.322662295342531
          -6.9125709329382214 -2.786110757314058 -4.365470913091239 -1.199364852680857 -6.297006309517447 0.022169162796685276
          -2.6993115717804597 -5.793874747791963 -4.42136099539023 -1.397622021528294 0.019698051402898598 -5.304544342405261
          -3.792149560603176 -2.4373412568491184 -1.1177726889351747 -4.793763227772007 -3.632008593387619 0.017746157524548556
          -2.236155298358201 -0.8737273196435115 -4.335556431092133 -3.1516901160067357 -1.9293859211347628 0.005205559528579179
          -0.9666672515523195 -1.5400133683031896 -2.3181503658783837 -1.1180993488167392 -3.478977609501697 -0.49394117313669295
          -1.6374274936919289 -0.8899670287649197 -1.3123819642736587 -1.0728508000816932 -0.04719169191248496 -2.529190325762447
          -1.910662449173781 -1.5411131639944637 -0.9429178681246511 -1.16421101578138 -0.6286980727355787 -1.4734299455891164
          -2.1956101589709154 -1.7515493739728756 -0.993823861641434 -2.8014333769141806 -1.271226897474813 -1.619336610561063
          -2.1138565448976436 -0.09644008352941655 -0.9235947039458282 -1.7189225225887428 -2.645422677615109
        </DataArray>
      </PointData>
      <CellData>
        <DataArray type="UInt8" Name="vtkGhostType" format="ascii" RangeMin="0" RangeMax="0">
          0 0 0 0 0 0
          0 0 0 0 0 0
          0 0 0 0 0 0
          0 0 0 0 0 0
          0 0 0 0 0 0
          0 0 0 0 0 0
          0 0 0 0 0 0
          0 0 0 0 0 0
          0 0 0 0 0 0
          0 0 0 0 0 0
          0 0 0 0 0 0
          0 0 0 0 0 0
          0 0 0 0 0 0
          0 0 0 0 0 0
          0 0 0 0 0 0
          0 0 0 0 0 0
          0 0 0 0 0
        </DataArray>
      </CellData>
      <Points>
        <DataArray type="Float32" Name="Points" NumberOfComponents="3" format="ascii" RangeMin="0.3386548938008204" RangeMax="7.102112369882704">
          7 1.2000000476837158 0 6.222221851348877 1.2000000476837158 0
          7 0.4000000059604645 0 5.866583824157715 0.5834335088729858 0
          6.113818168640137 -0.06796818971633911 0 5.444444179534912 1.2000000476837158 0
          7 -0.4000000059604645 0 5.374982833862305 0.05133577063679695 0
          5.044035911560059 0.717233419418335 0 5.636797904968262 -0.6446514129638672 0
          4.6666669845581055 1.2000000476837158 0 7 -1.2000000476837158 0
          6.222221851348877 -1.2000000476837158 0 4.6517181396484375 0.08554346114397049 0
          4.9071431159973145 -0.5013023018836975 0 4.20501708984375 0.6844208240509033 0
          5.444444179534912 -1.2000000476837158 0 3.8888890743255615 1.2000000476837158 0
          3.908618927001953 0.008085579611361027 0 4.6666669845581055 -1.2000000476837158 0
          4.190336227416992 -0.680732011795044 0 3.4767589569091797 0.5622708797454834 0
          3.1111109256744385 1.2000000476837158 0 3.8888890743255615 -1.2000000476837158 0
          3.455962896347046 -0.5601919889450073 0 3.1824440956115723 0.030600570142269135 0
          2.74373197555542 0.6176614165306091 0 3.1111109256744385 -1.2000000476837158 0
          2.7368290424346924 -0.6656588912010193 0 2.3333330154418945 1.2000000476837158 0
          2.4499940872192383 0.0055718207731842995 0 2.03562593460083 0.6959654092788696 0
          2.3333330154418945 -1.2000000476837158 0 2.0443150997161865 -0.5891656875610352 0
          1.7839189767837524 -0.0063413470052182674 0 1.555556058883667 1.2000000476837158 0
          1.4043580293655396 0.4893423020839691 0 1.3220579624176025 -0.01946846954524517 0
          1.4062609672546387 -0.46856579184532166 0 1.1284430027008057 0.23862800002098083 0
          1.555556058883667 -1.2000000476837158 0 1.053400993347168 0.8138331770896912 0
          1.1284430027008057 -0.23862800002098083 0 0.9798405170440674 0.4904909133911133 0
          1 0 0 0.861803412437439 0.19021129608154297 0
          0.7777777910232544 1.2000000476837158 0 1.0878779888153076 -0.8199741244316101 0
          0.9428092837333679 -0.5025230050086975 0 0.861803412437439 -0.19021129608154297 0
          0.6745458245277405 0.38610830903053284 0 0.638196587562561 0.1175571009516716 0
          0.5494737029075623 0.6893327832221985 0 0.638196587562561 -0.1175571009516716 0
          0.756988525390625 -0.7287815809249878 0 0.6448535919189453 -0.4298931956291199 0
          0.3890891969203949 0.32260850071907043 0 0.7777777910232544 -1.2000000476837158 0
          0.33861419558525085 0.005250108893960714 0 0.366202712059021 -0.29110780358314514 0
          0.30312108993530273 -0.749178409576416 0 0 1.2000000476837158 0
          0 0.4000000059604645 0 0 -0.4000000059604645 0
          0 -1.2000000476837158 0
          <InformationKey name="L2_NORM_RANGE" location="vtkDataArray" length="2">
            <Value index="0">
              0.3386548938
            </Value>
            <Value index="1">
              7.1021123699
            </Value>
          </InformationKey>
        </DataArray>
      </Points>
      <Cells>
        <DataArray type="Int64" Name="connectivity" format="ascii" RangeMin="0" RangeMax="64">
          44 49 42 53 51 58
          45 44 39 49 53 55
          51 45 50 42 49 48
          39 44 37 50 45 43
          58 51 56 55 53 59
          44 42 37 45 39 43
          51 50 56 53 58 59
          49 55 48 37 42 38
          56 50 52 48 55 54
          43 39 36 59 58 63
          42 48 38 50 43 52
          55 60 54 39 37 36
          58 56 62 37 38 34
          56 52 62 48 54 47
          43 36 41 59 63 60
          34 38 33 47 54 57
          47 57 40 57 60 64
          41 36 35 37 34 36
          48 47 38 43 41 52
          60 63 64 59 60 55
          54 60 57 41 35 46
          41 46 52 47 40 38
          62 52 61 33 38 40
          34 33 30 63 58 62
          52 46 61 35 36 31
          30 33 28 34 30 31
          36 34 31 35 31 29
          29 31 26 26 31 30
          26 30 25 29 26 22
          22 26 21 28 33 32
          28 32 27 28 27 24
          24 27 23 28 24 25
          25 24 18 18 24 20
          25 18 21 25 21 26
          21 18 15 30 28 25
          22 21 17 20 24 23
          20 23 19 20 19 14
          15 18 13 21 15 17
          17 15 10 10 15 8
          14 19 16 20 14 13
          13 14 7 7 14 9
          13 7 8 9 14 16
          9 16 12 7 9 4
          8 7 3 13 8 15
          10 8 5 5 8 3
          5 3 1 1 3 2
          18 20 13 4 9 12
          7 4 3 32 33 40
          12 11 6 0 1 2
          6 2 4 3 4 2
          6 4 12
        </DataArray>
        <DataArray type="Int64" Name="offsets" format="ascii" RangeMin="3" RangeMax="303">
          3 6 9 12 15 18
          21 24 27 30 33 36
          39 42 45 48 51 54
          57 60 63 66 69 72
          75 78 81 84 87 90
          93 96 99 102 105 108
          111 114 117 120 123 126
          129 132 135 138 141 144
          147 150 153 156 159 162
          165 168 171 174 177 180
          183 186 189 192 195 198
          201 204 207 210 213 216
          219 222 225 228 231 234
          237 240 243 246 249 252
          255 258 261 264 267 270
          273 276 279 282 285 288
          291 294 297 300 303
        </DataArray>
        <DataArray type="UInt8" Name="types" format="ascii" RangeMin="5" RangeMax="5">
          5 5 5 5 5 5
          5 5 5 5 5 5
          5 5 5 5 5 5
          5 5 5 5 5 5
          5 5 5 5 5 5
          5 5 5 5 5 5
          5 5 5 5 5 5
          5 5 5 5 5 5
          5 5 5 5 5 5
          5 5 5 5 5 5
          5 5 5 5 5 5
          5 5 5 5 5 5
          5 5 5 5 5 5
          5 5 5 5 5 5
          5 5 5 5 5 5
          5 5 5 5 5 5
          5 5 5 5 5
        </DataArray>
      </Cells>
    </Piece>
  </UnstructuredGrid>
</VTKFile>
