<?xml version="1.0"?>
<VTKFile type="UnstructuredGrid" version="0.1" byte_order="LittleEndian" header_type="UInt32" compressor="vtkZLibDataCompressor">
  <UnstructuredGrid>
    <Piece NumberOfPoints="65" NumberOfCells="101">
      <PointData>
        <DataArray type="Float64" Name="Velocity" NumberOfComponents="3" format="ascii" RangeMin="0" RangeMax="4.027209801844257">
          4.027209801844257 0 0 3.7113406548899865 0 0
          3.9453830088638884 -0.018836155182707037 0 3.5057141051763896 -0.012759729784272505 0
          3.615882983274468 0.008351174176715475 0 3.373676391796427 0 0
          3.981747712892307 0.02607776418348795 0 3.3216467038575055 0.0004317185504379012 0
          3.1737728398622833 -0.015332219284806214 0 3.4177642127034797 0.02407204362111892 0
          3.0690616093832706 0 0 4.011604337515289 0 0
          3.683093773985218 0 0 3.0333677965460124 0.004098603718659846 0
          3.1248768518642374 0.016519551635528207 0 2.8397653546754094 -0.017479427095700314 0
          3.370876670519505 0 0 2.749914175619494 0 0
          2.7345453953330203 -0.0025948586165225884 0 3.050610220638964 0 0
          2.8440458514161175 0.016557910188715552 0 2.551713571259854 -0.015907938237840202 0
          2.4256494265188966 0 0 2.7439912615125963 0 0
          2.5464479310832853 0.009524860842614113 0 2.4632544826353056 0.004664334530528141 0
          2.248353352165241 0.00704058229262472 0 2.4198346038597593 0 0
          2.256573307224431 -0.0022137415694534063 0 2.089809727177796 0 0
          2.2133935328314136 -0.005822342944667026 0 1.9885200753376617 0.045315205025573624 0
          2.0947781517685975 0 0 2.005762938635666 -0.039802789203357336 0
          2.0776664407907104 0.006653530745973912 0 1.71469464468177 0 0
          1.822531481110774 0.08050265244843785 0 1.830725446830538 0.0037237980175762186 0
          1.8272193142833748 -0.11669898678383522 0 1.4900302287843186 -0.12276837281134179 0
          1.7338016213607013 0 0 1.508744045908717 -0.012761689002353471 0
          1.6422798254886004 0.003225521649148466 0 1.4689434483846497 -0.03440894819242368 0
          0 0 0 0 0 0
          1.2592853154916703 0 0 1.4941688610832689 -0.00718363268828881 0
          1.4938835947198257 -0.08188095402849627 0 0 0 0
          1.171896538350424 0.06430676952765524 0 0 0 0
          1.2863932487058465 -0.013203426407917052 0 0 0 0
          1.2263989235490742 0.035847773786257586 0 1.1310392985637971 -0.00907260026890766 0
          0.9400363498469808 0.09392747801376627 0 1.3424786789720144 0 0
          1.0850608559718005 0.003478897440824802 0 0.9525286600511169 0.0191151335017663 0
          1.164893839914404 0.016593714822087394 0 1 0 0
          1 0 0 1 0 0
          1 0 0
          <InformationKey name="L2_NORM_RANGE" location="vtkDataArray" length="2">
            <Value index="0">
              0
            </Value>
            <Value index="1">
              4.0272098018
            </Value>
          </InformationKey>
        </DataArray>
        <DataArray type="Float64" Name="Pressure" format="ascii" RangeMin="0.05782892559799535" RangeMax="39.931580741413825">
          0.07590888921536276 7.475028543204441 0.14167276834876574 10.536876959492758 8.340786113577543 14.05883006135534
          0.09695409507211394 14.508526679823298 17.060448508436764 12.491379486104933 19.780216153444833 0.05782892559799535
          7.580904022104877 19.847858864909266 18.073502846508887 22.79937827392527 14.110244885901126 24.757169338861445
          24.625239655101947 19.857274273413704 22.93642433030243 27.01778021913705 28.93999798841731 24.82561854037782
          27.1943995662618 28.58348572300062 30.580283494948013 29.020912518151288 30.70611458433239 32.234565785881394
          31.88085139574858 33.28106575596807 32.39091013278099 33.417513890002354 33.94988982696934 34.95089889162857
          35.11892446043981 35.07885905088677 35.28476499186671 36.20246626025956 35.31541232698834 36.65893671394568
          36.16610960997759 37.00613660782944 36.718873727860995 37.640677712677025 37.75482292983497 36.723021336001395
          37.14296291236573 38.02451725016171 38.34269275376842 39.160135779008826 38.688883956635706 39.18123486361002
          38.04251261990838 38.797378194780144 39.52294990718007 37.882669754998915 39.694066829534975 39.620920682806045
          39.314344331798665 39.576152192786104 39.91909605272975 39.931580741413825 39.62540303479114
        </DataArray>
        <DataArray type="Float64" Name="Temperature" format="ascii" RangeMin="272.7364091148683" RangeMax="600.0000000000001">
          300 299.99999999999994 291.0450046372022 291.28256222388933 291.5263089120597 300
          291.54562104738966 293.0414240838368 291.17102992646164 291.69623670784546 300 300
          300 293.4649817382159 290.46233482413476 291.01164881956265 300 300
          293.55838292979513 300.00000000000006 291.33425584948884 290.4329588514356 300 300
          290.509244121995 293.75643857117274 290.38624506624967 299.99999999999994 290.5894320024036 300
          295.8744641668641 285.63620407248044 300 287.373822207756 316.393831735265 300
          292.7600046149314 422.39917115299005 296.233254136596 430.6379212675027 300 293.00390150541926
          453.07234339459666 284.2406137514848 600 600 300 293.88019153013414
          289.49741474085545 599.9999999999999 286.71064579161026 600.0000000000001 290.83970902463193 600.0000000000001
          292.94596247689583 272.7364091148683 282.5319402703991 299.99999999999994 286.88015404668215 292.2281662581005
          292.3060538301752 300.00000000000006 299.99999999999994 300.00000000000006 300
        </DataArray>
        <DataArray type="Float64" Name="Density" format="ascii" RangeMin="0.5317104392219943" RangeMax="1.1697237804389824">
          1.063420878443989 1.0634208784439891 1.0961406602077712 1.0952466948158148 1.09433095326375 1.063420878443989
          1.0942584642056419 1.0886729223712954 1.0956662261824954 1.093693450192586 1.063420878443989 1.063420878443989
          1.063420878443989 1.087101642054801 1.0983395273137788 1.096266300085479 1.063420878443989 1.063420878443989
          1.086755759958973 1.0634208784439887 1.0950523569669552 1.0984506193609636 1.063420878443989 1.063420878443989
          1.0981621755183337 1.0860230505412445 1.0986273246531115 1.0634208784439891 1.0978591386990215 1.063420878443989
          1.078248724274075 1.1168971544386002 1.063420878443989 1.1101437879145362 1.0083201109942443 1.063420878443989
          1.0897194237744785 0.755271992277768 1.076942777619729 0.7408225048881022 1.063420878443989 1.0888123396790201
          0.7041397873525586 1.1223809972917012 0.5317104392219945 0.5317104392219945 1.063420878443989 1.0855657261965685
          1.102000388565729 0.5317104392219946 1.1127116073850791 0.5317104392219943 1.0969143952285332 0.5317104392219943
          1.0890276856379537 1.1697237804389824 1.129168840973769 1.0634208784439891 1.1120541418884056 1.0917026500841391
          1.0914117561128087 1.0634208784439887 1.0634208784439891 1.0634208784439887 1.063420878443989
        </DataArray>
        <DataArray type="Float64" Name="stream" format="ascii" RangeMin="-9.039350366372606" RangeMax="0.07710399641117667">
          0.06683641616727787 0.07710399641117667 -2.872679331843275 -2.0711598399975646 -4.421365083979727 0.027771468837001063
          -5.864640802755376 -3.7314714106861153 -1.5437690580530337 -6.179874964462963 0.02895756613663969 -9.039350366372606
          -8.480549828086128 -3.3617076822979413 -5.284508964488516 -1.4335650573103627 -7.646276087108624 0.030937079178256388
          -3.2147576886845157 -6.961138074070274 -5.2924443613765915 -1.6537986394525979 0.02560248471753172 -6.296434917900624
          -4.4849646542300095 -2.8686899755976683 -1.3021023329363193 -5.604972338066113 -4.2290479624030235 0.009782403852720334
          -2.580309218636835 -1.003195158564725 -5.007038806069588 -3.630609743797096 -2.223746179771937 0.01032395151454027
          -1.1549944263164453 -1.8255188769584103 -2.7039006673479675 -1.3881613359099383 -4.044033295769547 -0.6005052079723636
          -1.9396751756973116 -1.1051224333485947 -1.5985829486075658 -1.3588798740958825 -0.04634490215110717 -2.990767914247587
          -2.267543056431603 -1.8226186461896674 -1.1753657068943346 -1.3943151810828343 -0.7476107499876478 -1.695175352393832
          -2.6038487937181873 -2.035319680765422 -1.1867651791002163 -3.345959244748953 -1.4437225621456051 -1.8458091299542336
          -2.474340717430889 -0.10689505035575686 -1.0356995456151608 -1.9312633166049593 -3.0208094919207826
        </DataArray>
      </PointData>
      <CellData>
        <DataArray type="UInt8" Name="vtkGhostType" format="ascii" RangeMin="0" RangeMax="0">
          0 0 0 0 0 0
          0 0 0 0 0 0
          0 0 0 0 0 0
          0 0 0 0 0 0
          0 0 0 0 0 0
          0 0 0 0 0 0
          0 0 0 0 0 0
          0 0 0 0 0 0
          0 0 0 0 0 0
          0 0 0 0 0 0
          0 0 0 0 0 0
          0 0 0 0 0 0
          0 0 0 0 0 0
          0 0 0 0 0 0
          0 0 0 0 0 0
          0 0 0 0 0 0
          0 0 0 0 0
        </DataArray>
      </CellData>
      <Points>
        <DataArray type="Float32" Name="Points" NumberOfComponents="3" format="ascii" RangeMin="0.3386548938008204" RangeMax="7.102112369882704">
          7 1.2000000476837158 0 6.222221851348877 1.2000000476837158 0
          7 0.4000000059604645 0 5.866583824157715 0.5834335088729858 0
          6.113818168640137 -0.06796818971633911 0 5.444444179534912 1.2000000476837158 0
          7 -0.4000000059604645 0 5.374982833862305 0.05133577063679695 0
          5.044035911560059 0.717233419418335 0 5.636797904968262 -0.6446514129638672 0
          4.6666669845581055 1.2000000476837158 0 7 -1.2000000476837158 0
          6.222221851348877 -1.2000000476837158 0 4.6517181396484375 0.08554346114397049 0
          4.9071431159973145 -0.5013023018836975 0 4.20501708984375 0.6844208240509033 0
          5.444444179534912 -1.2000000476837158 0 3.8888890743255615 1.2000000476837158 0
          3.908618927001953 0.008085579611361027 0 4.6666669845581055 -1.2000000476837158 0
          4.190336227416992 -0.680732011795044 0 3.4767589569091797 0.5622708797454834 0
          3.1111109256744385 1.2000000476837158 0 3.8888890743255615 -1.2000000476837158 0
          3.455962896347046 -0.5601919889450073 0 3.1824440956115723 0.030600570142269135 0
          2.74373197555542 0.6176614165306091 0 3.1111109256744385 -1.2000000476837158 0
          2.7368290424346924 -0.6656588912010193 0 2.3333330154418945 1.2000000476837158 0
          2.4499940872192383 0.0055718207731842995 0 2.03562593460083 0.6959654092788696 0
          2.3333330154418945 -1.2000000476837158 0 2.0443150997161865 -0.5891656875610352 0
          1.7839189767837524 -0.0063413470052182674 0 1.555556058883667 1.2000000476837158 0
          1.4043580293655396 0.4893423020839691 0 1.3220579624176025 -0.01946846954524517 0
          1.4062609672546387 -0.46856579184532166 0 1.1284430027008057 0.23862800002098083 0
          1.555556058883667 -1.2000000476837158 0 1.053400993347168 0.8138331770896912 0
          1.1284430027008057 -0.23862800002098083 0 0.9798405170440674 0.4904909133911133 0
          1 0 0 0.861803412437439 0.19021129608154297 0
          0.7777777910232544 1.2000000476837158 0 1.0878779888153076 -0.8199741244316101 0
          0.9428092837333679 -0.5025230050086975 0 0.861803412437439 -0.19021129608154297 0
          0.6745458245277405 0.38610830903053284 0 0.638196587562561 0.1175571009516716 0
          0.5494737029075623 0.6893327832221985 0 0.638196587562561 -0.1175571009516716 0
          0.756988525390625 -0.7287815809249878 0 0.6448535919189453 -0.4298931956291199 0
          0.3890891969203949 0.32260850071907043 0 0.7777777910232544 -1.2000000476837158 0
          0.33861419558525085 0.005250108893960714 0 0.366202712059021 -0.29110780358314514 0
          0.30312108993530273 -0.749178409576416 0 0 1.2000000476837158 0
          0 0.4000000059604645 0 0 -0.4000000059604645 0
          0 -1.2000000476837158 0
          <InformationKey name="L2_NORM_RANGE" location="vtkDataArray" length="2">
            <Value index="0">
              0.3386548938
            </Value>
            <Value index="1">
              7.1021123699
            </Value>
          </InformationKey>
        </DataArray>
      </Points>
      <Cells>
        <DataArray type="Int64" Name="connectivity" format="ascii" RangeMin="0" RangeMax="64">
          44 49 42 53 51 58
          45 44 39 49 53 55
          51 45 50 42 49 48
          39 44 37 50 45 43
          58 51 56 55 53 59
          44 42 37 45 39 43
          51 50 56 53 58 59
          49 55 48 37 42 38
          56 50 52 48 55 54
          43 39 36 59 58 63
          42 48 38 50 43 52
          55 60 54 39 37 36
          58 56 62 37 38 34
          56 52 62 48 54 47
          43 36 41 59 63 60
          34 38 33 47 54 57
          47 57 40 57 60 64
          41 36 35 37 34 36
          48 47 38 43 41 52
          60 63 64 59 60 55
          54 60 57 41 35 46
          41 46 52 47 40 38
          62 52 61 33 38 40
          34 33 30 63 58 62
          52 46 61 35 36 31
          30 33 28 34 30 31
          36 34 31 35 31 29
          29 31 26 26 31 30
          26 30 25 29 26 22
          22 26 21 28 33 32
          28 32 27 28 27 24
          24 27 23 28 24 25
          25 24 18 18 24 20
          25 18 21 25 21 26
          21 18 15 30 28 25
          22 21 17 20 24 23
          20 23 19 20 19 14
          15 18 13 21 15 17
          17 15 10 10 15 8
          14 19 16 20 14 13
          13 14 7 7 14 9
          13 7 8 9 14 16
          9 16 12 7 9 4
          8 7 3 13 8 15
          10 8 5 5 8 3
          5 3 1 1 3 2
          18 20 13 4 9 12
          7 4 3 32 33 40
          12 11 6 0 1 2
          6 2 4 3 4 2
          6 4 12
        </DataArray>
        <DataArray type="Int64" Name="offsets" format="ascii" RangeMin="3" RangeMax="303">
          3 6 9 12 15 18
          21 24 27 30 33 36
          39 42 45 48 51 54
          57 60 63 66 69 72
          75 78 81 84 87 90
          93 96 99 102 105 108
          111 114 117 120 123 126
          129 132 135 138 141 144
          147 150 153 156 159 162
          165 168 171 174 177 180
          183 186 189 192 195 198
          201 204 207 210 213 216
          219 222 225 228 231 234
          237 240 243 246 249 252
          255 258 261 264 267 270
          273 276 279 282 285 288
          291 294 297 300 303
        </DataArray>
        <DataArray type="UInt8" Name="types" format="ascii" RangeMin="5" RangeMax="5">
          5 5 5 5 5 5
          5 5 5 5 5 5
          5 5 5 5 5 5
          5 5 5 5 5 5
          5 5 5 5 5 5
          5 5 5 5 5 5
          5 5 5 5 5 5
          5 5 5 5 5 5
          5 5 5 5 5 5
          5 5 5 5 5 5
          5 5 5 5 5 5
          5 5 5 5 5 5
          5 5 5 5 5 5
          5 5 5 5 5 5
          5 5 5 5 5 5
          5 5 5 5 5 5
          5 5 5 5 5
        </DataArray>
      </Cells>
    </Piece>
  </UnstructuredGrid>
</VTKFile>
