<?xml version="1.0"?>
<VTKFile type="UnstructuredGrid" version="0.1" byte_order="LittleEndian" header_type="UInt32" compressor="vtkZLibDataCompressor">
  <UnstructuredGrid>
    <Piece NumberOfPoints="27" NumberOfCells="32">
      <PointData>
        <DataArray type="Float64" Name="Density" format="ascii" RangeMin="1" RangeMax="2.2955431722152966">
          1 1 1.7 1.2517296672916447 1 1.7000000000000002
          1.1138017039980204 1.43809504350579 1.3676127055434733 1.7000000000000002 1.6035158674934737 1.6585569187549694
          1.7000000000000002 1.7541712685093578 1.9326724071991261 1.7 1.9112682868343804 2.118551400036181
          1.6999999999999997 2.070606061074319 2.1900198367488115 1.7 2.205098121903513 2.2176259690326425
          1.7000000000000002 2.2955431722152966 2.2251475531790974
        </DataArray>
        <DataArray type="Float64" Name="Momentum" NumberOfComponents="3" format="ascii" RangeMin="2.8999999999999995" RangeMax="5.901847101907144">
          2.9 0 0 2.8999999999999995 0 0
          4.45281 -0.8607099999999999 0 3.434690697235552 -0.29748432951173914 0
          2.9 0 0 4.45281 -0.8607100000000001 0
          3.146942867631238 0 0 3.8380797303603744 -0.5071901462189361 0
          3.720390122046874 0 0 4.4528099999999995 -0.8607099999999999 0
          4.2131255068163185 -0.6147296352175826 0 4.366177933292951 0 0
          4.45281 -0.8607099999999999 0 4.569202783624957 -0.6636737095675584 0
          4.973389885857694 0 0 4.452809999999999 -0.8607100000000001 0
          4.945510430022711 -0.6225254090876949 0 5.425418896277684 0 0
          4.452809999999999 -0.86071 0 5.336694663872988 -0.49278472549172625 0
          5.6589484413010895 0 0 4.4528099999999995 -0.86071 0
          5.6838460950149 -0.3440986001634944 0 5.724226122317695 0 0
          4.45281 -0.8607099999999999 0 5.893088843121981 -0.32140799828409927 0
          5.69374528449611 -0.11971813278087617 0
          <InformationKey name="L2_NORM_RANGE" location="vtkDataArray" length="2">
            <Value index="0">
              2.9
            </Value>
            <Value index="1">
              5.9018471019
            </Value>
          </InformationKey>
        </DataArray>
        <DataArray type="Float64" Name="Energy" format="ascii" RangeMin="5.97846" RangeMax="13.530552666341364">
          5.97846 5.97846 9.850459752999999 7.311770794696485 5.97846 9.850459753
          6.563723727199535 8.343184903858191 7.981083793207821 9.850459752999999 9.28936076898132 9.621286665524213
          9.850459753 10.156468099979595 11.189443080509434 9.850459752999997 11.098200209250098 12.397959860271774
          9.850459752999999 12.107766730370269 12.9994393210482 9.850459753 13.016270815621457 13.149619064217536
          9.850459752999999 13.530552666341364 13.083607900872694
        </DataArray>
      </PointData>
      <CellData>
        <DataArray type="UInt8" Name="vtkGhostType" format="ascii" RangeMin="0" RangeMax="0">
          0 0 0 0 0 0
          0 0 0 0 0 0
          0 0 0 0 0 0
          0 0 0 0 0 0
          0 0 0 0 0 0
          0 0
        </DataArray>
        <DataArray type="Float64" Name="CORES" format="ascii" RangeMin="-3.0298731707317086" RangeMax="1.118164399452831">
          0.0914814170456616 -1.0515858629589157 -0.18795539115014798 -0.23800822221539086 -0.21021858543116645 0.1656898773386753
          -0.14689334867249704 0.3311669579076318 -0.03043952180635251 0.29024404598289655 0.0742982164579989 0.08526944854177507
          0.08048750824332525 -0.1529791700643086 -0.01933475809506239 -0.2244650780411096 0.07486547801760599 -3.0298731707317086
          -0.11257661494210436 1.118164399452831 -0.31090486125335254 0.6828108790202654 -0.41728060340756895 0.44512060427571765
          -0.4279644902825227 0.32434445223986796 -0.26356472813274223 0.376022460582017 0.05412966978772382 0.6000683030616085
          0.32088260327465035 0.8672805618732176
        </DataArray>
        <DataArray type="Float64" Name="MORES" NumberOfComponents="3" format="ascii" RangeMin="0.12976476723816072" RangeMax="9.186736572829362">
          0.398823498530169 -0.467550429677407 0 -2.613295387645147 1.6375126848501007 0
          -0.4595961648915569 -0.43767449578977696 0 -0.536387355057682 0.5506029037883807 0
          -0.5400319861100678 -0.16110635678412394 0 0.43214230183598107 -0.05440902339076856 0
          -0.3897583337743795 0.2009451796072136 0 0.8333957683382993 -0.11991520002610598 0
          -0.2566479619202001 0.3901157099513753 0 0.6903566961406075 -0.22318760803813892 0
          -0.04380962993537925 0.22077250812445562 0 0.07534409567258155 -0.457770736641155 0
          0.3841801980993672 -0.07615920041392693 0 -0.6036321653432728 -0.6944293347306907 0
          0.4162130854595674 0.39127531463097676 0 -0.4893957282865191 -0.32136935345911677 0
          0.38794489398345544 0.0020844453138657015 0 -7.940054956075821 4.620785231219513 0
          -0.27413231043562014 0.054767540321247365 0 2.844559691424565 -1.7567739309274497 0
          -0.8618830017832497 0.03642489975059668 0 1.7514456514570558 -1.0532182011840436 0
          -1.1552319919168448 0.14628472616355925 0 1.187259623218961 -0.5200807462471921 0
          -1.228828949634303 -0.0006805882924574014 0 0.9116958416043471 -0.1268793471292634 0
          -0.8771997169236488 -0.20693857576417996 0 1.0829672116584816 0.1584845785302523 0
          -0.09786812698370806 -0.08520988520749706 0 1.690653278335678 0.3542439929560678 0
          0.9036554329457284 0.7489775240051123 0 2.3879295026374523 0.49933092252187466 0
          <InformationKey name="L2_NORM_RANGE" location="vtkDataArray" length="2">
            <Value index="0">
              0.12976476724
            </Value>
            <Value index="1">
              9.1867365728
            </Value>
          </InformationKey>
        </DataArray>
        <DataArray type="Float64" Name="ENRES" format="ascii" RangeMin="-20.656459114151257" RangeMax="7.527869121214083">
          0.8437310322203834 -6.899553312983075 -1.3836459566804264 -1.6565728684063283 -1.517276797708163 1.0489600730615174
          -0.999514198426023 2.3669831990553774 -0.6867303450605977 1.9718302863499027 0.12127844529879893 0.3488496808876912
          1.339632787847495 -1.3780672336694089 1.245495075807599 -0.8606520438997063 0.7682591547950564 -20.656459114151257
          -0.7186510242973398 7.527869121214083 -2.170883332417267 4.643889927723535 -2.810122999383369 3.057553532130796
          -3.205536935493378 2.252342587629542 -2.5259560868943867 2.545421884215413 -0.5710898312673626 3.943640060153735
          2.266821028832519 5.618690193950771
        </DataArray>
      </CellData>
      <Points>
        <DataArray type="Float32" Name="Points" NumberOfComponents="3" format="ascii" RangeMin="0" RangeMax="4.2201894765504395">
          0 1 0 0 0.5 0
          0.512499988079071 1 0 0.512499988079071 0.5 0
          0 0 0 1.024999976158142 1 0
          0.512499988079071 0 0 1.024999976158142 0.5 0
          1.024999976158142 0 0 1.537500023841858 1 0
          1.537500023841858 0.5 0 1.537500023841858 0 0
          2.049999952316284 1 0 2.049999952316284 0.5 0
          2.049999952316284 0 0 2.5625 1 0
          2.5625 0.5 0 2.5625 0 0
          3.075000047683716 1 0 3.075000047683716 0.5 0
          3.075000047683716 0 0 3.5875000953674316 1 0
          3.5875000953674316 0.5 0 3.5875000953674316 0 0
          4.099999904632568 1 0 4.099999904632568 0.5 0
          4.099999904632568 0 0
          <InformationKey name="L2_NORM_RANGE" location="vtkDataArray" length="2">
            <Value index="0">
              0
            </Value>
            <Value index="1">
              4.2201894766
            </Value>
          </InformationKey>
        </DataArray>
      </Points>
      <Cells>
        <DataArray type="Int64" Name="connectivity" format="ascii" RangeMin="0" RangeMax="26">
          6 3 4 3 1 4
          8 7 6 7 3 6
          11 10 8 10 7 8
          14 13 11 13 10 11
          17 16 14 16 13 14
          20 19 17 19 16 17
          23 22 20 22 19 20
          26 25 23 25 22 23
          3 2 1 2 0 1
          7 5 3 5 2 3
          10 9 7 9 5 7
          13 12 10 12 9 10
          16 15 13 15 12 13
          19 18 16 18 15 16
          22 21 19 21 18 19
          25 24 22 24 21 22
        </DataArray>
        <DataArray type="Int64" Name="offsets" format="ascii" RangeMin="3" RangeMax="96">
          3 6 9 12 15 18
          21 24 27 30 33 36
          39 42 45 48 51 54
          57 60 63 66 69 72
          75 78 81 84 87 90
          93 96
        </DataArray>
        <DataArray type="UInt8" Name="types" format="ascii" RangeMin="5" RangeMax="5">
          5 5 5 5 5 5
          5 5 5 5 5 5
          5 5 5 5 5 5
          5 5 5 5 5 5
          5 5 5 5 5 5
          5 5
        </DataArray>
      </Cells>
    </Piece>
  </UnstructuredGrid>
</VTKFile>
