<?xml version="1.0"?>
<VTKFile type="UnstructuredGrid" version="0.1" byte_order="LittleEndian" header_type="UInt32" compressor="vtkZLibDataCompressor">
  <UnstructuredGrid>
    <Piece NumberOfPoints="50" NumberOfCells="69">
      <PointData>
        <DataArray type="Float64" Name="Velocity" NumberOfComponents="3" format="ascii" RangeMin="0" RangeMax="0.2695554444257145">
          -0.04798304019842939 0.24541120965627522 0 -0.02411879053919359 0.17983987242192437 0
          -0.04567103234107676 0.22438039253032313 0 -0.005688759370643893 0.09186407811652551 0
          -0.021776027030431085 0.1596550323569653 0 -0.04275163765729276 0.20309004497322214 0
          0 0 0 -0.0049237537694775835 0.07990132399254843 0
          -0.01959970025466211 0.14091627122376366 0 -0.039599503919274824 0.18222431374964168 0
          0 0 0 -0.004285669961594966 0.0692418598000857 0
          -0.017614361216013803 0.12366680172994976 0 -0.03642487895518964 0.16219374716333287 0
          0 0 0 -0.0037479642907209073 0.05973513914611221 0
          -0.015818183576905242 0.10787791265600905 0 -0.033339407812163234 0.14324011857123028 0
          0 0 0 -0.0032898350549444653 0.0512508617151326 0
          -0.014196446760683178 0.09348651012251867 0 -0.03039632860864416 0.12549688607762663 0
          0 0 0 -0.002894605392521832 0.04367757193955766 0
          -0.012728755862673555 0.08041474439720038 0 -0.02761557766644029 0.10902640023334989 0
          0 0 0 -0.0025487941736254214 0.036921278542342874 0
          -0.01139336569041775 0.06858125447893258 0 -0.024998489165480465 0.09384461377828819 0
          0 0 0 -0.0022415963324421214 0.030903482016203944 0
          -0.010169750301734575 0.05790663687859417 0 -0.022536895024464723 0.07993809864428325 0
          0 0 0 -0.0019646078416715044 0.02555867610547364 0
          -0.00903985385713362 0.048316331413462685 0 -0.02022019266211932 0.06727656091967592 0
          0 0 0 -0.0017107152780001596 0.02083533506093609 0
          -0.00798540431305511 0.03974767640191682 0 0 0 0
          -0.0066145096929494775 0.10529574995779531 0 0 0 0
          -0.026543678544048495 0.2012758487426996 0 -0.049025383822981605 0.26505970904789317 0
          -0.0014699179582822184 0.01670543029986836 0 -0.0069774377628990724 0.03216418958854096 0
          -0.018036539479819945 0.0558217366504928 0 0 0 0
          <InformationKey name="L2_NORM_RANGE" location="vtkDataArray" length="2">
            <Value index="0">
              0
            </Value>
            <Value index="1">
              0.26955544443
            </Value>
          </InformationKey>
        </DataArray>
        <DataArray type="Float64" Name="Pressure" format="ascii" RangeMin="64.35036577271335" RangeMax="69.49314493889361">
          65.24739142639184 66.01094319087018 65.98536118322751 67.06630425596065 66.72297590254954 66.59588136592016
          68.35065381351042 67.62540230466655 67.29122512796032 67.09995527888756 68.70052706830903 68.06162831647609
          67.74314503286998 67.51390857755275 68.96359385146599 68.40010165824135 68.10076818841789 67.85188664183984
          69.15824426714317 68.66045090210679 68.38188851390574 68.12595041305862 69.29831387551266 68.85794759261965
          68.6006158356969 68.3460900849714 69.39433155306897 69.00451291100073 68.76819431448844 68.520671197071
          69.45456875667236 69.10972726136002 68.89389735088356 68.65692831615516 69.48575896032831 69.18149477057086
          68.98544825206146 68.76072575542975 69.49314493889361 69.2258586793532 69.04831710742637 69.4800451297125
          66.35098330936596 67.88906430601541 65.1179062472603 64.35036577271335 69.24640065298927 69.08497738838373
          68.83517487769024 69.4493590151834
        </DataArray>
      </PointData>
      <CellData>
        <DataArray type="UInt8" Name="vtkGhostType" format="ascii" RangeMin="0" RangeMax="1">
          1 1 1 0 1 1
          0 0 0 0 0 0
          0 0 0 0 0 0
          0 0 0 0 0 0
          0 0 0 0 0 0
          0 0 0 0 0 0
          0 0 0 0 0 0
          0 0 0 0 0 0
          0 0 0 0 0 0
          0 0 0 0 0 0
          1 0 0 0 0 0
          0 0 0
        </DataArray>
      </CellData>
      <Points>
        <DataArray type="Float32" Name="Points" NumberOfComponents="3" format="ascii" RangeMin="0.2666666805744171" RangeMax="0.7401201263226397">
          0.10000000149011612 0.699999988079071 0 0.06666667014360428 0.6666666865348816 0
          0.10000000149011612 0.6666666865348816 0 0.03333333507180214 0.6333333253860474 0
          0.06666667014360428 0.6333333253860474 0 0.10000000149011612 0.6333333253860474 0
          0 0.6000000238418579 0 0.03333333507180214 0.6000000238418579 0
          0.06666667014360428 0.6000000238418579 0 0.10000000149011612 0.6000000238418579 0
          0 0.5666666626930237 0 0.03333333507180214 0.5666666626930237 0
          0.06666667014360428 0.5666666626930237 0 0.10000000149011612 0.5666666626930237 0
          0 0.5333333611488342 0 0.03333333507180214 0.5333333611488342 0
          0.06666667014360428 0.5333333611488342 0 0.10000000149011612 0.5333333611488342 0
          0 0.5 0 0.03333333507180214 0.5 0
          0.06666667014360428 0.5 0 0.10000000149011612 0.5 0
          0 0.46666666865348816 0 0.03333333507180214 0.46666666865348816 0
          0.06666667014360428 0.46666666865348816 0 0.10000000149011612 0.46666666865348816 0
          0 0.4333333373069763 0 0.03333333507180214 0.4333333373069763 0
          0.06666667014360428 0.4333333373069763 0 0.10000000149011612 0.4333333373069763 0
          0 0.4000000059604645 0 0.03333333507180214 0.4000000059604645 0
          0.06666667014360428 0.4000000059604645 0 0.10000000149011612 0.4000000059604645 0
          0 0.36666667461395264 0 0.03333333507180214 0.36666667461395264 0
          0.06666667014360428 0.36666667461395264 0 0.10000000149011612 0.36666667461395264 0
          0 0.3333333432674408 0 0.03333333507180214 0.3333333432674408 0
          0.06666667014360428 0.3333333432674408 0 0 0.30000001192092896 0
          0.03333333507180214 0.6666666865348816 0 0 0.6333333253860474 0
          0.06666667014360428 0.699999988079071 0 0.10000000149011612 0.7333333492279053 0
          0.03333333507180214 0.30000001192092896 0 0.06666667014360428 0.30000001192092896 0
          0.10000000149011612 0.3333333432674408 0 0 0.2666666805744171 0
          <InformationKey name="L2_NORM_RANGE" location="vtkDataArray" length="2">
            <Value index="0">
              0.26666668057
            </Value>
            <Value index="1">
              0.74012012632
            </Value>
          </InformationKey>
        </DataArray>
      </Points>
      <Cells>
        <DataArray type="Int64" Name="connectivity" format="ascii" RangeMin="0" RangeMax="49">
          3 42 43 1 42 3
          1 44 42 2 0 1
          0 44 1 0 45 44
          46 39 41 39 38 41
          47 40 46 40 39 46
          48 40 47 39 35 38
          35 34 38 40 36 39
          36 35 39 48 37 40
          37 36 40 35 31 34
          31 30 34 36 32 35
          32 31 35 37 33 36
          33 32 36 31 27 30
          27 26 30 32 28 31
          28 27 31 33 29 32
          29 28 32 27 23 26
          23 22 26 28 24 27
          24 23 27 29 25 28
          25 24 28 23 19 22
          19 18 22 24 20 23
          20 19 23 25 21 24
          21 20 24 19 15 18
          15 14 18 20 16 19
          16 15 19 21 17 20
          17 16 20 15 11 14
          11 10 14 16 12 15
          12 11 15 17 13 16
          13 12 16 11 7 10
          7 6 10 12 8 11
          8 7 11 13 9 12
          9 8 12 7 3 6
          3 43 6 8 4 7
          4 3 7 9 5 8
          5 4 8 4 1 3
          5 2 4 2 1 4
          46 41 49
        </DataArray>
        <DataArray type="Int64" Name="offsets" format="ascii" RangeMin="3" RangeMax="207">
          3 6 9 12 15 18
          21 24 27 30 33 36
          39 42 45 48 51 54
          57 60 63 66 69 72
          75 78 81 84 87 90
          93 96 99 102 105 108
          111 114 117 120 123 126
          129 132 135 138 141 144
          147 150 153 156 159 162
          165 168 171 174 177 180
          183 186 189 192 195 198
          201 204 207
        </DataArray>
        <DataArray type="UInt8" Name="types" format="ascii" RangeMin="5" RangeMax="5">
          5 5 5 5 5 5
          5 5 5 5 5 5
          5 5 5 5 5 5
          5 5 5 5 5 5
          5 5 5 5 5 5
          5 5 5 5 5 5
          5 5 5 5 5 5
          5 5 5 5 5 5
          5 5 5 5 5 5
          5 5 5 5 5 5
          5 5 5 5 5 5
          5 5 5
        </DataArray>
      </Cells>
    </Piece>
  </UnstructuredGrid>
</VTKFile>
