<?xml version="1.0"?>
<VTKFile type="UnstructuredGrid" version="0.1" byte_order="LittleEndian" header_type="UInt32" compressor="vtkZLibDataCompressor">
  <UnstructuredGrid>
    <Piece NumberOfPoints="46" NumberOfCells="63">
      <PointData>
        <DataArray type="Float64" Name="Velocity" NumberOfComponents="3" format="ascii" RangeMin="0" RangeMax="1">
          0.9999999999999998 0 0 0 0 0
          1 0 0 0.13888486031636585 0.11081378133162954 0
          0 0 0 0.9999999999999998 0 0
          0.28288003968469944 0.10474101957938936 0 -0.00016605062804402534 0.19983664387510605 0
          0.06894310717453117 0.20476794818818894 0 0 0 0
          1 0 0 -0.02586297120818145 0.22762779376326195 0
          0.39544574761297063 0.05375376975250154 0 0.17214419078273435 0.1480202735935449 0
          -0.0007765675393648567 0.26515194666662445 0 0 0 0
          -0.021832658085217244 0.21868134431279598 0 0.058732692198487556 0.2285885392105562 0
          -0.02197713202751953 0.28350295243149726 0 0 0 0
          0.0017084257758578547 0.27304063078969504 0 -0.016105965770207196 0.19661393819317938 0
          -0.028681499483870904 0.2780925382957633 0 -0.02730108065886745 0.2888829597047293 0
          0 0 0 -0.01272214364375935 0.17403143869810334 0
          -0.03065020721202054 0.2623182628548121 0 -0.0412208504871231 0.2881316356084585 0
          0 0 0 -0.010614183570033072 0.15370818172653394 0
          -0.03016901187308943 0.24231938228584068 0 -0.046807906239820854 0.2778742959870846 0
          0 0 0 -0.008967868972167604 0.13545098181717327 0
          -0.028334656143547243 0.2207385033857422 0 -0.047955711591814366 0.26195389712482153 0
          0 0 0 -0.0075927982452778375 0.1190075887581256 0
          -0.025973867834594027 0.19905046998360842 0 0 0 0
          -0.0064670637742903795 0.10429067257262246 0 0 0 0
          -0.0055556798021974925 0.09117826144866323 0 -0.02355302933078309 0.17813926002087427 0
          -0.04682204080753151 0.24289690309310216 0 0 0 0
          <InformationKey name="L2_NORM_RANGE" location="vtkDataArray" length="2">
            <Value index="0">
              0
            </Value>
            <Value index="1">
              1
            </Value>
          </InformationKey>
        </DataArray>
        <DataArray type="Float64" Name="Pressure" format="ascii" RangeMin="0" RangeMax="68.20413519154928">
          0 3.9827769338972576 25.28574028155522 28.06000475156452 20.240429930862366 45.42186855925936
          43.607635765739914 38.25589095834082 47.40303652217632 40.19617595503394 54.02021296364546 48.9184241145684
          50.9843938681794 52.9025662316021 52.69047021868627 52.63654123257015 55.19506354962473 56.23165298716541
          56.33101466183127 58.6490670965843 58.62430617798317 58.49518780090359 58.752163014727195 60.34742055203933
          61.74239450082791 60.74316909604273 60.74029419697185 61.840226878384435 63.751885462524925 62.59757291263851
          62.458275701368564 63.146813630324004 65.2233749876362 64.10995774151147 63.867700049681865 64.23429118470042
          66.31294853124663 65.29304878255753 64.98841176150266 67.12298833910468 66.2108859053521 67.73526907438163
          66.92916187171066 65.88043849697597 65.12579858687201 68.20413519154928
        </DataArray>
      </PointData>
      <CellData>
        <DataArray type="UInt8" Name="vtkGhostType" format="ascii" RangeMin="0" RangeMax="0">
          0 0 0 0 0 0
          0 0 0 0 0 0
          0 0 0 0 0 0
          0 0 0 0 0 0
          0 0 0 0 0 0
          0 0 0 0 0 0
          0 0 0 0 0 0
          0 0 0 0 0 0
          0 0 0 0 0 0
          0 0 0 0 0 0
          0 0 0
        </DataArray>
      </CellData>
      <Points>
        <DataArray type="Float32" Name="Points" NumberOfComponents="3" format="ascii" RangeMin="0.6000000238418579" RangeMax="1.004987562260361">
          0 1 0 0 0.9666666388511658 0
          0.03333333507180214 1 0 0.03333333507180214 0.9666666388511658 0
          0 0.9333333373069763 0 0.06666667014360428 1 0
          0.06666667014360428 0.9666666388511658 0 0.03333333507180214 0.9333333373069763 0
          0.06666667014360428 0.9333333373069763 0 0 0.8999999761581421 0
          0.10000000149011612 1 0 0.03333333507180214 0.8999999761581421 0
          0.10000000149011612 0.9666666388511658 0 0.10000000149011612 0.9333333373069763 0
          0.06666667014360428 0.8999999761581421 0 0 0.8666666746139526 0
          0.03333333507180214 0.8666666746139526 0 0.10000000149011612 0.8999999761581421 0
          0.06666667014360428 0.8666666746139526 0 0 0.8333333134651184 0
          0.10000000149011612 0.8666666746139526 0 0.03333333507180214 0.8333333134651184 0
          0.06666667014360428 0.8333333134651184 0 0.10000000149011612 0.8333333134651184 0
          0 0.800000011920929 0 0.03333333507180214 0.800000011920929 0
          0.06666667014360428 0.800000011920929 0 0.10000000149011612 0.800000011920929 0
          0 0.7666666507720947 0 0.03333333507180214 0.7666666507720947 0
          0.06666667014360428 0.7666666507720947 0 0.10000000149011612 0.7666666507720947 0
          0 0.7333333492279053 0 0.03333333507180214 0.7333333492279053 0
          0.06666667014360428 0.7333333492279053 0 0.10000000149011612 0.7333333492279053 0
          0 0.699999988079071 0 0.03333333507180214 0.699999988079071 0
          0.06666667014360428 0.699999988079071 0 0 0.6666666865348816 0
          0.03333333507180214 0.6666666865348816 0 0 0.6333333253860474 0
          0.03333333507180214 0.6333333253860474 0 0.06666667014360428 0.6666666865348816 0
          0.10000000149011612 0.699999988079071 0 0 0.6000000238418579 0
          <InformationKey name="L2_NORM_RANGE" location="vtkDataArray" length="2">
            <Value index="0">
              0.60000002384
            </Value>
            <Value index="1">
              1.0049875623
            </Value>
          </InformationKey>
        </DataArray>
      </Points>
      <Cells>
        <DataArray type="Int64" Name="connectivity" format="ascii" RangeMin="0" RangeMax="45">
          42 40 41 40 39 41
          43 40 42 40 37 39
          37 36 39 43 38 40
          38 37 40 44 38 43
          37 33 36 33 32 36
          38 34 37 34 33 37
          44 35 38 35 34 38
          33 29 32 29 28 32
          34 30 33 30 29 33
          35 31 34 31 30 34
          29 25 28 25 24 28
          30 26 29 26 25 29
          31 27 30 27 26 30
          25 21 24 21 19 24
          26 22 25 22 21 25
          27 23 26 23 22 26
          21 16 19 16 15 19
          22 18 21 18 16 21
          23 20 22 20 18 22
          16 11 15 11 9 15
          18 14 16 14 11 16
          20 17 18 17 14 18
          11 7 9 7 4 9
          14 8 11 8 7 11
          17 13 14 13 8 14
          7 3 4 3 1 4
          8 6 7 6 3 7
          13 12 8 12 6 8
          3 2 1 2 0 1
          6 5 3 5 2 3
          12 10 6 10 5 6
          42 41 45
        </DataArray>
        <DataArray type="Int64" Name="offsets" format="ascii" RangeMin="3" RangeMax="189">
          3 6 9 12 15 18
          21 24 27 30 33 36
          39 42 45 48 51 54
          57 60 63 66 69 72
          75 78 81 84 87 90
          93 96 99 102 105 108
          111 114 117 120 123 126
          129 132 135 138 141 144
          147 150 153 156 159 162
          165 168 171 174 177 180
          183 186 189
        </DataArray>
        <DataArray type="UInt8" Name="types" format="ascii" RangeMin="5" RangeMax="5">
          5 5 5 5 5 5
          5 5 5 5 5 5
          5 5 5 5 5 5
          5 5 5 5 5 5
          5 5 5 5 5 5
          5 5 5 5 5 5
          5 5 5 5 5 5
          5 5 5 5 5 5
          5 5 5 5 5 5
          5 5 5 5 5 5
          5 5 5
        </DataArray>
      </Cells>
    </Piece>
  </UnstructuredGrid>
</VTKFile>
