<?xml version="1.0"?>
<VTKFile type="UnstructuredGrid" version="0.1" byte_order="LittleEndian" header_type="UInt32" compressor="vtkZLibDataCompressor">
  <UnstructuredGrid>
    <Piece NumberOfPoints="44" NumberOfCells="60">
      <PointData>
        <DataArray type="Float64" Name="Velocity" NumberOfComponents="3" format="ascii" RangeMin="0" RangeMax="0.07024949708341043">
          -0.018036539479819945 0.0558217366504928 0 -0.0014699179582822184 0.01670543029986836 0
          -0.0069774377628990724 0.03216418958854096 0 -0.015954792064884774 0.04552812761962103 0
          0 0 0 -0.0012247700766680148 0.013170990132933337 0
          -0.005970849462239706 0.02555258281240366 0 -0.013897262315790672 0.03633003681177469 0
          0 0 0 -0.0009645184807538977 0.010221031141161342 0
          -0.004955318078391866 0.019846764496207727 0 -0.011815105918798795 0.028128046264466165 0
          0 0 0 -0.0007342519093762298 0.007718023785260206 0
          -0.004082785689888751 0.014812663520826767 0 -0.010020888484560666 0.020809698713549908 0
          0 0 0 -0.0006243973945021808 0.005422640831254406 0
          -0.003592407854089525 0.010243938162606664 0 -0.009350799270903258 0.014291275325537553 0
          0 0 0 -0.00043338422223510557 0.0036171220967868433 0
          -0.0028742185683876087 0.006899852688666856 0 -0.009253724128174896 0.008462154308140353 0
          0 0 0 0.0007755702146845506 0.004043188680668448 0
          0.0008072469711788565 0.007243988007775199 0 -0.0028620285171463873 0.0027346202909507354 0
          0 0 0 0.0025165697010796984 0.008394352663556743 0
          0.007471393032633474 0.012581043265231056 0 0.015377399230627623 -0.007506911716531495 0
          0 0 0 -0.0042411510118802905 0.010917922220315797 0
          -0.008230045295608083 0.013520743644188442 0 -0.022838600490937087 -0.045893608824478516 0
          0 0 0 0 0 0
          0 0 0 0 0 0
          -0.0017107152780001596 0.02083533506093609 0 0 0 0
          -0.00798540431305511 0.03974767640191682 0 -0.02022019266211932 0.06727656091967592 0
          <InformationKey name="L2_NORM_RANGE" location="vtkDataArray" length="2">
            <Value index="0">
              0
            </Value>
            <Value index="1">
              0.070249497083
            </Value>
          </InformationKey>
        </DataArray>
        <DataArray type="Float64" Name="Pressure" format="ascii" RangeMin="67.94257989088347" RangeMax="81.9623449356811">
          68.83517487769024 69.24640065298927 69.08497738838373 68.8808819078626 69.4493590151834 69.24679285288498
          69.09962841150879 68.90479008888754 69.41060839648954 69.24064036477114 69.11224790013485 68.93430824152206
          69.38592265772407 69.25677379049098 69.15890767808337 68.99256547837885 69.38543058606939 69.29929790592107
          69.21891432086954 68.97777697994158 69.3402132852457 69.25986762953121 69.09348722999502 68.5968767887232
          69.1232086647855 68.97899459327348 68.58970374158716 67.94257989088347 68.87896995642492 68.71648450851441
          68.43150058396361 68.8921556281114 69.26283681213089 69.44258597415984 70.73955782714067 74.34582368834062
          70.39638953337091 71.82861368803448 76.19267233758632 81.9623449356811 69.2258586793532 69.4800451297125
          69.04831710742637 68.76072575542975
        </DataArray>
      </PointData>
      <CellData>
        <DataArray type="UInt8" Name="vtkGhostType" format="ascii" RangeMin="0" RangeMax="1">
          1 1 1 0 1 1
          0 0 0 0 0 0
          0 0 0 0 0 0
          0 0 0 0 0 0
          0 0 0 0 0 0
          0 0 0 0 0 0
          0 0 0 0 0 0
          0 0 0 0 0 0
          0 0 0 0 0 0
          0 1 0 0 0 0
        </DataArray>
      </CellData>
      <Points>
        <DataArray type="Float32" Name="Points" NumberOfComponents="3" format="ascii" RangeMin="0" RangeMax="0.38005848309237544">
          0.10000000149011612 0.3333333432674408 0 0.03333333507180214 0.30000001192092896 0
          0.06666667014360428 0.30000001192092896 0 0.10000000149011612 0.30000001192092896 0
          0 0.2666666805744171 0 0.03333333507180214 0.2666666805744171 0
          0.06666667014360428 0.2666666805744171 0 0.10000000149011612 0.2666666805744171 0
          0 0.23333333432674408 0 0.03333333507180214 0.23333333432674408 0
          0.06666667014360428 0.23333333432674408 0 0.10000000149011612 0.23333333432674408 0
          0 0.20000000298023224 0 0.03333333507180214 0.20000000298023224 0
          0.06666667014360428 0.20000000298023224 0 0.10000000149011612 0.20000000298023224 0
          0 0.1666666716337204 0 0.03333333507180214 0.1666666716337204 0
          0.06666667014360428 0.1666666716337204 0 0.10000000149011612 0.1666666716337204 0
          0 0.13333334028720856 0 0.03333333507180214 0.13333334028720856 0
          0.06666667014360428 0.13333334028720856 0 0.10000000149011612 0.13333334028720856 0
          0 0.10000000149011612 0 0.03333333507180214 0.10000000149011612 0
          0.06666667014360428 0.10000000149011612 0 0.10000000149011612 0.10000000149011612 0
          0 0.06666667014360428 0 0.03333333507180214 0.06666667014360428 0
          0.06666667014360428 0.06666667014360428 0 0.10000000149011612 0.06666667014360428 0
          0 0.03333333507180214 0 0.03333333507180214 0.03333333507180214 0
          0.06666667014360428 0.03333333507180214 0 0.10000000149011612 0.03333333507180214 0
          0 0 0 0.03333333507180214 0 0
          0.06666667014360428 0 0 0.10000000149011612 0 0
          0.03333333507180214 0.3333333432674408 0 0 0.30000001192092896 0
          0.06666667014360428 0.3333333432674408 0 0.10000000149011612 0.36666667461395264 0
          <InformationKey name="L2_NORM_RANGE" location="vtkDataArray" length="2">
            <Value index="0">
              0
            </Value>
            <Value index="1">
              0.38005848309
            </Value>
          </InformationKey>
        </DataArray>
      </Points>
      <Cells>
        <DataArray type="Int64" Name="connectivity" format="ascii" RangeMin="0" RangeMax="43">
          1 40 41 2 42 1
          42 40 1 3 0 2
          0 42 2 0 43 42
          37 33 36 33 32 36
          38 34 37 34 33 37
          39 35 38 35 34 38
          33 29 32 29 28 32
          34 30 33 30 29 33
          35 31 34 31 30 34
          29 25 28 25 24 28
          30 26 29 26 25 29
          31 27 30 27 26 30
          25 21 24 21 20 24
          26 22 25 22 21 25
          27 23 26 23 22 26
          21 17 20 17 16 20
          22 18 21 18 17 21
          23 19 22 19 18 22
          17 13 16 13 12 16
          18 14 17 14 13 17
          19 15 18 15 14 18
          13 9 12 9 8 12
          14 10 13 10 9 13
          15 11 14 11 10 14
          9 5 8 5 4 8
          10 6 9 6 5 9
          11 7 10 7 6 10
          5 1 4 1 41 4
          6 2 5 2 1 5
          7 3 6 3 2 6
        </DataArray>
        <DataArray type="Int64" Name="offsets" format="ascii" RangeMin="3" RangeMax="180">
          3 6 9 12 15 18
          21 24 27 30 33 36
          39 42 45 48 51 54
          57 60 63 66 69 72
          75 78 81 84 87 90
          93 96 99 102 105 108
          111 114 117 120 123 126
          129 132 135 138 141 144
          147 150 153 156 159 162
          165 168 171 174 177 180
        </DataArray>
        <DataArray type="UInt8" Name="types" format="ascii" RangeMin="5" RangeMax="5">
          5 5 5 5 5 5
          5 5 5 5 5 5
          5 5 5 5 5 5
          5 5 5 5 5 5
          5 5 5 5 5 5
          5 5 5 5 5 5
          5 5 5 5 5 5
          5 5 5 5 5 5
          5 5 5 5 5 5
          5 5 5 5 5 5
        </DataArray>
      </Cells>
    </Piece>
  </UnstructuredGrid>
</VTKFile>
