<?xml version="1.0"?>
<VTKFile type="UnstructuredGrid" version="0.1" byte_order="LittleEndian" header_type="UInt32" compressor="vtkZLibDataCompressor">
  <UnstructuredGrid>
    <Piece NumberOfPoints="50" NumberOfCells="69">
      <PointData>
        <DataArray type="Float64" Name="Velocity" NumberOfComponents="3" format="ascii" RangeMin="0" RangeMax="0.2639779581105872">
          -0.04691615692269077 0.24041292871139722 0 -0.023555460576401076 0.17646218609277214 0
          -0.04454894391313713 0.21993349241406132 0 -0.0055488626161100596 0.09033024238344126 0
          -0.021230554309019836 0.15678648873128698 0 -0.04164955703142003 0.19921452545627302 0
          0 0 0 -0.004800009948696045 0.07866930493323937 0
          -0.019097264236584525 0.1385345045276426 0 -0.03856338737641287 0.1789144944086107 0
          0 0 0 -0.004180237371463209 0.0682793386206854 0
          -0.017167011065015624 0.1217329583728329 0 -0.03548344095875813 0.1594219066246327 0
          0 0 0 -0.003660532094857327 0.05900649650793922 0
          -0.015430717841972415 0.10634403722369501 0 -0.032508336672210605 0.14096291963514934 0
          0 0 0 -0.003219095355766162 0.05072029450781385 0
          -0.013869180870997524 0.09230036866320229 0 -0.029681657598476175 0.12366092964474845 0
          0 0 0 -0.002838991502484832 0.0433105923187593 0
          -0.012459620648944868 0.07952305232183571 0 -0.02701738533730207 0.10757285881294182 0
          0 0 0 -0.002506803083788455 0.03668555219514559 0
          -0.011179123622249891 0.06793202674910286 0 -0.024513290379228385 0.09271325847632829 0
          0 0 0 -0.002211534604969358 0.03076969600129707 0
          -0.010005684927792313 0.05745134845405419 0 -0.022157306839243867 0.07907005616200681 0
          0 0 0 -0.001944283433286199 0.02550128445454163 0
          -0.008919548287652027 0.04801115280751633 0 -0.01993391541727761 0.06661517421881676 0
          0 0 0 -0.0016989194133398618 0.020830817985745 0
          -0.007905161299131689 0.039550928553909785 0 0 0 0
          -0.006466306688089609 0.10343837475112644 0 0 0 0
          -0.026012839931663867 0.19739552786477266 0 -0.04814218469078782 0.25955094378836885 0
          -0.0014702551586374354 0.016726096201052833 0 -0.0069454112601888595 0.03202976691357777 0
          -0.017832697048786435 0.05531346880481506 0 0 0 0
          <InformationKey name="L2_NORM_RANGE" location="vtkDataArray" length="2">
            <Value index="0">
              0
            </Value>
            <Value index="1">
              0.26397795811
            </Value>
          </InformationKey>
        </DataArray>
        <DataArray type="Float64" Name="Pressure" format="ascii" RangeMin="64.2171919329482" RangeMax="69.41115442610351">
          65.10953579306803 65.8670149632326 65.84796418702327 66.91502876881874 66.58177910803767 66.46242180140041
          68.1864612977926 67.47903494961047 67.15502640683505 66.9722037014476 68.54434853418815 67.92209738143761
          67.6133087123962 67.39277654925742 68.81720817691445 68.26863673003197 67.97819997598826 67.73788042510195
          69.02262815281173 68.53780037941807 68.26716417579233 68.0193357259073 69.17388691114304 68.74449170234483
          68.49404305982371 68.24696445758957 69.28110999324109 68.90031765516937 68.66981661270643 68.42892525625564
          69.35223251538343 69.01454429017427 68.80344691016965 68.5722133796176 69.39377573317563 69.09488925168742
          68.9025318665032 68.68286212874818 69.41115442610351 69.14767616093766 68.97307964227379 69.40815248837289
          66.19788151726887 67.71979068996158 64.97520224711278 64.2171919329482 69.17705538338213 69.0183706420491
          68.76500821774903 69.38702996247952
        </DataArray>
      </PointData>
      <CellData>
        <DataArray type="UInt8" Name="vtkGhostType" format="ascii" RangeMin="0" RangeMax="1">
          1 1 1 0 1 1
          0 0 0 0 0 0
          0 0 0 0 0 0
          0 0 0 0 0 0
          0 0 0 0 0 0
          0 0 0 0 0 0
          0 0 0 0 0 0
          0 0 0 0 0 0
          0 0 0 0 0 0
          0 0 0 0 0 0
          1 0 0 0 0 0
          0 0 0
        </DataArray>
      </CellData>
      <Points>
        <DataArray type="Float32" Name="Points" NumberOfComponents="3" format="ascii" RangeMin="0.2666666805744171" RangeMax="0.7401201263226397">
          0.10000000149011612 0.699999988079071 0 0.06666667014360428 0.6666666865348816 0
          0.10000000149011612 0.6666666865348816 0 0.03333333507180214 0.6333333253860474 0
          0.06666667014360428 0.6333333253860474 0 0.10000000149011612 0.6333333253860474 0
          0 0.6000000238418579 0 0.03333333507180214 0.6000000238418579 0
          0.06666667014360428 0.6000000238418579 0 0.10000000149011612 0.6000000238418579 0
          0 0.5666666626930237 0 0.03333333507180214 0.5666666626930237 0
          0.06666667014360428 0.5666666626930237 0 0.10000000149011612 0.5666666626930237 0
          0 0.5333333611488342 0 0.03333333507180214 0.5333333611488342 0
          0.06666667014360428 0.5333333611488342 0 0.10000000149011612 0.5333333611488342 0
          0 0.5 0 0.03333333507180214 0.5 0
          0.06666667014360428 0.5 0 0.10000000149011612 0.5 0
          0 0.46666666865348816 0 0.03333333507180214 0.46666666865348816 0
          0.06666667014360428 0.46666666865348816 0 0.10000000149011612 0.46666666865348816 0
          0 0.4333333373069763 0 0.03333333507180214 0.4333333373069763 0
          0.06666667014360428 0.4333333373069763 0 0.10000000149011612 0.4333333373069763 0
          0 0.4000000059604645 0 0.03333333507180214 0.4000000059604645 0
          0.06666667014360428 0.4000000059604645 0 0.10000000149011612 0.4000000059604645 0
          0 0.36666667461395264 0 0.03333333507180214 0.36666667461395264 0
          0.06666667014360428 0.36666667461395264 0 0.10000000149011612 0.36666667461395264 0
          0 0.3333333432674408 0 0.03333333507180214 0.3333333432674408 0
          0.06666667014360428 0.3333333432674408 0 0 0.30000001192092896 0
          0.03333333507180214 0.6666666865348816 0 0 0.6333333253860474 0
          0.06666667014360428 0.699999988079071 0 0.10000000149011612 0.7333333492279053 0
          0.03333333507180214 0.30000001192092896 0 0.06666667014360428 0.30000001192092896 0
          0.10000000149011612 0.3333333432674408 0 0 0.2666666805744171 0
          <InformationKey name="L2_NORM_RANGE" location="vtkDataArray" length="2">
            <Value index="0">
              0.26666668057
            </Value>
            <Value index="1">
              0.74012012632
            </Value>
          </InformationKey>
        </DataArray>
      </Points>
      <Cells>
        <DataArray type="Int64" Name="connectivity" format="ascii" RangeMin="0" RangeMax="49">
          3 42 43 1 42 3
          1 44 42 2 0 1
          0 44 1 0 45 44
          46 39 41 39 38 41
          47 40 46 40 39 46
          48 40 47 39 35 38
          35 34 38 40 36 39
          36 35 39 48 37 40
          37 36 40 35 31 34
          31 30 34 36 32 35
          32 31 35 37 33 36
          33 32 36 31 27 30
          27 26 30 32 28 31
          28 27 31 33 29 32
          29 28 32 27 23 26
          23 22 26 28 24 27
          24 23 27 29 25 28
          25 24 28 23 19 22
          19 18 22 24 20 23
          20 19 23 25 21 24
          21 20 24 19 15 18
          15 14 18 20 16 19
          16 15 19 21 17 20
          17 16 20 15 11 14
          11 10 14 16 12 15
          12 11 15 17 13 16
          13 12 16 11 7 10
          7 6 10 12 8 11
          8 7 11 13 9 12
          9 8 12 7 3 6
          3 43 6 8 4 7
          4 3 7 9 5 8
          5 4 8 4 1 3
          5 2 4 2 1 4
          46 41 49
        </DataArray>
        <DataArray type="Int64" Name="offsets" format="ascii" RangeMin="3" RangeMax="207">
          3 6 9 12 15 18
          21 24 27 30 33 36
          39 42 45 48 51 54
          57 60 63 66 69 72
          75 78 81 84 87 90
          93 96 99 102 105 108
          111 114 117 120 123 126
          129 132 135 138 141 144
          147 150 153 156 159 162
          165 168 171 174 177 180
          183 186 189 192 195 198
          201 204 207
        </DataArray>
        <DataArray type="UInt8" Name="types" format="ascii" RangeMin="5" RangeMax="5">
          5 5 5 5 5 5
          5 5 5 5 5 5
          5 5 5 5 5 5
          5 5 5 5 5 5
          5 5 5 5 5 5
          5 5 5 5 5 5
          5 5 5 5 5 5
          5 5 5 5 5 5
          5 5 5 5 5 5
          5 5 5 5 5 5
          5 5 5 5 5 5
          5 5 5
        </DataArray>
      </Cells>
    </Piece>
  </UnstructuredGrid>
</VTKFile>
