<?xml version="1.0"?>
<VTKFile type="UnstructuredGrid" version="0.1" byte_order="LittleEndian" header_type="UInt32" compressor="vtkZLibDataCompressor">
  <UnstructuredGrid>
    <Piece NumberOfPoints="44" NumberOfCells="60">
      <PointData>
        <DataArray type="Float64" Name="Velocity" NumberOfComponents="3" format="ascii" RangeMin="0" RangeMax="0.06953375022294199">
          -0.017832697048786435 0.05531346880481506 0 -0.0014702551586374354 0.016726096201052833 0
          -0.0069454112601888595 0.03202976691357777 0 -0.01584162196403336 0.04512807633537294 0
          0 0 0 -0.0012446704089051582 0.013181799703886958 0
          -0.0060015312593749235 0.02543073626616316 0 -0.013902039548411004 0.036009788043466724 0
          0 0 0 -0.0009965630645707745 0.01019863637209729 0
          -0.005020212511727053 0.019710388187593082 0 -0.011905888847823436 0.02786614917899344 0
          0 0 0 -0.0007326742806100105 0.007692431788192147 0
          -0.004057721313541243 0.014697033592571272 0 -0.009991549806947764 0.02055674453202717 0
          0 0 0 -0.0005470104182394365 0.005477567532425547 0
          -0.0033764867695798197 0.010229547237667867 0 -0.00898212705681874 0.013981103847599818 0
          0 0 0 -0.00037124568827277355 0.0037735522031614494 0
          -0.002715585992501596 0.006988865953581103 0 -0.008921361841181523 0.008148340265686485 0
          0 0 0 0.0006501120489964977 0.004141677595088195 0
          0.00046871245540982236 0.007265920767974122 0 -0.0033656320296602846 0.0026609671117972856 0
          0 0 0 0.002369060012693953 0.00827269360846433 0
          0.00709136259318034 0.012392915476607402 0 0.014852783112803867 -0.007227185722697203 0
          0 0 0 -0.004109557659307648 0.010729591698991018 0
          -0.007860835289209741 0.013323773815000061 0 -0.0222036736565199 -0.04585769771676773 0
          0 0 0 0 0 0
          0 0 0 0 0 0
          -0.0016989194133398618 0.020830817985745 0 0 0 0
          -0.007905161299131689 0.039550928553909785 0 -0.01993391541727761 0.06661517421881676 0
          <InformationKey name="L2_NORM_RANGE" location="vtkDataArray" length="2">
            <Value index="0">
              0
            </Value>
            <Value index="1">
              0.069533750223
            </Value>
          </InformationKey>
        </DataArray>
        <DataArray type="Float64" Name="Pressure" format="ascii" RangeMin="67.94508945701226" RangeMax="81.84336594430076">
          68.76500821774903 69.17705538338213 69.0183706420491 68.819839917665 69.38702996247952 69.18585447130727
          69.0412118799796 68.85082752946859 69.3538199247551 69.18377398675743 69.05620341471658 68.87784484247612
          69.32712819629586 69.19669058696074 69.09649024654824 68.92488069076043 69.32300784336745 69.2366615849713
          69.15370357287541 68.91282648610623 69.2889120150974 69.21135208869075 69.04900735837442 68.56798317282735
          69.09782263609605 68.95553671113878 68.57603950340103 67.94508945701226 68.86078212802498 68.69434300627205
          68.41064189920718 68.86282841690208 69.22330954720783 69.39646293128185 70.67812264700498 74.25953538632888
          70.34510808570305 71.7665731920817 76.10465291420583 81.84336594430076 69.14767616093766 69.40815248837289
          68.97307964227379 68.68286212874818
        </DataArray>
      </PointData>
      <CellData>
        <DataArray type="UInt8" Name="vtkGhostType" format="ascii" RangeMin="0" RangeMax="1">
          1 1 1 0 1 1
          0 0 0 0 0 0
          0 0 0 0 0 0
          0 0 0 0 0 0
          0 0 0 0 0 0
          0 0 0 0 0 0
          0 0 0 0 0 0
          0 0 0 0 0 0
          0 0 0 0 0 0
          0 1 0 0 0 0
        </DataArray>
      </CellData>
      <Points>
        <DataArray type="Float32" Name="Points" NumberOfComponents="3" format="ascii" RangeMin="0" RangeMax="0.38005848309237544">
          0.10000000149011612 0.3333333432674408 0 0.03333333507180214 0.30000001192092896 0
          0.06666667014360428 0.30000001192092896 0 0.10000000149011612 0.30000001192092896 0
          0 0.2666666805744171 0 0.03333333507180214 0.2666666805744171 0
          0.06666667014360428 0.2666666805744171 0 0.10000000149011612 0.2666666805744171 0
          0 0.23333333432674408 0 0.03333333507180214 0.23333333432674408 0
          0.06666667014360428 0.23333333432674408 0 0.10000000149011612 0.23333333432674408 0
          0 0.20000000298023224 0 0.03333333507180214 0.20000000298023224 0
          0.06666667014360428 0.20000000298023224 0 0.10000000149011612 0.20000000298023224 0
          0 0.1666666716337204 0 0.03333333507180214 0.1666666716337204 0
          0.06666667014360428 0.1666666716337204 0 0.10000000149011612 0.1666666716337204 0
          0 0.13333334028720856 0 0.03333333507180214 0.13333334028720856 0
          0.06666667014360428 0.13333334028720856 0 0.10000000149011612 0.13333334028720856 0
          0 0.10000000149011612 0 0.03333333507180214 0.10000000149011612 0
          0.06666667014360428 0.10000000149011612 0 0.10000000149011612 0.10000000149011612 0
          0 0.06666667014360428 0 0.03333333507180214 0.06666667014360428 0
          0.06666667014360428 0.06666667014360428 0 0.10000000149011612 0.06666667014360428 0
          0 0.03333333507180214 0 0.03333333507180214 0.03333333507180214 0
          0.06666667014360428 0.03333333507180214 0 0.10000000149011612 0.03333333507180214 0
          0 0 0 0.03333333507180214 0 0
          0.06666667014360428 0 0 0.10000000149011612 0 0
          0.03333333507180214 0.3333333432674408 0 0 0.30000001192092896 0
          0.06666667014360428 0.3333333432674408 0 0.10000000149011612 0.36666667461395264 0
          <InformationKey name="L2_NORM_RANGE" location="vtkDataArray" length="2">
            <Value index="0">
              0
            </Value>
            <Value index="1">
              0.38005848309
            </Value>
          </InformationKey>
        </DataArray>
      </Points>
      <Cells>
        <DataArray type="Int64" Name="connectivity" format="ascii" RangeMin="0" RangeMax="43">
          1 40 41 2 42 1
          42 40 1 3 0 2
          0 42 2 0 43 42
          37 33 36 33 32 36
          38 34 37 34 33 37
          39 35 38 35 34 38
          33 29 32 29 28 32
          34 30 33 30 29 33
          35 31 34 31 30 34
          29 25 28 25 24 28
          30 26 29 26 25 29
          31 27 30 27 26 30
          25 21 24 21 20 24
          26 22 25 22 21 25
          27 23 26 23 22 26
          21 17 20 17 16 20
          22 18 21 18 17 21
          23 19 22 19 18 22
          17 13 16 13 12 16
          18 14 17 14 13 17
          19 15 18 15 14 18
          13 9 12 9 8 12
          14 10 13 10 9 13
          15 11 14 11 10 14
          9 5 8 5 4 8
          10 6 9 6 5 9
          11 7 10 7 6 10
          5 1 4 1 41 4
          6 2 5 2 1 5
          7 3 6 3 2 6
        </DataArray>
        <DataArray type="Int64" Name="offsets" format="ascii" RangeMin="3" RangeMax="180">
          3 6 9 12 15 18
          21 24 27 30 33 36
          39 42 45 48 51 54
          57 60 63 66 69 72
          75 78 81 84 87 90
          93 96 99 102 105 108
          111 114 117 120 123 126
          129 132 135 138 141 144
          147 150 153 156 159 162
          165 168 171 174 177 180
        </DataArray>
        <DataArray type="UInt8" Name="types" format="ascii" RangeMin="5" RangeMax="5">
          5 5 5 5 5 5
          5 5 5 5 5 5
          5 5 5 5 5 5
          5 5 5 5 5 5
          5 5 5 5 5 5
          5 5 5 5 5 5
          5 5 5 5 5 5
          5 5 5 5 5 5
          5 5 5 5 5 5
          5 5 5 5 5 5
        </DataArray>
      </Cells>
    </Piece>
  </UnstructuredGrid>
</VTKFile>
