<?xml version="1.0"?>
<VTKFile type="UnstructuredGrid" version="0.1" byte_order="LittleEndian" header_type="UInt32" compressor="vtkZLibDataCompressor">
  <UnstructuredGrid>
    <Piece NumberOfPoints="50" NumberOfCells="69">
      <PointData>
        <DataArray type="Float64" Name="Velocity" NumberOfComponents="3" format="ascii" RangeMin="0" RangeMax="0.2663073309038992">
          -0.04682204080753151 0.24289690309310216 0 -0.02355302933078309 0.17813926002087427 0
          -0.04454043491776871 0.22244100826129665 0 -0.0055556798021974925 0.09117826144866323 0
          -0.021260038624006418 0.15845004684131328 0 -0.04171831729821796 0.201691218724932 0
          0 0 0 -0.004811480389257918 0.07949778681889619 0
          -0.01915333549279855 0.14015336806804665 0 -0.038698372851527746 0.18131117356071152 0
          0 0 0 -0.004195149859167472 0.06907594806153865 0
          -0.017244336291319027 0.12328103930826782 0 -0.035672653365626784 0.16169631675549986 0
          0 0 0 -0.0036780790585307843 0.05976141290912933 0
          -0.015524785653863778 0.1078002423463081 0 -0.03274049176239194 0.14308103818458076 0
          0 0 0 -0.0032388236412753 0.05142561188983936 0
          -0.01397628069534499 0.09364817896816745 0 -0.029946487722296442 0.12559748052794145 0
          0 0 0 -0.0028604982569430605 0.043960033158591816 0
          -0.01257615056013098 0.08075031938691822 0 -0.027304968328469906 0.10931092967614366 0
          0 0 0 -0.002529436035285164 0.03727467014432961 0
          -0.011300985987162367 0.06903106591116312 0 -0.024813317238832597 0.09424326273420996 0
          0 0 0 -0.002234471052656424 0.031296096408142286 0
          -0.010128681245028161 0.05841880027566754 0 -0.022459551080826756 0.08038867502624007 0
          0 0 0 -0.001967182358463019 0.025964060131243354 0
          -0.009041110754519313 0.04884695861848877 0 -0.020230781326943677 0.06772517556965764 0
          0 0 0 -0.0017225170385867933 0.02122916925251612 0
          -0.008025639507585914 0.04025678991848728 0 0 0 0
          -0.0064670637742903795 0.10429067257262246 0 0 0 0
          -0.025973867834594027 0.19905046998360842 0 -0.047955711591814366 0.26195389712482153 0
          -0.0014953721825162992 0.017058873044464976 0 -0.007065165368847989 0.03260900531481117 0
          -0.01812161936661205 0.05622454763982727 0 0 0 0
          <InformationKey name="L2_NORM_RANGE" location="vtkDataArray" length="2">
            <Value index="0">
              0
            </Value>
            <Value index="1">
              0.2663073309
            </Value>
          </InformationKey>
        </DataArray>
        <DataArray type="Float64" Name="Pressure" format="ascii" RangeMin="64.23429118470042" RangeMax="69.44727313758321">
          65.12579858687201 65.88043849697597 65.8633189749496 66.92916187171066 66.59545128401186 66.47688088330578
          68.20413519154928 67.49431552592229 67.16905870819943 66.9859107484228 68.56410185356062 67.93863047726865
          67.62793080376477 67.40607049565547 68.83903423656199 68.28663897505564 67.99377906182306 67.7512932512026
          69.0466166873186 68.55756635856206 68.28414638788647 68.03348250445741 69.20015373473251 68.7663135940932
          68.51284649975754 68.26239987142567 69.30972996325782 68.92442314515381 68.690766714724 68.44609837292894
          69.38324694268584 69.0411191141527 68.82683096319565 68.59159027629357 69.42727220787202 69.12416257531126
          68.92871893640883 68.70506426930848 69.44727313758321 69.17989855499411 69.00246274728852 69.44684887887591
          66.2108859053521 67.73526907438163 64.98841176150266 64.23429118470042 69.21222038451795 69.05097267070147
          68.79061084796125 69.42777722351335
        </DataArray>
      </PointData>
      <CellData>
        <DataArray type="UInt8" Name="vtkGhostType" format="ascii" RangeMin="0" RangeMax="1">
          1 1 1 0 1 1
          0 0 0 0 0 0
          0 0 0 0 0 0
          0 0 0 0 0 0
          0 0 0 0 0 0
          0 0 0 0 0 0
          0 0 0 0 0 0
          0 0 0 0 0 0
          0 0 0 0 0 0
          0 0 0 0 0 0
          1 0 0 0 0 0
          0 0 0
        </DataArray>
      </CellData>
      <Points>
        <DataArray type="Float32" Name="Points" NumberOfComponents="3" format="ascii" RangeMin="0.2666666805744171" RangeMax="0.7401201263226397">
          0.10000000149011612 0.699999988079071 0 0.06666667014360428 0.6666666865348816 0
          0.10000000149011612 0.6666666865348816 0 0.03333333507180214 0.6333333253860474 0
          0.06666667014360428 0.6333333253860474 0 0.10000000149011612 0.6333333253860474 0
          0 0.6000000238418579 0 0.03333333507180214 0.6000000238418579 0
          0.06666667014360428 0.6000000238418579 0 0.10000000149011612 0.6000000238418579 0
          0 0.5666666626930237 0 0.03333333507180214 0.5666666626930237 0
          0.06666667014360428 0.5666666626930237 0 0.10000000149011612 0.5666666626930237 0
          0 0.5333333611488342 0 0.03333333507180214 0.5333333611488342 0
          0.06666667014360428 0.5333333611488342 0 0.10000000149011612 0.5333333611488342 0
          0 0.5 0 0.03333333507180214 0.5 0
          0.06666667014360428 0.5 0 0.10000000149011612 0.5 0
          0 0.46666666865348816 0 0.03333333507180214 0.46666666865348816 0
          0.06666667014360428 0.46666666865348816 0 0.10000000149011612 0.46666666865348816 0
          0 0.4333333373069763 0 0.03333333507180214 0.4333333373069763 0
          0.06666667014360428 0.4333333373069763 0 0.10000000149011612 0.4333333373069763 0
          0 0.4000000059604645 0 0.03333333507180214 0.4000000059604645 0
          0.06666667014360428 0.4000000059604645 0 0.10000000149011612 0.4000000059604645 0
          0 0.36666667461395264 0 0.03333333507180214 0.36666667461395264 0
          0.06666667014360428 0.36666667461395264 0 0.10000000149011612 0.36666667461395264 0
          0 0.3333333432674408 0 0.03333333507180214 0.3333333432674408 0
          0.06666667014360428 0.3333333432674408 0 0 0.30000001192092896 0
          0.03333333507180214 0.6666666865348816 0 0 0.6333333253860474 0
          0.06666667014360428 0.699999988079071 0 0.10000000149011612 0.7333333492279053 0
          0.03333333507180214 0.30000001192092896 0 0.06666667014360428 0.30000001192092896 0
          0.10000000149011612 0.3333333432674408 0 0 0.2666666805744171 0
          <InformationKey name="L2_NORM_RANGE" location="vtkDataArray" length="2">
            <Value index="0">
              0.26666668057
            </Value>
            <Value index="1">
              0.74012012632
            </Value>
          </InformationKey>
        </DataArray>
      </Points>
      <Cells>
        <DataArray type="Int64" Name="connectivity" format="ascii" RangeMin="0" RangeMax="49">
          3 42 43 1 42 3
          1 44 42 2 0 1
          0 44 1 0 45 44
          46 39 41 39 38 41
          47 40 46 40 39 46
          48 40 47 39 35 38
          35 34 38 40 36 39
          36 35 39 48 37 40
          37 36 40 35 31 34
          31 30 34 36 32 35
          32 31 35 37 33 36
          33 32 36 31 27 30
          27 26 30 32 28 31
          28 27 31 33 29 32
          29 28 32 27 23 26
          23 22 26 28 24 27
          24 23 27 29 25 28
          25 24 28 23 19 22
          19 18 22 24 20 23
          20 19 23 25 21 24
          21 20 24 19 15 18
          15 14 18 20 16 19
          16 15 19 21 17 20
          17 16 20 15 11 14
          11 10 14 16 12 15
          12 11 15 17 13 16
          13 12 16 11 7 10
          7 6 10 12 8 11
          8 7 11 13 9 12
          9 8 12 7 3 6
          3 43 6 8 4 7
          4 3 7 9 5 8
          5 4 8 4 1 3
          5 2 4 2 1 4
          46 41 49
        </DataArray>
        <DataArray type="Int64" Name="offsets" format="ascii" RangeMin="3" RangeMax="207">
          3 6 9 12 15 18
          21 24 27 30 33 36
          39 42 45 48 51 54
          57 60 63 66 69 72
          75 78 81 84 87 90
          93 96 99 102 105 108
          111 114 117 120 123 126
          129 132 135 138 141 144
          147 150 153 156 159 162
          165 168 171 174 177 180
          183 186 189 192 195 198
          201 204 207
        </DataArray>
        <DataArray type="UInt8" Name="types" format="ascii" RangeMin="5" RangeMax="5">
          5 5 5 5 5 5
          5 5 5 5 5 5
          5 5 5 5 5 5
          5 5 5 5 5 5
          5 5 5 5 5 5
          5 5 5 5 5 5
          5 5 5 5 5 5
          5 5 5 5 5 5
          5 5 5 5 5 5
          5 5 5 5 5 5
          5 5 5 5 5 5
          5 5 5
        </DataArray>
      </Cells>
    </Piece>
  </UnstructuredGrid>
</VTKFile>
