<?xml version="1.0"?>
<VTKFile type="UnstructuredGrid" version="0.1" byte_order="LittleEndian" header_type="UInt32" compressor="vtkZLibDataCompressor">
  <UnstructuredGrid>
    <Piece NumberOfPoints="46" NumberOfCells="63">
      <PointData>
        <DataArray type="Float64" Name="Velocity" NumberOfComponents="3" format="ascii" RangeMin="0" RangeMax="1.0000000000000002">
          1.0000000000000002 0 0 0 0 0
          1.0000000000000002 0 0 0.13896933688067187 0.1109000824255986 0
          0 0 0 1.0000000000000002 0 0
          0.28323179161555145 0.10492271054824547 0 -0.00007294573722634306 0.2001328193128036 0
          0.06935169732414576 0.20533755770824302 0 0 0 0
          0.9999999999999999 0 0 -0.02577376339720948 0.22815512506277072 0
          0.3961882201389131 0.05386251195128942 0 0.17315332724667373 0.14885950488420432 0
          -0.0003470623094794645 0.2661954576747122 0 0 0 0
          -0.021750512494132946 0.2194315804632831 0 0.05974933809060905 0.23015350908221774 0
          -0.02159479063260329 0.28496726767735076 0 0 0 0
          0.0025798830537494895 0.27520082724641365 0 -0.016046470851435242 0.19754898909582305 0
          -0.028400841621689384 0.2798853403990879 0 -0.0266790687475698 0.2914674318277296 0
          0 0 0 -0.012692779625471485 0.17509292591382536 0
          -0.030493266868513145 0.26432355855276324 0 -0.04086808285189881 0.290983792015557 0
          0 0 0 -0.0106117795422285 0.15483039267744397 0
          -0.03012067156728301 0.24442667454531153 0 -0.04668142898812694 0.2808663865442543 0
          0 0 0 -0.008982780720271687 0.13657977230583182 0
          -0.028362530679644324 0.2228607527747592 0 -0.047997940953374084 0.26497341113697076 0
          0 0 0 -0.007616472932462755 0.12010722090253478 0
          -0.026051800428932913 0.20112364425726795 0 0 0 0
          -0.006495755597406206 0.10533828307868635 0 0 0 0
          -0.005589046495401036 0.09215621762548558 0 -0.023667836735618064 0.18011502470193322 0
          -0.046989707742455665 0.24584347894085656 0 0 0 0
          <InformationKey name="L2_NORM_RANGE" location="vtkDataArray" length="2">
            <Value index="0">
              0
            </Value>
            <Value index="1">
              1
            </Value>
          </InformationKey>
        </DataArray>
        <DataArray type="Float64" Name="Pressure" format="ascii" RangeMin="0" RangeMax="68.23553717319815">
          0 3.9740614732795563 25.299568733429357 28.065128526980946 20.2295347851168 45.44139349355377
          43.618642175765764 38.25997166930369 47.4165539803517 40.186531351972704 54.03356200206422 48.9230693713088
          50.99788893496498 52.92490572582547 52.70400148389293 52.628288326318 55.198895630273 56.25524321634359
          56.342126641495405 58.64406641444971 58.64507845326768 58.49982827804543 58.76266734135361 60.36655858941346
          61.74350343236372 60.75114397845504 60.75268524299257 61.859472695294734 63.76027347219527 62.60981551604342
          62.473119046611245 63.16595172362049 65.2382569899945 64.12582686956716 63.88410617358358 64.2521325914365
          66.33288472208855 65.31164458293233 65.005705572952 67.14700433675571 66.23192240344736 67.76303493472182
          66.95287230877798 65.89889282122176 65.14202734240634 68.23553717319815
        </DataArray>
      </PointData>
      <CellData>
        <DataArray type="UInt8" Name="vtkGhostType" format="ascii" RangeMin="0" RangeMax="0">
          0 0 0 0 0 0
          0 0 0 0 0 0
          0 0 0 0 0 0
          0 0 0 0 0 0
          0 0 0 0 0 0
          0 0 0 0 0 0
          0 0 0 0 0 0
          0 0 0 0 0 0
          0 0 0 0 0 0
          0 0 0 0 0 0
          0 0 0
        </DataArray>
      </CellData>
      <Points>
        <DataArray type="Float32" Name="Points" NumberOfComponents="3" format="ascii" RangeMin="0.6000000238418579" RangeMax="1.004987562260361">
          0 1 0 0 0.9666666388511658 0
          0.03333333507180214 1 0 0.03333333507180214 0.9666666388511658 0
          0 0.9333333373069763 0 0.06666667014360428 1 0
          0.06666667014360428 0.9666666388511658 0 0.03333333507180214 0.9333333373069763 0
          0.06666667014360428 0.9333333373069763 0 0 0.8999999761581421 0
          0.10000000149011612 1 0 0.03333333507180214 0.8999999761581421 0
          0.10000000149011612 0.9666666388511658 0 0.10000000149011612 0.9333333373069763 0
          0.06666667014360428 0.8999999761581421 0 0 0.8666666746139526 0
          0.03333333507180214 0.8666666746139526 0 0.10000000149011612 0.8999999761581421 0
          0.06666667014360428 0.8666666746139526 0 0 0.8333333134651184 0
          0.10000000149011612 0.8666666746139526 0 0.03333333507180214 0.8333333134651184 0
          0.06666667014360428 0.8333333134651184 0 0.10000000149011612 0.8333333134651184 0
          0 0.800000011920929 0 0.03333333507180214 0.800000011920929 0
          0.06666667014360428 0.800000011920929 0 0.10000000149011612 0.800000011920929 0
          0 0.7666666507720947 0 0.03333333507180214 0.7666666507720947 0
          0.06666667014360428 0.7666666507720947 0 0.10000000149011612 0.7666666507720947 0
          0 0.7333333492279053 0 0.03333333507180214 0.7333333492279053 0
          0.06666667014360428 0.7333333492279053 0 0.10000000149011612 0.7333333492279053 0
          0 0.699999988079071 0 0.03333333507180214 0.699999988079071 0
          0.06666667014360428 0.699999988079071 0 0 0.6666666865348816 0
          0.03333333507180214 0.6666666865348816 0 0 0.6333333253860474 0
          0.03333333507180214 0.6333333253860474 0 0.06666667014360428 0.6666666865348816 0
          0.10000000149011612 0.699999988079071 0 0 0.6000000238418579 0
          <InformationKey name="L2_NORM_RANGE" location="vtkDataArray" length="2">
            <Value index="0">
              0.60000002384
            </Value>
            <Value index="1">
              1.0049875623
            </Value>
          </InformationKey>
        </DataArray>
      </Points>
      <Cells>
        <DataArray type="Int64" Name="connectivity" format="ascii" RangeMin="0" RangeMax="45">
          42 40 41 40 39 41
          43 40 42 40 37 39
          37 36 39 43 38 40
          38 37 40 44 38 43
          37 33 36 33 32 36
          38 34 37 34 33 37
          44 35 38 35 34 38
          33 29 32 29 28 32
          34 30 33 30 29 33
          35 31 34 31 30 34
          29 25 28 25 24 28
          30 26 29 26 25 29
          31 27 30 27 26 30
          25 21 24 21 19 24
          26 22 25 22 21 25
          27 23 26 23 22 26
          21 16 19 16 15 19
          22 18 21 18 16 21
          23 20 22 20 18 22
          16 11 15 11 9 15
          18 14 16 14 11 16
          20 17 18 17 14 18
          11 7 9 7 4 9
          14 8 11 8 7 11
          17 13 14 13 8 14
          7 3 4 3 1 4
          8 6 7 6 3 7
          13 12 8 12 6 8
          3 2 1 2 0 1
          6 5 3 5 2 3
          12 10 6 10 5 6
          42 41 45
        </DataArray>
        <DataArray type="Int64" Name="offsets" format="ascii" RangeMin="3" RangeMax="189">
          3 6 9 12 15 18
          21 24 27 30 33 36
          39 42 45 48 51 54
          57 60 63 66 69 72
          75 78 81 84 87 90
          93 96 99 102 105 108
          111 114 117 120 123 126
          129 132 135 138 141 144
          147 150 153 156 159 162
          165 168 171 174 177 180
          183 186 189
        </DataArray>
        <DataArray type="UInt8" Name="types" format="ascii" RangeMin="5" RangeMax="5">
          5 5 5 5 5 5
          5 5 5 5 5 5
          5 5 5 5 5 5
          5 5 5 5 5 5
          5 5 5 5 5 5
          5 5 5 5 5 5
          5 5 5 5 5 5
          5 5 5 5 5 5
          5 5 5 5 5 5
          5 5 5 5 5 5
          5 5 5
        </DataArray>
      </Cells>
    </Piece>
  </UnstructuredGrid>
</VTKFile>
