<?xml version="1.0"?>
<VTKFile type="UnstructuredGrid" version="0.1" byte_order="LittleEndian" header_type="UInt32" compressor="vtkZLibDataCompressor">
  <UnstructuredGrid>
    <Piece NumberOfPoints="44" NumberOfCells="60">
      <PointData>
        <DataArray type="Float64" Name="Velocity" NumberOfComponents="3" format="ascii" RangeMin="0" RangeMax="0.07068227443312478">
          -0.01812161936661205 0.05622454763982727 0 -0.0014953721825162992 0.017058873044464976 0
          -0.007065165368847989 0.03260900531481117 0 -0.01612112060651485 0.04585662561255504 0
          0 0 0 -0.001269511594149319 0.013449904879846245 0
          -0.0061142158135743686 0.025890715992183084 0 -0.014160568242557618 0.03657487352583709 0
          0 0 0 -0.001016780730430948 0.010408011164324518 0
          -0.0051139415065073425 0.02006420063282922 0 -0.012122255645491546 0.028284959822135653 0
          0 0 0 -0.0007486157995631723 0.00785117757351444 0
          -0.004133922768115359 0.014959170573761085 0 -0.010167136673082824 0.020849162677445125 0
          0 0 0 -0.0005673586579157851 0.005588512963920128 0
          -0.0034573763505293125 0.010409506366256323 0 -0.009158092393650844 0.014178592047582327 0
          0 0 0 -0.0003935716329569945 0.0038387230074301035 0
          -0.0027927393219903487 0.007097356667818457 0 -0.009086565349881287 0.008279310736661757 0
          0 0 0 0.0006502020264218381 0.0041805266682063465 0
          0.00045947973759011816 0.007331199192589172 0 -0.003402927014103852 0.0027232989333107827 0
          0 0 0 0.0023811915160583032 0.008312110357568596 0
          0.007117459998808497 0.01244706244306524 0 0.014873825107985473 -0.007234919171686197 0
          0 0 0 -0.004127421065654736 0.01076171286234121 0
          -0.007918745514633375 0.01335758216355212 0 -0.02233163277791151 -0.045856653397654844 0
          0 0 0 0 0 0
          0 0 0 0 0 0
          -0.0017225170385867933 0.02122916925251612 0 0 0 0
          -0.008025639507585914 0.04025678991848728 0 -0.020230781326943677 0.06772517556965764 0
          <InformationKey name="L2_NORM_RANGE" location="vtkDataArray" length="2">
            <Value index="0">
              0
            </Value>
            <Value index="1">
              0.070682274433
            </Value>
          </InformationKey>
        </DataArray>
        <DataArray type="Float64" Name="Pressure" format="ascii" RangeMin="67.98139672268613" RangeMax="81.88595082890075">
          68.79061084796125 69.21222038451795 69.05097267070147 68.84879157690006 69.42777722351335 69.22344180145488
          69.07641084877079 68.8823431997874 69.39586334234313 69.22314658096656 69.09337872195987 68.91156931080914
          69.37030004142993 69.23789038568808 69.13598543243224 68.9616737377534 69.36752886511508 69.27984478263289
          69.19573500106819 68.95234736446298 69.33350362403846 69.25489056473391 69.09125837476526 68.60651906531047
          69.14015462479725 68.99735869823185 68.61624351062348 67.98139672268613 68.90217027105368 68.7364718639782
          68.45231504384454 68.90288648398615 69.26737625006211 69.44192268198528 70.7245681516431 74.30415995078926
          70.3905596125673 71.81322036706561 76.15125118277275 81.88595082890075 69.17989855499411 69.44684887887591
          69.00246274728852 68.70506426930848
        </DataArray>
      </PointData>
      <CellData>
        <DataArray type="UInt8" Name="vtkGhostType" format="ascii" RangeMin="0" RangeMax="1">
          1 1 1 0 1 1
          0 0 0 0 0 0
          0 0 0 0 0 0
          0 0 0 0 0 0
          0 0 0 0 0 0
          0 0 0 0 0 0
          0 0 0 0 0 0
          0 0 0 0 0 0
          0 0 0 0 0 0
          0 1 0 0 0 0
        </DataArray>
      </CellData>
      <Points>
        <DataArray type="Float32" Name="Points" NumberOfComponents="3" format="ascii" RangeMin="0" RangeMax="0.38005848309237544">
          0.10000000149011612 0.3333333432674408 0 0.03333333507180214 0.30000001192092896 0
          0.06666667014360428 0.30000001192092896 0 0.10000000149011612 0.30000001192092896 0
          0 0.2666666805744171 0 0.03333333507180214 0.2666666805744171 0
          0.06666667014360428 0.2666666805744171 0 0.10000000149011612 0.2666666805744171 0
          0 0.23333333432674408 0 0.03333333507180214 0.23333333432674408 0
          0.06666667014360428 0.23333333432674408 0 0.10000000149011612 0.23333333432674408 0
          0 0.20000000298023224 0 0.03333333507180214 0.20000000298023224 0
          0.06666667014360428 0.20000000298023224 0 0.10000000149011612 0.20000000298023224 0
          0 0.1666666716337204 0 0.03333333507180214 0.1666666716337204 0
          0.06666667014360428 0.1666666716337204 0 0.10000000149011612 0.1666666716337204 0
          0 0.13333334028720856 0 0.03333333507180214 0.13333334028720856 0
          0.06666667014360428 0.13333334028720856 0 0.10000000149011612 0.13333334028720856 0
          0 0.10000000149011612 0 0.03333333507180214 0.10000000149011612 0
          0.06666667014360428 0.10000000149011612 0 0.10000000149011612 0.10000000149011612 0
          0 0.06666667014360428 0 0.03333333507180214 0.06666667014360428 0
          0.06666667014360428 0.06666667014360428 0 0.10000000149011612 0.06666667014360428 0
          0 0.03333333507180214 0 0.03333333507180214 0.03333333507180214 0
          0.06666667014360428 0.03333333507180214 0 0.10000000149011612 0.03333333507180214 0
          0 0 0 0.03333333507180214 0 0
          0.06666667014360428 0 0 0.10000000149011612 0 0
          0.03333333507180214 0.3333333432674408 0 0 0.30000001192092896 0
          0.06666667014360428 0.3333333432674408 0 0.10000000149011612 0.36666667461395264 0
          <InformationKey name="L2_NORM_RANGE" location="vtkDataArray" length="2">
            <Value index="0">
              0
            </Value>
            <Value index="1">
              0.38005848309
            </Value>
          </InformationKey>
        </DataArray>
      </Points>
      <Cells>
        <DataArray type="Int64" Name="connectivity" format="ascii" RangeMin="0" RangeMax="43">
          1 40 41 2 42 1
          42 40 1 3 0 2
          0 42 2 0 43 42
          37 33 36 33 32 36
          38 34 37 34 33 37
          39 35 38 35 34 38
          33 29 32 29 28 32
          34 30 33 30 29 33
          35 31 34 31 30 34
          29 25 28 25 24 28
          30 26 29 26 25 29
          31 27 30 27 26 30
          25 21 24 21 20 24
          26 22 25 22 21 25
          27 23 26 23 22 26
          21 17 20 17 16 20
          22 18 21 18 17 21
          23 19 22 19 18 22
          17 13 16 13 12 16
          18 14 17 14 13 17
          19 15 18 15 14 18
          13 9 12 9 8 12
          14 10 13 10 9 13
          15 11 14 11 10 14
          9 5 8 5 4 8
          10 6 9 6 5 9
          11 7 10 7 6 10
          5 1 4 1 41 4
          6 2 5 2 1 5
          7 3 6 3 2 6
        </DataArray>
        <DataArray type="Int64" Name="offsets" format="ascii" RangeMin="3" RangeMax="180">
          3 6 9 12 15 18
          21 24 27 30 33 36
          39 42 45 48 51 54
          57 60 63 66 69 72
          75 78 81 84 87 90
          93 96 99 102 105 108
          111 114 117 120 123 126
          129 132 135 138 141 144
          147 150 153 156 159 162
          165 168 171 174 177 180
        </DataArray>
        <DataArray type="UInt8" Name="types" format="ascii" RangeMin="5" RangeMax="5">
          5 5 5 5 5 5
          5 5 5 5 5 5
          5 5 5 5 5 5
          5 5 5 5 5 5
          5 5 5 5 5 5
          5 5 5 5 5 5
          5 5 5 5 5 5
          5 5 5 5 5 5
          5 5 5 5 5 5
          5 5 5 5 5 5
        </DataArray>
      </Cells>
    </Piece>
  </UnstructuredGrid>
</VTKFile>
