<?xml version="1.0"?>
<VTKFile type="UnstructuredGrid" version="0.1" byte_order="LittleEndian" header_type="UInt32" compressor="vtkZLibDataCompressor">
  <UnstructuredGrid>
    <Piece NumberOfPoints="35" NumberOfCells="51">
      <PointData>
        <DataArray type="Float64" Name="nsi_SBC" NumberOfComponents="3" format="ascii" RangeMin="0" RangeMax="0">
          0 0 0 0 0 0
          0 0 0 0 0 0
          0 0 0 0 0 0
          0 0 0 0 0 0
          0 0 0 0 0 0
          0 0 0 0 0 0
          0 0 0 0 0 0
          0 0 0 0 0 0
          0 0 0 0 0 0
          0 0 0 0 0 0
          0 0 0 0 0 0
          0 0 0 0 0 0
          0 0 0 0 0 0
          0 0 0 0 0 0
          0 0 0 0 0 0
          0 0 0 0 0 0
          0 0 0 0 0 0
          0 0 0
          <InformationKey name="L2_NORM_RANGE" location="vtkDataArray" length="2">
            <Value index="0">
              0
            </Value>
            <Value index="1">
              0
            </Value>
          </InformationKey>
        </DataArray>
        <DataArray type="Float64" Name="nsi_SFIXNO" NumberOfComponents="3" format="ascii" RangeMin="0" RangeMax="1.7320508075688772">
          0 0 0 0 0 0
          0 0 0 -1 -1 -1
          -1 -1 -1 0 0 0
          0 0 0 -1 -1 -1
          -1 -1 -1 -1 -1 -1
          -1 -1 -1 -1 -1 -1
          0 0 0 0 0 0
          -1 -1 -1 -1 -1 -1
          -1 -1 -1 -1 -1 -1
          -1 -1 -1 -1 -1 -1
          0 0 0 0 0 0
          -1 -1 -1 0 0 0
          0 0 0 0 0 0
          -1 -1 -1 -1 -1 -1
          0 0 0 -1 -1 -1
          0 0 0 -1 -1 -1
          0 0 0 0 0 0
          0 0 0
          <InformationKey name="L2_NORM_RANGE" location="vtkDataArray" length="2">
            <Value index="0">
              0
            </Value>
            <Value index="1">
              1.7320508076
            </Value>
          </InformationKey>
        </DataArray>
        <DataArray type="Float64" Name="nsi_UBC" NumberOfComponents="3" format="ascii" RangeMin="0" RangeMax="0">
          0 0 0 0 0 0
          0 0 0 0 0 0
          0 0 0 0 0 0
          0 0 0 0 0 0
          0 0 0 0 0 0
          0 0 0 0 0 0
          0 0 0 0 0 0
          0 0 0 0 0 0
          0 0 0 0 0 0
          0 0 0 0 0 0
          0 0 0 0 0 0
          0 0 0 0 0 0
          0 0 0 0 0 0
          0 0 0 0 0 0
          0 0 0 0 0 0
          0 0 0 0 0 0
          0 0 0 0 0 0
          0 0 0
          <InformationKey name="L2_NORM_RANGE" location="vtkDataArray" length="2">
            <Value index="0">
              0
            </Value>
            <Value index="1">
              0
            </Value>
          </InformationKey>
        </DataArray>
        <DataArray type="Float64" Name="nsi_UFIXNO" NumberOfComponents="3" format="ascii" RangeMin="1" RangeMax="1.4142135623730951">
          1 1 0 1 0 0
          0 1 0 -1 -1 0
          -1 -1 0 1 0 0
          0 1 0 -1 -1 0
          -1 -1 0 -1 -1 0
          -1 -1 0 -1 -1 0
          1 0 0 0 1 0
          -1 -1 0 -1 -1 0
          -1 -1 0 -1 -1 0
          -1 -1 0 -1 -1 0
          1 1 0 1 1 0
          -1 -1 0 0 1 0
          1 0 0 0 1 0
          -1 -1 0 -1 -1 0
          1 0 0 -1 -1 0
          0 1 0 -1 -1 0
          1 0 0 0 1 0
          1 1 0
          <InformationKey name="L2_NORM_RANGE" location="vtkDataArray" length="2">
            <Value index="0">
              1
            </Value>
            <Value index="1">
              1.4142135624
            </Value>
          </InformationKey>
        </DataArray>
        <DataArray type="Float64" Name="lev_BC" format="ascii" RangeMin="-1" RangeMax="1">
          -1 0 -1 -1 0 1
          -1 -1 -1 0 -1 -1
          1 -1 -1 -1 1 -1
          0 -1 1 -1 -1 1
          -1 1 -1 0 -1 -1
          1 -1 -1 0 -1
        </DataArray>
        <DataArray type="Float64" Name="lev_FIXNO" format="ascii" RangeMin="0" RangeMax="0">
          0 0 0 0 0 0
          0 0 0 0 0 0
          0 0 0 0 0 0
          0 0 0 0 0 0
          0 0 0 0 0 0
          0 0 0 0 0
        </DataArray>
        <DataArray type="Float64" Name="Velocity" NumberOfComponents="3" format="ascii" RangeMin="0" RangeMax="1.9435018516817737">
          0 0 0 0 -1.9435018516817737 0
          -1.1797892440375317 0 0 -0.7998737279694326 0.046282469527719076 0
          0.05418684901119409 -1.2158014303781344 0 0 -1.172118456161903 0
          -0.9407460615349007 0 0 -0.11846497975085431 0.24705036601727928 0
          -0.6234142044638709 0.19485373667234462 0 0.42707406515639756 -0.6156931802020662 0
          -0.15330902832719034 0.12975356861551374 0 0.3385928434650347 -0.10768690371672324 0
          0 -0.3993031787133612 0 -0.5733868121704409 0 0
          -0.445748999970381 0.3394289000773074 0 0.40629574942888014 0.225397312336514 0
          0.415501174785082 -0.26490417538978744 0 -0.3047326288636093 0.5418887709860687 0
          0.8201866368617381 -0.11974109754273249 0 -0.11212055572474083 0.9395917999517271 0
          0 0 0 0 0 0
          0.7597750949484906 0.3212292762785222 0 0.285818602334751 0 0
          0 0.6814884160983574 0 0.6159913828832562 0 0
          0.12862597179717727 1.1308868376549204 0 1.119804217820929 0.14367127442026156 0
          0 1.3225632042631883 0 0.9847306453689693 0.3889356643883663 0
          0.8888560732302914 0 0 1.2522779017794077 0.4010439449673404 0
          0 1.3861724110703115 0 1.3030010766426894 0 0
          0 0 0
          <InformationKey name="L2_NORM_RANGE" location="vtkDataArray" length="2">
            <Value index="0">
              0
            </Value>
            <Value index="1">
              1.9435018517
            </Value>
          </InformationKey>
        </DataArray>
        <DataArray type="Float64" Name="Pressure" format="ascii" RangeMin="-198.22845195136057" RangeMax="436.5296659191657">
          -198.22845195136057 -195.98161626422103 -168.9999294656242 -145.711165949213 -90.75859572985829 16.76667899731003
          -138.679493539642 -115.49506599655781 -130.495909747886 0.8848615535394084 -128.33184810704657 -114.05054223332672
          207.1712721195504 -122.5680360059392 -117.85715967623958 -189.17418295396652 211.54818366871217 -112.7774622023201
          38.986854116630184 -95.6468953947411 436.5296659191657 -116.27965720601807 -88.17082734526761 412.3454966145969
          -108.81394961081546 314.0138533390058 -52.149930860532145 73.10519768370398 -80.34245189541019 -52.55079827704775
          205.32954640180824 15.760899521199738 5.127961721502201 124.74649128884158 166.0056262631337
        </DataArray>
        <DataArray type="Float64" Name="Sigma" NumberOfComponents="6" format="ascii" RangeMin="1.5309595792172357" RangeMax="174.04719246091605">
          -79.89786101971517 154.58869685945945 0 -3.330437102782411 0 0
          1.252360221178809 -1.0701490117862154 0 0.27259292245924815 0 0
          -30.222917227753527 45.25672832591705 0 6.388281283105574 0 0
          -10.970280624417303 13.724471938761859 0 10.694889937344627 0 0
          1.2556727930432658 -1.0599315645713265 0 0.2724525572417562 0 0
          1.2503512469778615 -1.066163833704574 0 0.2696479751274454 0 0
          26.12389191996408 -20.573222177501002 0 -13.876233993851166 0 0
          3.428924698643223 34.33783851125587 0 -4.3933407537455 0 0
          7.32278364987625 -12.895179776375379 0 -13.139781612135973 0 0
          1.2736283770775867 -1.0353644965782278 0 0.2778828827813725 0 0
          -10.688612433420086 9.085094924075111 0 -17.03290865031458 0 0
          0.04647474163873466 3.313434755925596 0 0.6380130662325283 0 0
          1.2600777953224465 -1.0671974398806119 0 0.2653524363270724 0 0
          13.798259264868504 -13.385414100517043 0 -0.0465479455364438 0 0
          13.88810082741737 -11.822777461673322 0 2.912212975611041 0 0
          -0.2893591409885689 6.468781487863817 0 1.4107324872837779 0 0
          1.3775282375988542 -0.8508297508204522 0 0.293794927074434 0 0
          -6.228503632056926 -13.780335665454508 0 7.304423967490445 0 0
          1.2192288441501606 2.828372761249894 0 0.9380786196842743 0 0
          -42.18615200916735 -1.7450479072170255 0 9.74376178504297 0 0
          1.193588156679576 -0.9581183191140554 0 0.034551874179626005 0 0
          27.259400347936573 -27.46173883130566 0 -0.49155365808102813 0 0
          -2.2934816401749782 12.763368210938431 0 2.7892476850496237 0 0
          1.2776128792619168 -0.8589585677165337 0 0.07409264042040827 0 0
          21.283460855591684 -23.99158832274008 0 5.892178181611679 0 0
          1.3339951506189083 2.6882945411228185 0 0.8896375948129441 0 0
          -29.31673907101355 18.044358931708405 0 6.341446020498131 0 0
          0.6848636162992896 4.501677067327729 0 0.9399276476297274 0 0
          34.156719817288234 -28.06969504078316 0 7.7087054851385 0 0
          -7.120630095900671 20.199078446348732 0 1.253198987758824 0 0
          0.6824172468919837 4.525129122622104 0 0.9366967922423064 0 0
          -11.190632996766805 28.514226689975963 0 0.11696179985505153 0 0
          -124.76008561583393 42.82584310073784 0 23.40996441747415 0 0
          0.4639319175227647 5.096391123230347 0 0.9161395612929281 0 0
          -17.18977277640487 29.24524355278143 0 -0.8064833042132704 0 0
          <InformationKey name="L2_NORM_RANGE" location="vtkDataArray" length="2">
            <Value index="0">
              1.5309595792
            </Value>
            <Value index="1">
              174.04719246
            </Value>
          </InformationKey>
        </DataArray>
        <DataArray type="Float64" Name="LEVEL" format="ascii" RangeMin="-0.9363005763721053" RangeMax="0.645002363252192">
          -0.274178237856064 -0.22077087507279483 -0.5018041891152973 -0.42074247263734954 -0.1852545960993871 0.008502201938363457
          -0.6764577674282937 -0.3302961956857071 -0.580684901495772 -0.06099515313291897 -0.41617582691609234 -0.18277961829408762
          0.34036119658560476 -0.8222103974153103 -0.6040371611834606 -0.20352801166188855 0.22895127218332398 -0.322865967146744
          0.0557666657684996 -0.162609743803991 0.645002363252192 -0.9363005763721053 -0.03642687979140437 0.4576332196909891
          -0.5006914415210666 0.31361641095993625 -0.093575148452404 0.11721264170129196 -0.20205293182840128 0.012241612981967118
          0.20911876386485145 0.07324702485455392 -0.09214514227578319 0.11288621389158593 -0.015580601126779045
        </DataArray>
      </PointData>
      <CellData>
        <DataArray type="UInt8" Name="vtkGhostType" format="ascii" RangeMin="0" RangeMax="0">
          0 0 0 0 0 0
          0 0 0 0 0 0
          0 0 0 0 0 0
          0 0 0 0 0 0
          0 0 0 0 0 0
          0 0 0 0 0 0
          0 0 0 0 0 0
          0 0 0 0 0 0
          0 0 0
        </DataArray>
      </CellData>
      <Points>
        <DataArray type="Float32" Name="Points" NumberOfComponents="3" format="ascii" RangeMin="0" RangeMax="1.4142135623730951">
          0 1 0 0 0.7799999713897705 0
          0.25 1 0 0.3173084855079651 0.8117569088935852 0
          0.1888372004032135 0.6106976866722107 0 0 0.5199999809265137 0
          0.5 1 0 0.43114039301872253 0.6648067235946655 0
          0.5338732004165649 0.815037190914154 0 0.37767431139945984 0.4413954019546509 0
          0.6174687743186951 0.6476302742958069 0 0.5365368127822876 0.5048667788505554 0
          0 0.25999999046325684 0 0.75 1 0
          0.782043993473053 0.8033316731452942 0 0.6966695785522461 0.4923292100429535 0
          0.32800689339637756 0.19591359794139862 0 0.7909218072891235 0.6301581263542175 0
          0.5597307085990906 0.27817249298095703 0 0.8505734801292419 0.47420310974121094 0
          0 0 0 1 1 0
          0.7649514079093933 0.327553391456604 0 0.23776529729366302 0 0
          1 0.7271645069122314 0 0.4648641049861908 0 0
          0.9007874131202698 0.35183119773864746 0 0.7203437089920044 0.13417460024356842 0
          1 0.4593985974788666 0 0.855294406414032 0.23049800097942352 0
          0.6747748255729675 0 0 0.8903893828392029 0.11795260012149811 0
          1 0.22097820043563843 0 0.8700000047683716 0 0
          1 0 0
          <InformationKey name="L2_NORM_RANGE" location="vtkDataArray" length="2">
            <Value index="0">
              0
            </Value>
            <Value index="1">
              1.4142135624
            </Value>
          </InformationKey>
        </DataArray>
      </Points>
      <Cells>
        <DataArray type="Int64" Name="connectivity" format="ascii" RangeMin="0" RangeMax="34">
          30 33 27 30 27 25
          23 25 16 27 18 25
          20 23 12 18 9 16
          18 16 25 23 16 12
          16 9 12 9 4 12
          4 1 5 4 5 12
          33 34 31 31 34 32
          33 31 27 31 32 29
          29 32 26 31 29 27
          26 32 28 29 26 22
          26 28 19 22 26 19
          29 22 27 22 19 15
          15 19 17 22 15 18
          28 24 17 28 17 19
          15 17 10 10 17 14
          15 10 11 14 17 24
          10 14 8 11 10 7
          15 11 18 8 14 13
          10 8 7 7 8 3
          11 7 9 11 9 18
          18 27 22 3 8 6
          6 8 13 7 3 4
          14 24 21 14 21 13
          0 1 2 9 7 4
          3 6 2 3 2 1
          1 4 3
        </DataArray>
        <DataArray type="Int64" Name="offsets" format="ascii" RangeMin="3" RangeMax="153">
          3 6 9 12 15 18
          21 24 27 30 33 36
          39 42 45 48 51 54
          57 60 63 66 69 72
          75 78 81 84 87 90
          93 96 99 102 105 108
          111 114 117 120 123 126
          129 132 135 138 141 144
          147 150 153
        </DataArray>
        <DataArray type="UInt8" Name="types" format="ascii" RangeMin="5" RangeMax="5">
          5 5 5 5 5 5
          5 5 5 5 5 5
          5 5 5 5 5 5
          5 5 5 5 5 5
          5 5 5 5 5 5
          5 5 5 5 5 5
          5 5 5 5 5 5
          5 5 5 5 5 5
          5 5 5
        </DataArray>
      </Cells>
    </Piece>
  </UnstructuredGrid>
</VTKFile>
