<?xml version="1.0"?>
<VTKFile type="UnstructuredGrid" version="0.1" byte_order="LittleEndian" header_type="UInt32" compressor="vtkZLibDataCompressor">
  <UnstructuredGrid>
    <Piece NumberOfPoints="46" NumberOfCells="65">
      <PointData>
        <DataArray type="Float64" Name="nsi_BC" NumberOfComponents="3" format="ascii" RangeMin="0" RangeMax="40">
          0 0 0 0 0 0
          0 0 0 0 0 0
          0 0 0 0 0 0
          0 0 0 0 0 0
          0 0 0 0 0 0
          0 0 0 0 0 0
          0 0 0 0 0 0
          0 0 0 0 0 0
          0 0 0 0 0 0
          0 0 0 0 0 0
          0 0 0 0 0 0
          0 0 0 0 0 0
          0 0 0 0 0 0
          0 0 0 0 0 0
          0 0 0 0 0 0
          40 0 0 40 0 0
          40 0 0 40 0 0
          0 0 0 0 0 0
          0 0 0 0 0 0
          0 0 0 0 0 0
          0 0 0 0 0 0
          0 0 0 0 0 0
          40 0 0 0 0 0
          <InformationKey name="L2_NORM_RANGE" location="vtkDataArray" length="2">
            <Value index="0">
              0
            </Value>
            <Value index="1">
              40
            </Value>
          </InformationKey>
        </DataArray>
        <DataArray type="Float64" Name="nsi_FIXNO" NumberOfComponents="3" format="ascii" RangeMin="1" RangeMax="1.4142135623730951">
          -1 -1 0 -1 -1 0
          0 1 0 -1 -1 0
          -1 -1 0 0 1 0
          -1 -1 0 -1 -1 0
          -1 -1 0 -1 -1 0
          0 1 0 -1 -1 0
          -1 -1 0 -1 -1 0
          1 1 0 -1 -1 0
          0 1 0 1 1 0
          -1 -1 0 -1 -1 0
          -1 -1 0 0 1 0
          -1 -1 0 -1 -1 0
          -1 -1 0 0 1 0
          0 1 0 -1 -1 0
          -1 -1 0 -1 -1 0
          1 1 0 1 1 0
          1 1 0 1 1 0
          0 1 0 -1 -1 0
          -1 -1 0 -1 -1 0
          -1 -1 0 1 1 0
          1 1 0 -1 -1 0
          -1 -1 0 -1 -1 0
          1 1 0 -1 -1 0
          <InformationKey name="L2_NORM_RANGE" location="vtkDataArray" length="2">
            <Value index="0">
              1
            </Value>
            <Value index="1">
              1.4142135624
            </Value>
          </InformationKey>
        </DataArray>
      </PointData>
      <CellData>
        <DataArray type="UInt8" Name="vtkGhostType" format="ascii" RangeMin="0" RangeMax="1">
          0 1 0 0 0 1
          0 1 0 1 1 0
          0 0 0 0 0 0
          0 0 1 1 1 0
          0 0 0 0 0 0
          0 0 0 0 0 0
          0 0 0 0 0 1
          0 0 0 0 0 0
          0 0 0 0 0 0
          0 0 0 0 0 0
          0 0 0 0 0
        </DataArray>
      </CellData>
      <Points>
        <DataArray type="Float32" Name="Points" NumberOfComponents="3" format="ascii" RangeMin="4.105142617938469" RangeMax="10.703639660792414">
          7.111111164093018 5.749299049377441 0 6.6666669845581055 7.076855182647705 0
          6.222221851348877 8 0 5.777778148651123 7.076855182647705 0
          5.675971031188965 6.142068862915039 0 5.3333330154418945 8 0
          5.699848175048828 4.957938194274902 0 4.888888835906982 7.076855182647705 0
          5.571450233459473 4 0 4.785725116729736 5.3609161376953125 0
          4.444444179534912 8 0 4.824699878692627 4.476140975952148 0
          4 7.076855182647705 0 4.020326137542725 5.951079845428467 0
          4.25 4.433012962341309 0 4 4.952281951904297 0
          3.555556058883667 8 0 3.75 4.433012962341309 0
          3.1111109256744385 7.076855182647705 0 3.2142748832702637 5.3609161376953125 0
          3.175299882888794 4.476140975952148 0 2.6666669845581055 8 0
          2.324028968811035 6.142068862915039 0 2.222222089767456 7.076855182647705 0
          2.300152063369751 4.957938194274902 0 1.7777780294418335 8 0
          0.8888888955116272 8 0 0.9231445789337158 6.6666669845581055 0
          0.9231445789337158 5.777778148651123 0 0.9231445789337158 4.888888835906982 0
          0 8 0 0 7.111111164093018 0
          0 6.222221851348877 0 0 5.3333330154418945 0
          7.111111164093018 8 0 5.699848175048828 3.0420620441436768 0
          6.700017929077148 3.6636950969696045 0 7.555555820465088 7.076855182647705 0
          8.88888931274414 5.749299049377441 0 3.5 4 0
          4.5 4 0 3.175299882888794 3.5238590240478516 0
          4.824699878692627 3.5238590240478516 0 2.4285500049591064 4 0
          0 4.444444179534912 0 0.9231445789337158 4 0
          <InformationKey name="L2_NORM_RANGE" location="vtkDataArray" length="2">
            <Value index="0">
              4.1051426179
            </Value>
            <Value index="1">
              10.703639661
            </Value>
          </InformationKey>
        </DataArray>
      </Points>
      <Cells>
        <DataArray type="Int64" Name="connectivity" format="ascii" RangeMin="0" RangeMax="45">
          2 5 3 34 2 1
          5 10 7 9 11 6
          11 8 6 8 35 36
          13 9 7 6 8 36
          9 6 4 37 34 1
          37 1 0 7 10 12
          7 12 13 1 2 3
          1 3 4 4 3 7
          7 3 5 4 6 0
          9 4 7 1 4 0
          38 37 0 0 6 36
          38 0 36 17 14 15
          39 17 20 14 40 11
          15 14 11 20 17 15
          41 39 20 11 40 42
          10 16 12 21 25 23
          16 21 18 20 15 19
          19 15 13 20 19 24
          15 11 9 15 9 13
          41 20 43 43 20 24
          11 42 8 8 42 35
          24 19 22 19 13 18
          18 21 23 18 23 22
          22 23 27 27 28 22
          12 16 18 12 18 13
          22 19 18 24 22 28
          33 44 29 26 30 31
          31 32 27 25 26 27
          32 33 28 43 24 45
          23 25 27 29 44 45
          29 45 24 27 32 28
          28 33 29 28 29 24
          31 27 26
        </DataArray>
        <DataArray type="Int64" Name="offsets" format="ascii" RangeMin="3" RangeMax="195">
          3 6 9 12 15 18
          21 24 27 30 33 36
          39 42 45 48 51 54
          57 60 63 66 69 72
          75 78 81 84 87 90
          93 96 99 102 105 108
          111 114 117 120 123 126
          129 132 135 138 141 144
          147 150 153 156 159 162
          165 168 171 174 177 180
          183 186 189 192 195
        </DataArray>
        <DataArray type="UInt8" Name="types" format="ascii" RangeMin="5" RangeMax="5">
          5 5 5 5 5 5
          5 5 5 5 5 5
          5 5 5 5 5 5
          5 5 5 5 5 5
          5 5 5 5 5 5
          5 5 5 5 5 5
          5 5 5 5 5 5
          5 5 5 5 5 5
          5 5 5 5 5 5
          5 5 5 5 5 5
          5 5 5 5 5
        </DataArray>
      </Cells>
    </Piece>
  </UnstructuredGrid>
</VTKFile>
