<?xml version="1.0"?>
<VTKFile type="UnstructuredGrid" version="0.1" byte_order="LittleEndian" header_type="UInt32" compressor="vtkZLibDataCompressor">
  <UnstructuredGrid>
    <Piece NumberOfPoints="45" NumberOfCells="60">
      <PointData>
        <DataArray type="Float64" Name="nsi_BC" NumberOfComponents="3" format="ascii" RangeMin="0" RangeMax="40">
          0 0 0 0 0 0
          0 0 0 0 0 0
          0 0 0 0 0 0
          0 0 0 0 0 0
          0 0 0 0 0 0
          0 0 0 0 0 0
          0 0 0 0 0 0
          0 0 0 0 0 0
          0 0 0 0 0 0
          0 0 0 0 0 0
          0 0 0 0 0 0
          0 0 0 0 0 0
          0 0 0 0 0 0
          40 0 0 40 0 0
          40 0 0 0 0 0
          40 0 0 40 0 0
          40 0 0 0 0 0
          0 0 0 0 0 0
          0 0 0 0 0 0
          0 0 0 0 0 0
          0 0 0 0 0 0
          0 0 0 40 0 0
          0 0 0
          <InformationKey name="L2_NORM_RANGE" location="vtkDataArray" length="2">
            <Value index="0">
              0
            </Value>
            <Value index="1">
              40
            </Value>
          </InformationKey>
        </DataArray>
        <DataArray type="Float64" Name="nsi_FIXNO" NumberOfComponents="3" format="ascii" RangeMin="1" RangeMax="1.4142135623730951">
          -1 -1 0 1 1 0
          -1 -1 0 1 1 0
          -1 -1 0 1 1 0
          1 1 0 -1 -1 0
          0 1 0 -1 -1 0
          -1 -1 0 -1 -1 0
          -1 -1 0 0 1 0
          -1 -1 0 -1 -1 0
          -1 -1 0 0 1 0
          -1 -1 0 -1 -1 0
          0 1 0 -1 -1 0
          -1 -1 0 -1 -1 0
          0 1 0 -1 -1 0
          1 1 0 1 1 0
          1 1 0 0 1 0
          1 1 0 1 1 0
          1 1 0 1 1 0
          -1 -1 0 1 1 0
          -1 -1 0 0 1 0
          -1 -1 0 -1 -1 0
          -1 -1 0 -1 -1 0
          -1 -1 0 1 1 0
          -1 -1 0
          <InformationKey name="L2_NORM_RANGE" location="vtkDataArray" length="2">
            <Value index="0">
              1
            </Value>
            <Value index="1">
              1.4142135624
            </Value>
          </InformationKey>
        </DataArray>
      </PointData>
      <CellData>
        <DataArray type="UInt8" Name="vtkGhostType" format="ascii" RangeMin="0" RangeMax="1">
          0 0 0 1 1 0
          1 0 1 1 0 0
          0 1 0 0 0 1
          1 0 1 1 0 1
          0 0 0 0 1 1
          1 0 1 0 0 0
          0 0 0 0 0 1
          0 0 0 0 0 0
          0 0 1 1 0 0
          0 0 0 0 0 0
        </DataArray>
      </CellData>
      <Points>
        <DataArray type="Float32" Name="Points" NumberOfComponents="3" format="ascii" RangeMin="0" RangeMax="6.858648387540771">
          4.824699878692627 3.5238590240478516 0 4.5 4 0
          4.785725116729736 2.6390841007232666 0 4.25 3.5669870376586914 0
          4 3.047718048095703 0 3.75 3.5669870376586914 0
          3.5 4 0 4.888888835906982 0.9231445789337158 0
          5.3333330154418945 0 0 3.9796741008758545 2.048919916152954 0
          3.175299882888794 3.5238590240478516 0 3.2142748832702637 2.6390841007232666 0
          4 0.9231445789337158 0 4.444444179534912 0 0
          2.4285500049591064 4 0 2.300152063369751 3.0420620441436768 0
          3.1111109256744385 0.9231445789337158 0 3.555556058883667 0 0
          2.324028968811035 1.8579310178756714 0 2.222222089767456 0.9231445789337158 0
          2.6666669845581055 0 0 0.9231445789337158 4 0
          0.9231445789337158 3.1111109256744385 0 0.9231445789337158 2.222222089767456 0
          1.7777780294418335 0 0 1.1622949838638306 1.095708966255188 0
          0 4.444444179534912 0 0 3.555556058883667 0
          0 2.6666669845581055 0 0.8888888955116272 0 0
          0 1.7777780294418335 0 0 0.8888888955116272 0
          0 0 0 3.75 4.433012962341309 0
          3.175299882888794 4.476140975952148 0 4.25 4.433012962341309 0
          4.824699878692627 4.476140975952148 0 6.222221851348877 0 0
          5.777778148651123 0.9231445789337158 0 5.699848175048828 3.0420620441436768 0
          2.300152063369751 4.957938194274902 0 5.571450233459473 4 0
          5.675971031188965 1.8579310178756714 0 0 5.3333330154418945 0
          0.9231445789337158 4.888888835906982 0
          <InformationKey name="L2_NORM_RANGE" location="vtkDataArray" length="2">
            <Value index="0">
              0
            </Value>
            <Value index="1">
              6.8586483875
            </Value>
          </InformationKey>
        </DataArray>
      </Points>
      <Cells>
        <DataArray type="Int64" Name="connectivity" format="ascii" RangeMin="0" RangeMax="44">
          1 3 0 5 6 10
          3 5 4 6 33 34
          35 1 36 0 3 4
          10 6 34 4 5 10
          36 1 0 8 37 38
          13 8 7 0 4 2
          2 4 9 0 2 39
          4 10 11 11 10 15
          4 11 9 10 34 14
          14 34 40 10 14 15
          36 0 41 41 0 39
          9 11 16 39 2 42
          2 9 7 16 12 9
          12 13 7 12 7 9
          38 42 7 38 7 8
          42 2 7 32 29 31
          43 26 44 17 13 12
          30 31 25 24 20 19
          27 28 22 29 24 25
          26 27 21 20 17 16
          28 30 23 14 40 21
          15 14 21 11 15 18
          16 17 12 21 27 22
          21 22 15 19 20 16
          19 16 18 19 18 25
          44 26 21 44 21 40
          23 30 25 23 25 18
          22 28 23 22 23 15
          25 31 29 24 19 25
          18 15 23 11 18 16
        </DataArray>
        <DataArray type="Int64" Name="offsets" format="ascii" RangeMin="3" RangeMax="180">
          3 6 9 12 15 18
          21 24 27 30 33 36
          39 42 45 48 51 54
          57 60 63 66 69 72
          75 78 81 84 87 90
          93 96 99 102 105 108
          111 114 117 120 123 126
          129 132 135 138 141 144
          147 150 153 156 159 162
          165 168 171 174 177 180
        </DataArray>
        <DataArray type="UInt8" Name="types" format="ascii" RangeMin="5" RangeMax="5">
          5 5 5 5 5 5
          5 5 5 5 5 5
          5 5 5 5 5 5
          5 5 5 5 5 5
          5 5 5 5 5 5
          5 5 5 5 5 5
          5 5 5 5 5 5
          5 5 5 5 5 5
          5 5 5 5 5 5
          5 5 5 5 5 5
        </DataArray>
      </Cells>
    </Piece>
  </UnstructuredGrid>
</VTKFile>
