<?xml version="1.0"?>
<VTKFile type="UnstructuredGrid" version="0.1" byte_order="LittleEndian" header_type="UInt32" compressor="vtkZLibDataCompressor">
  <UnstructuredGrid>
    <Piece NumberOfPoints="45" NumberOfCells="60">
      <PointData>
        <DataArray type="Float64" Name="nsi_BC" NumberOfComponents="3" format="ascii" RangeMin="0" RangeMax="40">
          0 0 0 0 0 0
          0 0 0 0 0 0
          0 0 0 0 0 0
          0 0 0 0 0 0
          0 0 0 0 0 0
          0 0 0 0 0 0
          0 0 0 0 0 0
          0 0 0 0 0 0
          0 0 0 0 0 0
          0 0 0 0 0 0
          0 0 0 0 0 0
          0 0 0 0 0 0
          0 0 0 0 0 0
          40 0 0 40 0 0
          40 0 0 0 0 0
          40 0 0 40 0 0
          40 0 0 0 0 0
          0 0 0 0 0 0
          0 0 0 0 0 0
          0 0 0 0 0 0
          0 0 0 0 0 0
          0 0 0 40 0 0
          0 0 0
          <InformationKey name="L2_NORM_RANGE" location="vtkDataArray" length="2">
            <Value index="0">
              0
            </Value>
            <Value index="1">
              40
            </Value>
          </InformationKey>
        </DataArray>
        <DataArray type="Float64" Name="nsi_FIXNO" NumberOfComponents="3" format="ascii" RangeMin="1" RangeMax="1.4142135623730951">
          -1 -1 0 1 1 0
          -1 -1 0 1 1 0
          -1 -1 0 1 1 0
          1 1 0 -1 -1 0
          0 1 0 -1 -1 0
          -1 -1 0 -1 -1 0
          -1 -1 0 0 1 0
          -1 -1 0 -1 -1 0
          -1 -1 0 0 1 0
          -1 -1 0 -1 -1 0
          0 1 0 -1 -1 0
          -1 -1 0 -1 -1 0
          0 1 0 -1 -1 0
          1 1 0 1 1 0
          1 1 0 0 1 0
          1 1 0 1 1 0
          1 1 0 1 1 0
          -1 -1 0 1 1 0
          -1 -1 0 0 1 0
          -1 -1 0 -1 -1 0
          -1 -1 0 -1 -1 0
          -1 -1 0 1 1 0
          -1 -1 0
          <InformationKey name="L2_NORM_RANGE" location="vtkDataArray" length="2">
            <Value index="0">
              1
            </Value>
            <Value index="1">
              1.4142135624
            </Value>
          </InformationKey>
        </DataArray>
        <DataArray type="Float64" Name="Velocity" NumberOfComponents="3" format="ascii" RangeMin="0" RangeMax="54.85068697765138">
          16.08491694040289 2.9831278956020224 0 0 0 0
          51.91850869051998 -5.049186605950466 0 0 0 0
          52.89115352418568 -14.530097756082558 0 0 0 0
          0 0 0 45.278462768694816 -0.7087570020586991 0
          45.68520822497301 0 0 44.59497615414964 -3.4686304191814714 0
          33.04987394492404 -6.702458311706989 0 42.15056751443323 -7.488971363934952 0
          44.69923079333956 -1.5652341466554458 0 44.56943176051305 0 0
          36.877770829052935 -0.1341054131378004 0 38.79080946166887 -2.4399895037701285 0
          41.95238582151447 -1.0316773677159599 0 44.16814522676025 0 0
          41.09869195499237 -2.7115889187348157 0 40.77847576471452 -0.693652988783022 0
          41.9554327414409 0 0 39.825173889829564 -0.053469415090858174 0
          39.80454721520748 -0.6024350949094585 0 40.005767619905285 -0.6465112813370485 0
          40.51925431802914 0 0 40.25856803776022 -0.5697794165793151 0
          40.0000000000003 0 0 40.00000000000018 0 0
          40.000000000000234 0 0 40.144907951933895 0 0
          40.00000000000023 0 0 40.00000000000023 0 0
          40.00000000000023 0 0 0 0 0
          33.54108241159243 7.040870865895786 0 0 0 0
          19.354381207195143 -2.7872840933527616 0 45.312552524531704 0 0
          45.84561210114717 -0.28872466712724065 0 39.6171828780749 2.0088704043812275 0
          38.72262251099518 2.3811090828910104 0 -3.3155883405940054 0.10282612286024025 0
          50.9048126145667 -2.1257229629461087 0 40.00000000000025 0 0
          39.85813038027189 0.7543624000744121 0
          <InformationKey name="L2_NORM_RANGE" location="vtkDataArray" length="2">
            <Value index="0">
              0
            </Value>
            <Value index="1">
              54.850686978
            </Value>
          </InformationKey>
        </DataArray>
        <DataArray type="Float64" Name="Pressure" format="ascii" RangeMin="-544.5911638698501" RangeMax="999.2234121087096">
          -475.0713973850834 -544.5911638698501 -100.67876188231482 -392.50376614702253 -275.8921605147977 495.736779840299
          999.2234121087096 11.391756023139372 5.598232067698425 93.3551699733386 650.2101373060872 196.1786494921069
          64.98402495873822 71.78280831618643 443.25588580656455 369.6697203878728 189.08252977234727 82.76644174879142
          236.68855697278045 231.82626795540654 173.628435339746 338.89235447917963 329.90811841979877 297.9173292298387
          231.98591059181837 253.0662406545675 327.5577468186372 329.6004329565614 308.99510479062627 246.74856855634172
          282.86047094236704 260.16868141710677 254.40336391010212 398.5725826091225 618.2150613703247 -402.33222067059666
          -480.63467760925704 -4.336783865108973 4.699551937807011 -220.5242557510163 366.9482832387377 -114.17763723978639
          -45.346593127792666 304.1152192971819 323.21328496409745
        </DataArray>
        <DataArray type="Float64" Name="stream" format="ascii" RangeMin="-319.52278178203767" RangeMax="-107.88358397708782">
          -162.25154825415513 -154.94277227138647 -194.28919757622572 -162.42266531445316 -177.64475969160168 -165.09435000190817
          -161.62511227654215 -275.8695492275298 -317.69432322956914 -226.1623747393945 -173.04992734684006 -204.22208161092937
          -275.99610890886004 -316.95861465371524 -160.59664796878852 -195.30022710862923 -277.1977569629732 -316.78419772582896
          -241.3261923371575 -279.0790929241055 -316.34668011922645 -160.9465260126491 -195.72307300495646 -230.62805413206416
          -318.15470564432405 -274.8431122793428 -143.4750083715267 -178.68648290752353 -213.83043696225928 -319.3858243795711
          -248.80958263442704 -283.9672257820375 -319.52278178203767 -162.29466096612788 -149.8196011884252 -152.6563373957928
          -151.43805343521595 -317.6406812039511 -275.48935490465044 -176.6487749214458 -125.75327349120933 -159.37012435068985
          -230.75014775549266 -107.88358397708782 -125.9780102144885
        </DataArray>
        <DataArray type="Float64" Name="Sigma" NumberOfComponents="6" format="ascii" RangeMin="0.5538510094913479" RangeMax="374.7157498007801">
          -11.5860657778005 12.325373139090377 0 -62.23938567768275 0 0
          47.31920891655895 -59.313244333992756 0 2.1394674998167886 0 0
          -2.6241583925631846 3.306064833750125 0 10.394064851386057 0 0
          -71.49529140179447 58.36440637891859 0 -72.71993697989441 0 0
          24.427298312636815 -25.429871531055426 0 -18.773301131145836 0 0
          -107.64696822462552 111.03104969481467 0 -84.12516369857916 0 0
          -251.4695455098777 277.62948074432717 0 -9.840337974460422 0 0
          4.3606634171776815 -4.829260241800778 0 -1.00680106265867 0 0
          1.2822280160537247 -1.237221461061345 0 -0.608930634727966 0 0
          6.293674565722201 -5.830801412287856 0 9.846568009641484 0 0
          3.094609426494481 -1.9182980654261452 0 -41.51665502898065 0 0
          12.086038285741626 -13.052440676106421 0 -3.5992025533051497 0 0
          3.941343041985912 -4.045305001977383 0 -2.258622148942234 0 0
          1.0742993868813189 -0.6412933667093478 0 3.0976323123082574 0 0
          -14.453907558573748 13.705938508157924 0 0.7081281919755799 0 0
          -4.6782544702844335 4.661746218749955 0 -5.93749167599763 0 0
          3.6126963414447704 -3.3771755651762434 0 -2.640033393691894 0 0
          4.173651653962224 -4.483459109774032 0 1.5122220581373702 0 0
          2.623406310642257 -2.4209704375691925 0 -0.7212315458885549 0 0
          1.451413047268983 -1.3156974920930393 0 -0.29031159550249547 0 0
          4.110925262331148 -4.558229826824709 0 -1.867461861918452 0 0
          0.448034606684956 -0.41560427583246246 0 0.08663426647540293 0 0
          -0.9012260946692415 0.9938196406436915 0 0.8499308693119848 0 0
          0.8190772431954361 -0.90749673503638 0 -2.290743528499324 0 0
          1.8861676035508477 -1.9658444494339802 0 -0.3542705769724308 0 0
          0.5762113265625741 -0.5206999662884028 0 -0.11688157937876974 0 0
          -0.3383619001653361 0.21153429781213107 0 0.9511435551604548 0 0
          -0.5422642040169505 0.512127148655605 0 -0.746664735355446 0 0
          -0.25044640003134083 0.2938906784183054 0 -0.9186246631983402 0 0
          0.34494309029115355 -0.2963404087827113 0 -0.31614485176493035 0 0
          -0.21444308016735728 0.20545988642293103 0 -0.9755705091676771 0 0
          0.43303380179613155 -0.474590672522974 0 -0.10584937289136555 0 0
          0.561525497727158 -0.6375023781791341 0 -0.15127276297771616 0 0
          -118.17316264271152 122.78124952445944 0 100.41210785258654 0 0
          5.899745653582013 -4.662109115312326 0 43.331206661422 0 0
          -65.8357960883239 51.20580462482622 0 77.87013406170139 0 0
          -10.760214905289931 12.463035856957198 0 67.33531445220655 0 0
          0.5618039730013266 -0.7250332129440429 0 -2.938303171656959 0 0
          -0.8450061518619492 1.1089106505407849 0 2.7147548939432693 0 0
          2.2552176146201512 -3.2116366975990336 0 -50.11241606186119 0 0
          -3.92264798623603 3.676512978573827 0 5.389890248746888 0 0
          -12.214605484580055 10.83486590409962 0 -3.7388301990446218 0 0
          -1.0753268693832503 1.1263538187590694 0 10.523381639259675 0 0
          -0.0704782852464752 0.13056002096897057 0 0.6633053506899809 0 0
          -1.1481215051007756 1.305993482003852 0 -0.6508093233647028 0 0
          <InformationKey name="L2_NORM_RANGE" location="vtkDataArray" length="2">
            <Value index="0">
              0.55385100949
            </Value>
            <Value index="1">
              374.7157498
            </Value>
          </InformationKey>
        </DataArray>
      </PointData>
      <CellData>
        <DataArray type="UInt8" Name="vtkGhostType" format="ascii" RangeMin="0" RangeMax="1">
          0 0 0 1 1 0
          1 0 1 1 0 0
          0 1 0 0 0 1
          1 0 1 1 0 1
          0 0 0 0 1 1
          1 0 1 0 0 0
          0 0 0 0 0 1
          0 0 0 0 0 0
          0 0 1 1 0 0
          0 0 0 0 0 0
        </DataArray>
      </CellData>
      <Points>
        <DataArray type="Float32" Name="Points" NumberOfComponents="3" format="ascii" RangeMin="0" RangeMax="6.858648387540771">
          4.824699878692627 3.5238590240478516 0 4.5 4 0
          4.785725116729736 2.6390841007232666 0 4.25 3.5669870376586914 0
          4 3.047718048095703 0 3.75 3.5669870376586914 0
          3.5 4 0 4.888888835906982 0.9231445789337158 0
          5.3333330154418945 0 0 3.9796741008758545 2.048919916152954 0
          3.175299882888794 3.5238590240478516 0 3.2142748832702637 2.6390841007232666 0
          4 0.9231445789337158 0 4.444444179534912 0 0
          2.4285500049591064 4 0 2.300152063369751 3.0420620441436768 0
          3.1111109256744385 0.9231445789337158 0 3.555556058883667 0 0
          2.324028968811035 1.8579310178756714 0 2.222222089767456 0.9231445789337158 0
          2.6666669845581055 0 0 0.9231445789337158 4 0
          0.9231445789337158 3.1111109256744385 0 0.9231445789337158 2.222222089767456 0
          1.7777780294418335 0 0 1.1622949838638306 1.095708966255188 0
          0 4.444444179534912 0 0 3.555556058883667 0
          0 2.6666669845581055 0 0.8888888955116272 0 0
          0 1.7777780294418335 0 0 0.8888888955116272 0
          0 0 0 3.75 4.433012962341309 0
          3.175299882888794 4.476140975952148 0 4.25 4.433012962341309 0
          4.824699878692627 4.476140975952148 0 6.222221851348877 0 0
          5.777778148651123 0.9231445789337158 0 5.699848175048828 3.0420620441436768 0
          2.300152063369751 4.957938194274902 0 5.571450233459473 4 0
          5.675971031188965 1.8579310178756714 0 0 5.3333330154418945 0
          0.9231445789337158 4.888888835906982 0
          <InformationKey name="L2_NORM_RANGE" location="vtkDataArray" length="2">
            <Value index="0">
              0
            </Value>
            <Value index="1">
              6.8586483875
            </Value>
          </InformationKey>
        </DataArray>
      </Points>
      <Cells>
        <DataArray type="Int64" Name="connectivity" format="ascii" RangeMin="0" RangeMax="44">
          1 3 0 5 6 10
          3 5 4 6 33 34
          35 1 36 0 3 4
          10 6 34 4 5 10
          36 1 0 8 37 38
          13 8 7 0 4 2
          2 4 9 0 2 39
          4 10 11 11 10 15
          4 11 9 10 34 14
          14 34 40 10 14 15
          36 0 41 41 0 39
          9 11 16 39 2 42
          2 9 7 16 12 9
          12 13 7 12 7 9
          38 42 7 38 7 8
          42 2 7 32 29 31
          43 26 44 17 13 12
          30 31 25 24 20 19
          27 28 22 29 24 25
          26 27 21 20 17 16
          28 30 23 14 40 21
          15 14 21 11 15 18
          16 17 12 21 27 22
          21 22 15 19 20 16
          19 16 18 19 18 25
          44 26 21 44 21 40
          23 30 25 23 25 18
          22 28 23 22 23 15
          25 31 29 24 19 25
          18 15 23 11 18 16
        </DataArray>
        <DataArray type="Int64" Name="offsets" format="ascii" RangeMin="3" RangeMax="180">
          3 6 9 12 15 18
          21 24 27 30 33 36
          39 42 45 48 51 54
          57 60 63 66 69 72
          75 78 81 84 87 90
          93 96 99 102 105 108
          111 114 117 120 123 126
          129 132 135 138 141 144
          147 150 153 156 159 162
          165 168 171 174 177 180
        </DataArray>
        <DataArray type="UInt8" Name="types" format="ascii" RangeMin="5" RangeMax="5">
          5 5 5 5 5 5
          5 5 5 5 5 5
          5 5 5 5 5 5
          5 5 5 5 5 5
          5 5 5 5 5 5
          5 5 5 5 5 5
          5 5 5 5 5 5
          5 5 5 5 5 5
          5 5 5 5 5 5
          5 5 5 5 5 5
        </DataArray>
      </Cells>
    </Piece>
  </UnstructuredGrid>
</VTKFile>
