<?xml version="1.0"?>
<VTKFile type="UnstructuredGrid" version="0.1" byte_order="LittleEndian" header_type="UInt32" compressor="vtkZLibDataCompressor">
  <UnstructuredGrid>
    <Piece NumberOfPoints="44" NumberOfCells="60">
      <PointData>
        <DataArray type="Float64" Name="Density" format="ascii" RangeMin="0.9932204144640142" RangeMax="1.7">
          1.7 1.2165537952336052 1.7 1.2402284363011464 1.000877463596541 1.014575795528228
          1.7 1.2363056545963618 0.9932204144640142 1.0145044054731474 1.0009107668251016 1.7
          1.236894347338143 1.000110561284583 1.0143337678095028 0.999823810795299 1.7 1.2366951439762612
          1.0143596199477662 0.9998109029637262 1.7 1.2366921388385899 1.0143533163667513 0.9998119185845625
          1.7 1.23657626805909 1.0143480831298024 0.9998103757870082 1.7 1.2355851653173056
          1.014277978225707 0.9998083001429091 1.7 1.227282835250012 1.0136952653758264 0.9997950737935369
          1.7 1.1788032554243528 1.0096316228684825 0.999729895839658 1 1
          1 1
        </DataArray>
        <DataArray type="Float64" Name="Momentum" NumberOfComponents="3" format="ascii" RangeMin="2.877164261523012" RangeMax="4.535233026008696">
          4.4528099999999995 -0.86071 0 3.4780208228851914 -0.1917658424922261 0
          4.4528099999999995 -0.86071 0 3.543494070053558 -0.21059457168558815 0
          2.90185427561625 0.0005740688497060754 0 2.9421889450098355 -0.009988084545262507 0
          4.4528099999999995 -0.86071 0 3.5300352845092875 -0.20900683577023277 0
          2.8771620108778215 0.0035987423849103044 0 2.9417426098318105 -0.010486469895873084 0
          2.9029459763900065 0 0 4.4528099999999995 -0.86071 0
          3.5320950102730895 -0.20936678192740343 0 2.9004213030258756 0 0
          2.941309273367668 -0.01017421349808997 0 2.899511399993205 0 0
          4.4528099999999995 -0.86071 0 3.5314446523451815 -0.20924569680642108 0
          2.941383026760653 -0.010183032446063398 0 2.899455217371844 0 0
          4.4528099999999995 -0.86071 0 3.531433730964873 -0.209243406546717 0
          2.9413615840429457 -0.010177973728729818 0 2.899455321940547 0 0
          4.4528099999999995 -0.86071 0 3.5310398909720946 -0.20916012823621719 0
          2.9413455717256585 -0.01017357877007758 0 2.899450081206335 0 0
          4.4528099999999995 -0.86071 0 3.5277538854195254 -0.20834021330026758 0
          2.941131281657359 -0.010122909383589028 0 2.8994443537028984 0 0
          4.4528099999999995 -0.86071 0 3.5014685612484144 -0.20055723018074334 0
          2.939368114791376 -0.009721444883502699 0 2.8994099663727955 0 0
          4.4528099999999995 -0.86071 0 3.36268989790679 -0.15318939061211323 0
          2.927288115964017 -0.0067563686267393 0 2.8992374286906637 0 0
          2.9 0 0 2.9 0 0
          2.9 0 0 2.9 0 0
          <InformationKey name="L2_NORM_RANGE" location="vtkDataArray" length="2">
            <Value index="0">
              2.8771642615
            </Value>
            <Value index="1">
              4.535233026
            </Value>
          </InformationKey>
        </DataArray>
        <DataArray type="Float64" Name="Energy" format="ascii" RangeMin="4.8776877576185615" RangeMax="7.585636452999999">
          7.585636452999999 5.999640155599487 7.585636452999999 6.135538265322113 4.918457356517163 4.9987038038075156
          7.585636452999999 6.1095506976338285 4.8776877576185615 4.998093592926571 4.9289399220193815 7.585636452999999
          6.113838536553776 4.924003623995711 4.997164913309254 4.92216011285197 7.585636452999999 6.112638277415847
          4.997319531824988 4.922013381101479 7.585636452999999 6.112611029908366 4.997271330530424 4.922005949348408
          7.585636452999999 6.111796162455296 4.997239997639463 4.921995086003765 7.585636452999999 6.105047509820515
          4.996832619482188 4.921985306652738 7.585636452999999 6.051346229595577 4.993511974332213 4.921930471431986
          7.585636452999999 5.776878263348107 4.970725804897629 4.921653858111999 4.923 4.923
          4.923 4.923
        </DataArray>
      </PointData>
      <CellData>
        <DataArray type="UInt8" Name="vtkGhostType" format="ascii" RangeMin="0" RangeMax="0">
          0 0 0 0 0 0
          0 0 0 0 0 0
          0 0 0 0 0 0
          0 0 0 0 0 0
          0 0 0 0 0 0
          0 0 0 0 0 0
          0 0 0 0 0 0
          0 0 0 0 0 0
          0 0 0 0 0 0
          0 0 0 0 0 0
        </DataArray>
        <DataArray type="Float64" Name="sgvis" format="ascii" RangeMin="0.3734735354652436" RangeMax="0.4871163964396775">
          0.48685976496724015 0.48641931063351407 0.486839698095095 0.4856813067253546 0.4868375815300904 0.48545874220862817
          0.486837076011994 0.48543109547552876 0.48683692830036984 0.4854278656999521 0.48683733161043097 0.4854287756697998
          0.4868339812730009 0.48542376641318374 0.4867987748166738 0.48536681427105655 0.4871163964396775 0.48576861164684715
          0.4856235195131744 0.4848789770431504 0.483368094635637 0.47995964945334546 0.4833551922246918 0.4600327577633575
          0.4834091112133204 0.4571256760674388 0.48341808041177947 0.45688719552693446 0.48341922829344863 0.45687902196747165
          0.4834200875243453 0.4568783593472239 0.48342462460008917 0.456889168485223 0.483312889582744 0.4567314617817937
          0.48410139598057433 0.4575699926586193 0.48184335941338596 0.4552238009314804 0.45991375908347887 0.47646720259408043
          0.45349869141243404 0.37563817856296466 0.4534541682233165 0.37378334331691054 0.4536061567704026 0.3735631172334278
          0.45363755965362784 0.3735431373517478 0.45364034634917494 0.37354131795932255 0.453656670517779 0.37354066815015013
          0.4534532703353096 0.37354632320978937 0.45461832275383385 0.3734735354652436 0.4506976008093627 0.37390240992682405
        </DataArray>
        <DataArray type="Float64" Name="sgtco" format="ascii" RangeMin="0.3734735354652436" RangeMax="0.4871163964396775">
          0.48685976496724015 0.48641931063351407 0.486839698095095 0.4856813067253546 0.4868375815300904 0.48545874220862817
          0.486837076011994 0.48543109547552876 0.48683692830036984 0.4854278656999521 0.48683733161043097 0.4854287756697998
          0.4868339812730009 0.48542376641318374 0.4867987748166738 0.48536681427105655 0.4871163964396775 0.48576861164684715
          0.4856235195131744 0.4848789770431504 0.483368094635637 0.47995964945334546 0.4833551922246918 0.4600327577633575
          0.4834091112133204 0.4571256760674388 0.48341808041177947 0.45688719552693446 0.48341922829344863 0.45687902196747165
          0.4834200875243453 0.4568783593472239 0.48342462460008917 0.456889168485223 0.483312889582744 0.4567314617817937
          0.48410139598057433 0.4575699926586193 0.48184335941338596 0.4552238009314804 0.45991375908347887 0.47646720259408043
          0.45349869141243404 0.37563817856296466 0.4534541682233165 0.37378334331691054 0.4536061567704026 0.3735631172334278
          0.45363755965362784 0.3735431373517478 0.45364034634917494 0.37354131795932255 0.453656670517779 0.37354066815015013
          0.4534532703353096 0.37354632320978937 0.45461832275383385 0.3734735354652436 0.4506976008093627 0.37390240992682405
        </DataArray>
        <DataArray type="Float64" Name="MOSGS" NumberOfComponents="3" format="ascii" RangeMin="0" RangeMax="0.5977281090776422">
          6.92346490592645e-310 6.92346490592645e-310 4.6598144157045e-310 -0.0033763474117262434 0.0011851710399155904 0
          -0.018722532087292628 0.0046115273378169955 0 -0.0052744969325478515 0.0016236255437932032 0
          -0.019463957392302757 0.005016317536729639 0 -0.005526255520947964 0.0016793172040420815 0
          -0.017071507439753282 0.004503733065009336 0 -0.0055565693895296645 0.0016869530188625467 0
          -0.016692697355859744 0.004428593995552158 0 -0.005561669293038958 0.0016877632021790388 0
          -0.016639362898009696 0.004418365858999549 0 -0.005564810866321528 0.0016884386134804258 0
          -0.016651698664471686 0.004420711221814812 0 -0.005618667505463432 0.0016969089365433186 0
          -0.016617597928508948 0.004418242068430527 0 -0.006112454435680689 0.001752815224613252 0
          -0.01689763859337915 0.0046114584528286345 0 -0.008536765466475839 0.0019101356075395745 0
          -0.017687838788587176 0.004391804023895535 0 0.012745699349175169 -0.00118956824649751 0
          0.005159672062978146 -0.001132427523924995 0 0.009659523059786498 0.0002455889165543061 0
          -0.22359966675211038 0.07715855628283666 0 -0.0002415083680474689 0.005139396373275786 0
          -0.10755909657362295 0.03936643757293645 0 -0.0019212366978653 0.0058247444475499795 0
          -0.07564377654686415 0.029076416295270135 0 -0.002127525507035641 0.005878247913938074 0
          -0.06901506897708905 0.027313571054588506 0 -0.0021602236650893475 0.0058816738755564126 0
          -0.06820131434111192 0.027120127361461292 0 -0.0021776737001450303 0.005884738317172032 0
          -0.06808748038039804 0.027096383283684498 0 -0.0021726020089523623 0.005887722085454645 0
          -0.06846528083866586 0.027158136301795362 0 -0.00259878115941721 0.006154384873108314 0
          -0.06708187192326019 0.027018345995242714 0 -0.004399245430423013 0.005832536716744108 0
          -0.07632050840286954 0.027795231441070534 0 0.01933457643631492 0.001683909418226142 0
          -0.041874732390133174 0.020165108651029252 0 0.10536976599953707 -0.02003589780729601 0
          -0.48305705111349506 0.3520437156818282 0 0.1259812258855597 -0.03821878895391102 0
          0.23190749226971855 -0.09433734585989662 0 0.13484126293688878 -0.04339699833805388 0
          0.18717399587485212 -0.07775174937389621 0 0.1379027458508874 -0.044403603513630194 0
          0.1782132362394642 -0.07479321802206115 0 0.1383586274485798 -0.044520407665708965 0
          0.17716376630246272 -0.07447698140041381 0 0.13843928900798055 -0.04453635852568952 0
          0.17703689855080523 -0.07444264154222287 0 0.13798143562074908 -0.04445546380024953 0
          0.17703341077416934 -0.07444133267027443 0 0.1396181478674664 -0.044615280061053836 0
          0.17689498046108 -0.07441020601349467 0 0.12902596048166676 -0.04399455702030238 0
          0.17725158986833137 -0.07448039480950193 0 0.17507100814684012 -0.055183318002401296 0
          0.17444414503651223 -0.07404672963860486 0
          <InformationKey name="L2_NORM_RANGE" location="vtkDataArray" length="2">
            <Value index="0">
              0
            </Value>
            <Value index="1">
              0.59772810908
            </Value>
          </InformationKey>
        </DataArray>
        <DataArray type="Float64" Name="CORES" format="ascii" RangeMin="-3.7873414634146334" RangeMax="1.8132979773686495">
          -0.02114197583147273 -0.11107100409425201 -0.031902225426419586 -0.11529066026587428 -0.03329622483708235 -0.1024186224073993
          -0.03346089861843926 -0.10038153035576972 -0.03348659254970718 -0.1000963220278426 -0.033489297669137594 -0.10015558532430441
          -0.03371086813982155 -0.09995184556942954 -0.03631837912369909 -0.10166393800759546 -0.04947155352442725 -0.10554592377052202
          0.06073086310841589 0.022094013249071863 0.018963910950859808 -1.4377760091653347 -0.044946105663217883 -0.73361422233242
          -0.05347648864184418 -0.5506879451146086 -0.054398975547905404 -0.5140975038555902 -0.054544205277204494 -0.509700290714687
          -0.05463157792750384 -0.5090914579178428 -0.05455558186695908 -0.5111991819968787 -0.05729629554051796 -0.5037980879291217
          -0.06643085533796378 -0.5547393962507337 0.06915400705557706 -0.3430081104090487 0.6847860312545284 -3.7873414634146334
          0.8520599307690842 1.8132979773686495 0.8967397119428548 1.4998085385559694 0.9112937177539552 1.4415002276493118
          0.9134506811046615 1.4349176936039871 0.9138396807263826 1.4341433836052422 0.9114055390149005 1.434122910433934
          0.9195164462567509 1.4332619724495679 0.8662149431569738 1.435260602052829 1.1315418133414386 1.4188903355099522
        </DataArray>
        <DataArray type="Float64" Name="MORES" NumberOfComponents="3" format="ascii" RangeMin="0.061820572193856935" RangeMax="10.912886927908389">
          -0.058331623169729424 0.020474493516582107 0 -0.323636796139616 0.07971471656611523 0
          -0.0911739585985897 0.02806195355575601 0 -0.3369914638355508 0.08685002805477673 0
          -0.0955340786693408 0.029026753285039196 0 -0.29578988585998056 0.07803285189935756 0
          -0.09605929792850332 0.02915904661465174 0 -0.28925863384127043 0.076739264050775 0
          -0.09614749989120569 0.0291730702064643 0 -0.28833856234847255 0.07656309257554222 0
          -0.09620191407690781 0.02918477448634693 0 -0.2885537164352131 0.07660411237990045 0
          -0.0971307478436943 0.029330657404352034 0 -0.2879570592164432 0.07655974128689705 0
          -0.10565707878620961 0.03029592721034849 0 -0.2928258046966904 0.07991190074426806 0
          -0.1475743195002222 0.03302106125620233 0 -0.3066637683402501 0.0761432602555911 0
          0.21882914741816334 -0.02039886220346953 0 0.08860891020652281 -0.01943700276157935 0
          0.16716000476315385 0.0042228076326450426 0 -3.918378878215479 1.352116272184341 0
          -0.006772591165617126 0.08977426527227861 0 -1.9406490807790615 0.7101205386852356 0
          -0.03684487508661549 0.10196966545710351 0 -1.3785266515639665 0.5296076935891411 0
          -0.040568902431493914 0.10294405388336642 0 -1.2603157444146929 0.49841938266579644 0
          -0.041155537971622635 0.1030094816624264 0 -1.2457881907562693 0.49500325887525265 0
          -0.04145719615638255 0.10306265280575627 0 -1.2437455957878703 0.49458164065214577 0
          -0.041392030178140526 0.1031196831146528 0 -1.2506648895404928 0.4957226044786739 0
          -0.048729354028033134 0.10771261139062405 0 -1.2251975150716927 0.4930454403631178 0
          -0.07972069017861472 0.10219722924075203 0 -1.3956344163423051 0.5081059726683116 0
          0.32486562788146656 0.03114073525046107 0 -0.7645082435879716 0.3663577358091398 0
          1.7918417265111297 -0.32720959704983343 0 -8.812138631215714 6.437182135496048 0
          2.124761986333178 -0.6347212176463911 0 4.553328878623694 -1.8447241629467865 0
          2.2707495744617 -0.7213842453125153 0 3.671788940481944 -1.5193564125389538 0
          2.3217063783041603 -0.7381237474976583 0 3.492836520772144 -1.4605793673313352 0
          2.3293398917599846 -0.7400692051672364 0 3.47175917105716 -1.4542609621035711 0
          2.330695402362824 -0.7403344790101307 0 3.4691978913631214 -1.4535708123303708 0
          2.322887491091009 -0.738962257714117 0 3.4691232460772636 -1.4535426633010058 0
          2.3501959165327246 -0.7414524874537385 0 3.466395632743213 -1.45294434114415 0
          2.1731938283790964 -0.7324250248571474 0 3.4729533723551453 -1.454085119008706 0
          2.937076182581983 -0.9164272649112081 0 3.4198627208098342 -1.4469051220478955 0
          <InformationKey name="L2_NORM_RANGE" location="vtkDataArray" length="2">
            <Value index="0">
              0.061820572194
            </Value>
            <Value index="1">
              10.912886928
            </Value>
          </InformationKey>
        </DataArray>
        <DataArray type="Float64" Name="ENRES" format="ascii" RangeMin="-16.6864346728401" RangeMax="8.46093507370215">
          -0.10081881741063997 -0.5783737252287218 -0.1649770660918316 -0.6160519382017784 -0.17349829373855813 -0.5366757647527668
          -0.1745437670713541 -0.5241686275415288 -0.17473210911643877 -0.5224025202063798 -0.1749597055547492 -0.522906476455129
          -0.1772048325261784 -0.5216527379193309 -0.19605145943951113 -0.5331022650065099 -0.2789246006487798 -0.5592090087366398
          0.46126505545672547 0.23983652951730206 0.33581489605282333 -7.4997579534807235 -0.05470975184979876 -3.7774489135793523
          -0.12652286315532058 -2.64465225165518 -0.13540317541501912 -2.404452728808231 -0.13676996269700803 -2.3748549740741427
          -0.13744237824869998 -2.370734576618218 -0.137355453992416 -2.3836569255083306 -0.1524607530170683 -2.3332187323646263
          -0.2088658601173461 -2.6557719996983686 0.5847648933403882 -1.3678397696287523 3.024774688933383 -16.6864346728401
          3.7414247227713293 8.46093507370215 4.094522469685982 6.726214640230619 4.207681079878649 6.363129643154431
          4.224272976792471 6.320059000198544 4.227104632385578 6.314757132968618 4.212558896154135 6.31457139933398
          4.266534100893962 6.309398747893487 3.9365996875622398 6.322650992747782 5.4479224938850415 6.221864561121293
        </DataArray>
      </CellData>
      <Points>
        <DataArray type="Float32" Name="Points" NumberOfComponents="3" format="ascii" RangeMin="0" RangeMax="4.2201894765504395">
          4.099999904632568 1 0 4.099999904632568 0.6666666865348816 0
          3.690000057220459 1 0 3.690000057220459 0.6666666865348816 0
          4.099999904632568 0.3333333134651184 0 3.690000057220459 0.3333333134651184 0
          3.2799999713897705 1 0 3.2799999713897705 0.6666666865348816 0
          4.099999904632568 0 0 3.2799999713897705 0.3333333134651184 0
          3.690000057220459 0 0 2.869999885559082 1 0
          2.869999885559082 0.6666666865348816 0 3.2799999713897705 0 0
          2.869999885559082 0.3333333134651184 0 2.869999885559082 0 0
          2.4600000381469727 1 0 2.4600000381469727 0.6666666865348816 0
          2.4600000381469727 0.3333333134651184 0 2.4600000381469727 0 0
          2.049999952316284 1 0 2.049999952316284 0.6666666865348816 0
          2.049999952316284 0.3333333134651184 0 2.049999952316284 0 0
          1.6399999856948853 1 0 1.6399999856948853 0.6666666865348816 0
          1.6399999856948853 0.3333333134651184 0 1.6399999856948853 0 0
          1.2300000190734863 1 0 1.2300000190734863 0.6666666865348816 0
          1.2300000190734863 0.3333333134651184 0 1.2300000190734863 0 0
          0.8199999928474426 1 0 0.8199999928474426 0.6666666865348816 0
          0.8199999928474426 0.3333333134651184 0 0.8199999928474426 0 0
          0.4099999964237213 1 0 0.4099999964237213 0.6666666865348816 0
          0.4099999964237213 0.3333333134651184 0 0.4099999964237213 0 0
          0 1 0 0 0.6666666865348816 0
          0 0.3333333134651184 0 0 0 0
          <InformationKey name="L2_NORM_RANGE" location="vtkDataArray" length="2">
            <Value index="0">
              0
            </Value>
            <Value index="1">
              4.2201894766
            </Value>
          </InformationKey>
        </DataArray>
      </Points>
      <Cells>
        <DataArray type="Int64" Name="connectivity" format="ascii" RangeMin="0" RangeMax="43">
          39 38 43 38 42 43
          35 34 39 34 38 39
          31 30 35 30 34 35
          27 26 31 26 30 31
          23 22 27 22 26 27
          19 18 23 18 22 23
          15 14 19 14 18 19
          13 9 15 9 14 15
          10 5 13 5 9 13
          8 4 10 4 5 10
          38 37 42 37 41 42
          34 33 38 33 37 38
          30 29 34 29 33 34
          26 25 30 25 29 30
          22 21 26 21 25 26
          18 17 22 17 21 22
          14 12 18 12 17 18
          9 7 14 7 12 14
          5 3 9 3 7 9
          4 1 5 1 3 5
          37 36 41 36 40 41
          33 32 37 32 36 37
          29 28 33 28 32 33
          25 24 29 24 28 29
          21 20 25 20 24 25
          17 16 21 16 20 21
          12 11 17 11 16 17
          7 6 12 6 11 12
          3 2 7 2 6 7
          1 0 3 0 2 3
        </DataArray>
        <DataArray type="Int64" Name="offsets" format="ascii" RangeMin="3" RangeMax="180">
          3 6 9 12 15 18
          21 24 27 30 33 36
          39 42 45 48 51 54
          57 60 63 66 69 72
          75 78 81 84 87 90
          93 96 99 102 105 108
          111 114 117 120 123 126
          129 132 135 138 141 144
          147 150 153 156 159 162
          165 168 171 174 177 180
        </DataArray>
        <DataArray type="UInt8" Name="types" format="ascii" RangeMin="5" RangeMax="5">
          5 5 5 5 5 5
          5 5 5 5 5 5
          5 5 5 5 5 5
          5 5 5 5 5 5
          5 5 5 5 5 5
          5 5 5 5 5 5
          5 5 5 5 5 5
          5 5 5 5 5 5
          5 5 5 5 5 5
          5 5 5 5 5 5
        </DataArray>
      </Cells>
    </Piece>
  </UnstructuredGrid>
</VTKFile>
