<?xml version="1.0"?>
<VTKFile type="UnstructuredGrid" version="0.1" byte_order="LittleEndian" header_type="UInt32" compressor="vtkZLibDataCompressor">
  <UnstructuredGrid>
    <Piece NumberOfPoints="88" NumberOfCells="239">
      <PointData>
        <DataArray type="Float64" Name="nsi_BC" NumberOfComponents="3" format="ascii" RangeMin="0" RangeMax="1">
          1 0 0 1 0 0
          1 0 0 1 0 0
          1 0 0 0 0 0
          1 0 0 0 0 0
          1 0 0 0 0 0
          1 0 0 0 0 0
          0 0 0 0 0 0
          1 0 0 0 0 0
          0 0 0 1 0 0
          1 0 0 1 0 0
          0 0 0 1 0 0
          1 0 0 0 0 0
          0 0 0 0 0 0
          1 0 0 1 0 0
          0 0 0 0 0 0
          0 0 0 0 0 0
          1 0 0 0 0 0
          0 0 0 0 0 0
          1 0 0 1 0 0
          0 0 0 1 0 0
          1 0 0 0 0 0
          0 0 0 0 0 0
          0 0 0 1 0 0
          0 0 0 0 0 0
          1 0 0 0 0 0
          0 0 0 0 0 0
          1 0 0 1 0 0
          0 0 0 0 0 0
          1 0 0 0 0 0
          0 0 0 1 0 0
          0 0 0 0 0 0
          1 0 0 0 0 0
          0 0 0 1 0 0
          0 0 0 0 0 0
          0 0 0 1 0 0
          1 0 0 0 0 0
          0 0 0 1 0 0
          0 0 0 1 0 0
          0 0 0 0 0 0
          1 0 0 1 0 0
          1 0 0 1 0 0
          0 0 0 0 0 0
          1 0 0 0 0 0
          1 0 0 0 0 0
          <InformationKey name="L2_NORM_RANGE" location="vtkDataArray" length="2">
            <Value index="0">
              0
            </Value>
            <Value index="1">
              1
            </Value>
          </InformationKey>
        </DataArray>
        <DataArray type="Float64" Name="nsi_FIXNO" NumberOfComponents="3" format="ascii" RangeMin="1.7320508075688772" RangeMax="1.7320508075688772">
          1 1 1 1 1 1
          1 1 1 1 1 1
          1 1 1 1 1 1
          1 1 1 1 1 1
          1 1 1 -1 -1 -1
          1 1 1 1 1 1
          1 1 1 1 1 1
          1 1 1 -1 -1 -1
          -1 -1 -1 1 1 1
          1 1 1 1 1 1
          1 1 1 1 1 1
          1 1 1 1 1 1
          1 1 1 -1 -1 -1
          1 1 1 1 1 1
          1 1 1 -1 -1 -1
          1 1 1 1 1 1
          1 1 1 1 1 1
          -1 -1 -1 1 1 1
          1 1 1 1 1 1
          1 1 1 1 1 1
          1 1 1 1 1 1
          1 1 1 1 1 1
          1 1 1 1 1 1
          1 1 1 1 1 1
          1 1 1 1 1 1
          1 1 1 1 1 1
          1 1 1 1 1 1
          1 1 1 1 1 1
          1 1 1 1 1 1
          1 1 1 1 1 1
          1 1 1 1 1 1
          1 1 1 1 1 1
          1 1 1 1 1 1
          1 1 1 1 1 1
          1 1 1 1 1 1
          1 1 1 -1 -1 -1
          1 1 1 1 1 1
          1 1 1 1 1 1
          1 1 1 1 1 1
          1 1 1 1 1 1
          1 1 1 1 1 1
          1 1 1 1 1 1
          1 1 1 1 1 1
          1 1 1 1 1 1
          <InformationKey name="L2_NORM_RANGE" location="vtkDataArray" length="2">
            <Value index="0">
              1.7320508076
            </Value>
            <Value index="1">
              1.7320508076
            </Value>
          </InformationKey>
        </DataArray>
        <DataArray type="Float64" Name="tem_BC" format="ascii" RangeMin="0" RangeMax="12">
          0 0 0 0 0 12
          0 12 0 0 0 12
          12 12 0 0 0 0
          0 0 12 0 0 12
          12 0 0 0 12 0
          12 12 0 12 0 12
          0 0 12 0 0 12
          12 12 12 0 12 12
          0 12 12 12 0 0
          12 12 0 12 12 0
          12 12 0 12 12 0
          12 12 12 0 0 0
          12 0 12 7.64356 12 12
          0 7.64356 8.129456 8.136573 12 12
          7.64356 12 8.129456 12
        </DataArray>
        <DataArray type="Float64" Name="tem_FIXNO" format="ascii" RangeMin="-1" RangeMax="1">
          -1 -1 -1 -1 -1 1
          -1 1 -1 -1 -1 1
          1 1 -1 -1 -1 -1
          -1 -1 1 -1 -1 1
          1 -1 -1 -1 1 -1
          1 1 -1 1 -1 1
          -1 -1 1 -1 -1 1
          1 1 1 -1 1 1
          -1 1 1 1 -1 -1
          1 1 -1 1 1 -1
          1 1 -1 1 1 -1
          1 1 1 -1 -1 -1
          1 -1 1 1 1 1
          -1 1 1 1 1 1
          1 1 1 1
        </DataArray>
        <DataArray type="Float64" Name="Velocity" NumberOfComponents="3" format="ascii" RangeMin="0" RangeMax="1.0000000000000002">
          1 0 0 1 0 0
          1 0 0 1 0 0
          1 0 0 0 0 0
          1 0 0 0 0 0
          1 0 0 0.8545700156575865 0.10191821127642597 0.0709105118463501
          1 0 0 0 0 0
          0 0 0 0 0 0
          1 0 0 0.8929012216332358 0.04835142047506751 0.017392829608702184
          0.8240449617071951 0.09216360243727281 -0.016777152187404505 1.0000000000000002 0 0
          1 0 0 1 0 0
          0 0 0 1 0 0
          1 0 0 0 0 0
          0 0 0 0.6063493335565733 0.15542014981332064 -0.10881882438522222
          1 0 0 1.0000000000000002 0 0
          0 0 0 0.6621028910683551 0.17248390071056888 0.014654811028293621
          0 0 0 0 0 0
          1 0 0 0 0 0
          0.7833478341381431 -0.051432436843933574 0.09214781367159881 0 0 0
          1.0000000000000002 0 0 1 0 0
          0 0 0 1 0 0
          1 0 0 0 0 0
          0 0 0 0 0 0
          0 0 0 1 0 0
          0 0 0 0 0 0
          1 0 0 0 0 0
          0 0 0 0 0 0
          1 0 0 1 0 0
          0 0 0 0 0 0
          1 0 0 0 0 0
          0 0 0 1 0 0
          0 0 0 0 0 0
          1 0 0 0 0 0
          0 0 0 1 0 0
          0 0 0 0 0 0
          0 0 0 1 0 0
          1 0 0 0.7544186389178821 0.036973825490459536 -0.13930637604157559
          0 0 0 1.0000000000000002 0 0
          0 0 0 1 0 0
          0 0 0 0 0 0
          1 0 0 1 0 0
          1 0 0 1 0 0
          0 0 0 0 0 0
          1 0 0 0 0 0
          1 0 0 0 0 0
          <InformationKey name="L2_NORM_RANGE" location="vtkDataArray" length="2">
            <Value index="0">
              0
            </Value>
            <Value index="1">
              1
            </Value>
          </InformationKey>
        </DataArray>
        <DataArray type="Float64" Name="Pressure" format="ascii" RangeMin="0" RangeMax="9.603565434575179">
          0 7.800845185877921 7.486592778378747 8.310136141103651 8.243218800875905 8.224960034310882
          8.600093732923417 8.509187534579933 8.664063182388984 8.732636947150286 8.818293438555276 8.776062990818929
          8.75187043877299 8.774977412198588 8.711816492935498 8.985694734377217 8.847100400837975 8.92309925511096
          9.067917544164903 8.831055532845582 8.85444928323801 8.81315113128653 9.10121376183824 9.005487246417252
          9.103776071640617 9.161941137937124 8.882107322254557 9.194180839361444 8.885532185914844 9.14119616756751
          9.034432052067395 8.907954022671452 8.994593359661454 9.354873346749189 9.170943491270435 9.35491290661148
          9.284132549054256 8.980417519134468 9.012022546981049 9.351291772802032 9.332229126074367 9.354869846372909
          9.354918195918673 9.354306208745301 9.354971749770742 9.180148390365694 9.35491204409432 9.141687483203821
          9.400595810253677 9.354973207825577 9.35496668588737 9.354981567654693 9.327292262010491 9.289821480372245
          9.458700307390249 9.35506513955128 9.447315741832805 9.3549836450998 9.354934167583322 9.289463218852278
          9.355060127798676 9.355095079311784 9.497650844917032 9.35515515215863 9.355133850813298 9.35757566768252
          9.355069887376903 9.354984007961168 9.355134049783029 9.36157657859916 9.52871852106214 9.470998269330924
          9.355122439120235 9.516812246354307 9.364694946791886 9.479021642736214 9.37813128007818 9.355138184619399
          9.361609521868576 9.507037436594766 9.416430031125737 9.389577610397309 9.381806817634855 9.343799599891037
          9.603565434575179 9.355112396753768 9.466284591484031 9.405731004129501
        </DataArray>
        <DataArray type="Float64" Name="DISSI_NS" format="ascii" RangeMin="0" RangeMax="0.0074507796265186575">
          0 0.0019254712015224218 0.000023911074806177578 0.0010262466442938758 0.0015427973222964817 0.003119273325864157
          0.000018756661583254873 0.0037002385237812586 0.00019397201503549476 0.0014469934699768594 0.0025896034929406213 0.0026121095108707837
          0.003489270404776375 0.0050019823029075075 0 0.0006938564819257914 0.0012871492652181135 0.0001334468056508191
          0.001270178338574122 0.0016201366412532032 0.0030866095093761963 0.00002372255900767012 0.001017018000568694 0.0028300900025519187
          0.0037487655618697615 0.0023496463932809026 0.0029627447301238514 7.426759708454734e-38 0.0017986023521693276 0.0016430420378098797
          0.003132080442300324 0.003275855143093864 0.00006830546489783615 0.0009858071189072861 0.001222795334459947 0.004806053601488423
          0.005781609856233627 0.0018436809297363052 0.005239904415360394 0.0016469146318967517 0.0010828527984356941 0.0013000027192894646
          0.0009318924612585718 0.0023138661891334445 0.003200628387324394 0.0017361594790734347 0 0.0032645308348463347
          0.0013866789118849791 0 0.005268223631581776 0.0026828265177357142 0.006509734088055556 0.00007011405814189843
          0.0021981565892731495 0.0036274508567958807 2.1871013723011178e-38 0 0.003164750174989654 0.002294491984446121
          0.004525482921093531 0.0023987816880943666 0.0012189501477624439 0.0016819276118413694 0.0074507796265186575 0.0032787802718279697
          0.0041529903546563066 0.0045002306721952864 0 0.004153230531381259 0.00007306574024156282 0.0013094842291040082
          0.0030896739778525934 0.0009598396088333491 0.005140167609773621 0 0.005974564302670471 0.002295969122005853
          0.003144861534279848 0.00007878647764581244 0.0011817377007017143 0.0014037139517886204 0.0036065690078020338 0.0030315248686987343
          0.00012028910684157703 0.0024666050669443166 0.001324273536834202 0.0017234162115208848
        </DataArray>
        <DataArray type="Float64" Name="Temperature" format="ascii" RangeMin="-1.9053908335505678" RangeMax="12.000000000000004">
          0.1423917926082094 -1.9053908335505678 -0.6337098178371128 -1.659672355240007 0.774755721707196 12
          -0.6055462261009649 12.000000000000002 -0.7755554614864493 2.55891670826021 1.5055991134159743 12
          12 12.000000000000002 -0.06833407313027931 3.306901387584257 2.229521025568087 -0.3995078209206727
          0.8829725951368771 -1.4740921127082738 12 -0.9105350486947801 1.2409813411541297 12.000000000000002
          12.000000000000002 6.203299292392081 0.2047490492176187 2.207371222097844 12 5.149209633818739
          12.000000000000002 12.000000000000002 -1.0841128217767297 12.000000000000002 3.406245817580613 12
          4.407614256336487 1.2082649878851375 12.000000000000002 2.57341582719537 0.11508295485075883 11.999999999999996
          12 12 12 0.6313328119012943 12.000000000000002 12.000000000000002
          3.6637206608033672 11.999999999999998 12.000000000000002 12.000000000000002 6.045602767425102 0.27253256153512156
          12 11.999999999999998 6.668995535597641 12.000000000000002 12.000000000000002 2.664035466969328
          12.000000000000002 12.000000000000004 5.620878282152998 12.000000000000002 12.000000000000002 7.432246304618074
          12 12 12.000000000000002 5.406264148364775 5.879121774220242 8.019951710195691
          12.000000000000002 4.8873500832695616 12 7.643560000000001 12 11.999999999999998
          7.738988766748718 7.64356 8.129456 8.136572999999999 12 12.000000000000002
          7.643560000000001 12.000000000000002 8.129456000000001 12.000000000000002
        </DataArray>
        <DataArray type="Float64" Name="DISSI_TEMPE" format="ascii" RangeMin="9.138810309519151e-32" RangeMax="1.0744280277481266">
          0.013038281242697526 0.5089057138014363 0.015130628173174704 0.2339186629243997 0.35868476587928155 1.0156768302242
          0.01942455058666994 0.9285254385967292 0.05643626696969234 0.3234572499992603 0.47190580107084534 0.6563224122325033
          0.8478003699856219 0.9573906069795826 0.00784922843792601 0.15761041686393248 0.29552995832139034 0.05220730675659691
          0.2098618429640213 0.4258177624593049 0.7596276896453554 0.013875309429074629 0.21072790176828066 0.5477376102377989
          0.6527126984524952 0.36995061914636174 0.6497595898887544 0.01735360385875372 0.7138788025946049 0.3397319038191437
          0.6629312955928426 0.931777484648 0.02792628403871594 0.16647937202030103 0.23026802211896646 0.49481217932140126
          0.5308878370225224 0.36298800889915256 1.0744280277481266 0.2317653700778713 0.1637806058632216 0.23944584079419673
          0.18253316713502757 0.3928134632693849 0.34247979674808293 0.3202841975217135 1.3640267868303174e-31 0.650700416611612
          0.17676807902677458 1.555440103876686e-31 0.417200208846067 0.41549447295091424 0.4486307167532721 0.05506033057437388
          0.25939831767976507 0.25955148667318334 0.022962063417177464 9.261809141350321e-32 0.5135808275741691 0.3528515073903058
          0.36037894599387 0.2304985599271488 0.10603565203699783 0.0641195199639055 0.36631085696645865 0.11813516086947459
          0.3310594742080587 0.45953475326682486 9.138810309519151e-32 0.3976028402395677 0.050435457811103444 0.11022793821177931
          0.10015276978754019 0.14949138834351464 0.18461843975175896 0.009233842772206326 0.37920727547787647 0.09415036195746478
          0.17155725112289136 0.018645330914419334 0.04158448294490078 0.061029095572607425 0.10971469910369455 0.09966336169100197
          0.022105020585747603 0.07446493679283606 0.04383663171726546 0.04148021033729452
        </DataArray>
        <DataArray type="Float64" Name="CN2" format="ascii" RangeMin="0" RangeMax="3.780294896290771e-11">
          0 2.7170124135143872e-11 3.4237004325569584e-12 1.5347784761870193e-11 1.982286619835495e-11 3.780294896290771e-11
          4.763956412928656e-12 3.264682716177455e-11 6.368909639001013e-12 1.7794152625259534e-11 2.1712525136988223e-11 2.5916688341517834e-11
          3.039773660135906e-11 3.044396173179541e-11 0 1.0958219971806224e-11 1.69857802320935e-11 6.637235655423975e-12
          1.23553788346583e-11 2.3928864942932786e-11 2.8372676263817933e-11 3.1608536924828943e-12 1.3290935749163304e-11 2.1058812168278278e-11
          2.2850105649689916e-11 1.6429233036478263e-11 2.9131887053535605e-11 0 3.1923202273943606e-11 1.7256853940693803e-11
          2.4640670871682442e-11 3.411912297772881e-11 4.483182684588522e-12 9.096916411432166e-12 1.3235433011789546e-11 1.5945639315232913e-11
          1.7919721130854772e-11 1.8785071156888906e-11 3.364064557333171e-11 1.2209226409662066e-11 1.0283962795649381e-11 1.193136969464104e-11
          1.0162899136880497e-11 1.6151196635505878e-11 1.2638270084546391e-11 1.705349450768226e-11 0 2.3854486198283793e-11
          9.707030961356645e-12 0 1.3039297948565113e-11 1.6261682607581856e-11 1.4217546256328887e-11 8.58994939568096e-12
          1.0849580332439033e-11 9.186585085293565e-12 0 0 1.9023631185081832e-11 1.6620919293182614e-11
          1.1848649723203517e-11 9.364165237893054e-12 5.9096190525635695e-12 2.9321459900134334e-12 1.019953357857595e-11 4.613093682089818e-12
          1.120082831183076e-11 1.5136932085212888e-11 0 1.4771584037637892e-11 7.1558190273695295e-12 5.796176112311574e-12
          3.739582970730432e-12 9.117939919964873e-12 5.81764424169715e-12 0 1.1365081167236388e-11 3.8811855616514704e-12
          6.763337069426938e-12 2.515534122994745e-12 2.2592485855669174e-12 3.1304464910545617e-12 3.8907326846184895e-12 3.7449510829706735e-12
          2.5899636818248618e-12 2.997204523210629e-12 2.2928982688247105e-12 1.8815210963980473e-12
        </DataArray>
        <DataArray type="Float64" Name="CT2" format="ascii" RangeMin="0" RangeMax="40.03995232116031">
          0 23.562107582230997 3.0251464882075343 13.357856478498285 17.87992898669843 40.03995232116031
          4.21102948319218 34.57851857548718 5.615663421460201 16.47215864057586 19.79399131881078 27.450015339985235
          32.19619454119524 32.24513964430598 0 10.254571507539152 15.648799454413123 5.88461036299511
          11.161804164685192 20.883135619647508 30.05126147026307 2.7814930675839347 12.069843705871957 22.30462693551801
          24.20184367897121 16.02871618359555 26.058161418832565 0 33.811822799460856 16.5834896694449
          26.0983691154513 36.13764098640504 3.9350520732209113 9.6350120558691 12.403326890283962 16.88884672241112
          17.037622766978355 17.051117252374485 35.630782274037436 11.304395212816976 9.186748258076731 12.637127314314458
          10.764049177757062 17.106563260184235 13.38584184826377 15.349519669861374 0 25.26562096305749
          9.130635842403485 0 13.810591085799144 17.223584404576105 13.8396064123772 7.691179191222604
          11.491324699947475 9.729984722993072 0 0 20.14890621193193 15.409395863486774
          12.549514290242591 9.918068989486484 5.717582150326539 3.1055866104949383 10.802850552563122 4.580338302074688
          11.863373314105777 16.03230327848869 0 14.247651451334841 6.948971351976835 5.80337645519953
          3.9607846437004026 8.729159642837566 6.161765026826183 0 12.03733640921399 4.110763228793324
          6.74472715973917 2.505197775693354 2.26558360037939 3.139543791943376 4.120872879958651 3.966471185595738
          2.579316523891539 3.174493451505742 2.299325346145273 1.9928137392452046
        </DataArray>
        <DataArray type="Float64" Name="CN2_MEAN" format="ascii" RangeMin="0" RangeMax="3.7266389387135985e-11">
          0 2.7091177499412506e-11 1.6163885430354225e-12 1.4802212443416995e-11 2.2232288062504953e-11 3.561932963755183e-11
          1.909673361387006e-12 3.4283814682670235e-11 4.441125009475669e-12 1.994473650529732e-11 2.5517071218526266e-11 2.7256280981187225e-11
          3.441820957366738e-11 3.537350640622197e-11 0 1.411406631105611e-11 1.8724177133866615e-11 4.048683363745396e-12
          1.5085842269572892e-11 2.422972245118211e-11 3.321562675151963e-11 1.332672842602498e-12 1.3532713413333084e-11 2.8055796115769207e-11
          2.8104553909085752e-11 2.316532807658874e-11 3.109135920127115e-11 0 3.032988071395942e-11 2.1806487055688246e-11
          3.18463034030948e-11 3.388711954589355e-11 2.8050074042336228e-12 1.834388662445737e-11 1.6700178634233782e-11 2.3588363787695667e-11
          2.8317636262918683e-11 2.0019214304861985e-11 3.7266389387135985e-11 1.7005132348983984e-11 1.4111021696721061e-11 2.264862552766994e-11
          1.969600690544541e-11 2.257964825112767e-11 1.9867402876452903e-11 1.8718033993508904e-11 0 2.947132838295139e-11
          1.4180135492510289e-11 0 2.2602182968477864e-11 2.1993313505157745e-11 2.948559172870652e-11 6.304995210133547e-12
          1.7626380869001086e-11 1.7055633372732017e-11 0 0 2.44544343951023e-11 2.2529489320105893e-11
          2.506478993355585e-11 1.7772822770002196e-11 1.1577886993663138e-11 5.675478526437134e-12 2.192413459186445e-11 1.0490738413165036e-11
          2.303909170567326e-11 2.5638136316924043e-11 0 3.001805736984237e-11 1.0649652146915252e-11 1.278238416406583e-11
          7.915817432958515e-12 1.386763886253929e-11 1.2962667075388817e-11 0 2.365421272457714e-11 8.580491964763735e-12
          1.6510229794780397e-11 6.151249796413337e-12 5.611021989547411e-12 7.635546900997806e-12 9.815518060040209e-12 8.726745443537784e-12
          6.88424921946467e-12 5.731700741521669e-12 5.845927962996568e-12 1.8815396771032112e-12
        </DataArray>
        <DataArray type="Float64" Name="CN2_FROM_MEAN" format="ascii" RangeMin="0" RangeMax="3.726789040061487e-11">
          0 2.708746193370915e-11 1.0604205319705768e-12 1.4800346324935853e-11 2.222547556247808e-11 3.561933192969887e-11
          1.168592407137745e-12 3.428381362723095e-11 4.0890297555855155e-12 1.9881797404219904e-11 2.5514656308469567e-11 2.7192429774757393e-11
          3.4274313137384945e-11 3.536604611973836e-11 0 1.389822405776593e-11 1.8695038473973472e-11 3.235667676853062e-12
          1.5029911253407235e-11 2.4224623698118935e-11 3.28777870058517e-11 8.787024128368903e-13 1.346808542448001e-11 2.758374286702247e-11
          2.8111945660461318e-11 2.2837519312345307e-11 3.108749907180576e-11 0 3.0329880646394236e-11 2.1692971974732034e-11
          3.153317444018006e-11 3.388712100534555e-11 2.0355037161300434e-12 1.679031329899735e-11 1.6639636033511856e-11 2.348448527358808e-11
          2.812030884255674e-11 1.9930168470751846e-11 3.726789040061487e-11 1.692685452899918e-11 1.4087802208117596e-11 2.0002746760614607e-11
          1.7602212318813137e-11 2.2152711061045858e-11 1.9731703229148362e-11 1.864753821686741e-11 0 2.94464054799542e-11
          1.4061540569446947e-11 0 2.2602105306858815e-11 2.1955303455040738e-11 2.915712415229904e-11 4.706333142888215e-12
          1.7461118920807292e-11 1.705556188529663e-11 0 0 2.4411391641961433e-11 2.2482970505926728e-11
          2.5064670944971296e-11 1.7694021864797856e-11 1.1425084909133606e-11 5.658435096582584e-12 2.1924020133145338e-11 1.0355616447428223e-11
          2.3038996848290098e-11 2.5638062752066416e-11 0 2.963617548917194e-11 1.0374712889107339e-11 1.2502059602317882e-11
          7.915769651446632e-12 1.3784463191413693e-11 1.296258388083214e-11 0 2.3654107007512425e-11 8.55838052515826e-12
          1.626360715843833e-11 6.318046585356228e-12 5.610976251311817e-12 7.6124883892688e-12 9.815441710102512e-12 8.726683925377221e-12
          7.038425388868855e-12 5.731667559196041e-12 5.866980499530675e-12 1.8815396770087006e-12
        </DataArray>
      </PointData>
      <CellData>
        <DataArray type="UInt8" Name="vtkGhostType" format="ascii" RangeMin="0" RangeMax="0">
          0 0 0 0 0 0
          0 0 0 0 0 0
          0 0 0 0 0 0
          0 0 0 0 0 0
          0 0 0 0 0 0
          0 0 0 0 0 0
          0 0 0 0 0 0
          0 0 0 0 0 0
          0 0 0 0 0 0
          0 0 0 0 0 0
          0 0 0 0 0 0
          0 0 0 0 0 0
          0 0 0 0 0 0
          0 0 0 0 0 0
          0 0 0 0 0 0
          0 0 0 0 0 0
          0 0 0 0 0 0
          0 0 0 0 0 0
          0 0 0 0 0 0
          0 0 0 0 0 0
          0 0 0 0 0 0
          0 0 0 0 0 0
          0 0 0 0 0 0
          0 0 0 0 0 0
          0 0 0 0 0 0
          0 0 0 0 0 0
          0 0 0 0 0 0
          0 0 0 0 0 0
          0 0 0 0 0 0
          0 0 0 0 0 0
          0 0 0 0 0 0
          0 0 0 0 0 0
          0 0 0 0 0 0
          0 0 0 0 0 0
          0 0 0 0 0 0
          0 0 0 0 0 0
          0 0 0 0 0 0
          0 0 0 0 0 0
          0 0 0 0 0 0
          0 0 0 0 0
        </DataArray>
      </CellData>
      <Points>
        <DataArray type="Float32" Name="Points" NumberOfComponents="3" format="ascii" RangeMin="0" RangeMax="24.49489742783178">
          20 10 10 20 6.5 10
          16 10 10 20 10 5
          16.37211036682129 5.206768989562988 10 20 3 10
          14.333330154418945 10 5.767949104309082 17.5 2.625 10
          12 10 10 14.425399780273438 5.033590793609619 7.012404918670654
          13.360549926757812 4.658843994140625 10 20 3 5
          16.25 2.4375 7.37460994720459 15 2.25 10
          20 10 0 12.214110374450684 6.010365009307861 4.925261974334717
          14.570380210876465 5.105739116668701 2.9404709339141846 12 10 3.0717968940734863
          10 10 6.535898208618164 20 6.5 0
          16.344310760498047 2.451646089553833 3.285098075866699 16 10 0
          10.119270324707031 5.519060134887695 10 13.631239891052246 2.0446860790252686 6.215021133422852
          12.5 1.875 10 10.550640106201172 4.647356033325195 7.100153923034668
          16.37211036682129 5.206768989562988 0 8 10 10
          20 3 0 11.739009857177734 4.367464065551758 2.512845993041992
          13.663330078125 2.049499034881592 2.55780291557312 17.5 2.625 0
          12 10 0 10.661359786987305 1.5992039442062378 6.873061180114746
          9.59029769897461 6.954894065856934 2.912667989730835 10 1.5 10
          8.36054801940918 3.908843994140625 10 13.360549926757812 4.658843994140625 0
          15 2.25 0 6.61377477645874 6.690732002258301 10
          8 10 3.0717968940734863 10.999679565429688 1.6499520540237427 3.4145760536193848
          9 3 5 8 4.732050895690918 5
          8 3 6.732050895690918 10.596699714660645 5.428274154663086 0
          9 1.350000023841858 5 12.5 1.875 0
          5.6666669845581055 10 5.767949104309082 7.9958391189575195 1.1993759870529175 6.734446048736572
          7.5 1.125 10 8 3 3.267949104309082
          5.86054801940918 3.533843994140625 10 8 10 0
          6 4.732050895690918 5 6 3 6.732050895690918
          4 10 10 7.995840072631836 1.1993759870529175 3.2655539512634277
          10 1.5 0 7.719629764556885 4.535800933837891 0
          6.004158973693848 0.9006239175796509 6.734445095062256 6 3 3.267949104309082
          3.305811882019043 6.3972368240356445 10 5 3 5
          5 0.75 10 3.3605480194091797 3.158843994140625 10
          6.004159927368164 0.9006239771842957 3.2655539512634277 7.5 1.125 0
          5 0.75 5 5.535371780395508 3.26835298538208 0
          4 10 0 3.0012240409851074 5.308693885803223 3.156306028366089
          3.720721960067749 0.5581083297729492 6.921747207641602 4.087935924530029 6.566143035888672 0
          2.5 0.375 10 0 10 10
          5 0.75 0 3.3971519470214844 0.5095726847648621 3.1724090576171875
          3.3605480194091797 3.158843994140625 0 0 10 5
          0 5 10 0 4.949490070343018 5.050509929656982
          2.5 0.375 0 0 0 10
          0 10 0 0 0 5
          0 5 0 0 0 0
          <InformationKey name="L2_NORM_RANGE" location="vtkDataArray" length="2">
            <Value index="0">
              0
            </Value>
            <Value index="1">
              24.494897428
            </Value>
          </InformationKey>
        </DataArray>
      </Points>
      <Cells>
        <DataArray type="Int64" Name="connectivity" format="ascii" RangeMin="0" RangeMax="87">
          16 20 19 11 53 40
          70 73 81 63 77 71
          69 59 61 51 62 55
          52 65 66 77 69 76
          55 68 72 63 79 62
          75 80 52 55 64 65
          10 8 2 9 32 37
          21 16 47 41 30 29
          15 9 23 16 54 48
          34 40 44 42 43 25
          43 39 44 25 41 15
          23 29 62 54 81 71
          77 69 78 61 32 17
          53 34 39 54 62 48
          59 73 54 34 19 3
          21 16 11 1 4 12
          79 56 75 62 45 17
          32 34 54 59 61 73
          23 33 24 25 18 22
          39 25 23 10 24 13
          24 10 23 25 39 48
          56 27 46 42 44 33
          4 11 12 9 64 60
          52 50 40 73 54 71
          23 15 41 25 44 35
          36 50 39 18 43 48
          10 9 23 25 43 54
          39 48 23 16 30 29
          85 81 65 72 60 50
          49 55 21 17 32 16
          49 35 44 50 81 62
          79 80 39 22 36 25
          26 38 20 16 81 85
          65 80 81 63 65 72
          8 9 22 25 20 38
          30 16 46 44 49 33
          20 16 19 26 70 40
          48 73 7 4 12 13
          61 59 69 73 45 51
          58 29 52 39 36 55
          69 73 78 71 36 35
          44 25 42 15 41 29
          19 21 3 14 77 63
          61 71 78 82 77 86
          40 73 53 34 18 48
          39 27 68 61 77 63
          17 40 53 34 23 13
          12 9 49 50 44 55
          17 37 32 16 48 54
          34 43 81 77 63 85
          18 8 22 25 44 35
          49 33 36 39 44 55
          61 54 43 59 86 73
          84 71 59 45 53 34
          11 9 3 16 10 13
          23 9 52 50 60 55
          11 1 3 9 77 72
          63 85 86 81 77 71
          6 17 21 16 4 1
          11 9 54 73 61 71
          39 62 56 48 43 15
          42 29 70 48 79 71
          67 59 69 51 4 2
          3 9 37 16 17 29
          43 34 18 25 43 18
          39 25 52 62 39 55
          86 84 79 71 15 34
          17 29 12 13 4 9
          32 17 45 37 3 1
          4 9 45 34 51 29
          79 62 81 71 69 78
          61 71 45 37 17 29
          48 73 40 71 57 58
          67 51 10 2 4 9
          6 8 18 15 31 26
          20 19 67 61 57 51
          54 73 40 34 62 48
          54 71 18 27 39 22
          11 20 12 9 41 58
          57 51 56 62 79 48
          46 41 57 51 41 42
          46 33 47 37 30 38
          46 42 41 51 3 2
          4 1 43 51 59 34
          23 20 30 16 77 86
          85 81 8 15 6 9
          0 2 3 1 24 22
          10 25 41 33 23 25
          87 85 77 86 69 61
          67 51 52 60 64 55
          59 51 45 34 41 51
          42 29 39 55 62 54
          12 20 23 9 15 34
          43 25 15 16 23 29
          22 9 10 25 44 39
          43 54 44 55 39 54
          23 9 15 25 84 70
          79 71 35 33 44 25
          44 33 42 25 61 73
          69 71 84 73 70 71
          17 15 18 34 36 22
          35 25 36 50 55 44
          79 81 86 71 2 8
          6 9 18 17 6 15
          27 22 18 8 4 13
          10 9 42 51 43 29
          22 8 10 9 31 11
          28 19 15 9 8 25
          43 59 54 34 78 73
          86 71 86 77 78 71
          41 15 42 25 18 40
          17 34 54 63 81 71
          70 73 48 71 3 2
          6 9 17 34 45 29
          74 65 64 72 64 55
          60 72 64 65 55 72
          57 61 67 66 69 76
          67 66 67 61 69 66
          21 26 19 16 77 86
          82 87 24 33 35 25
          20 26 31 38 35 22
          24 25 55 68 60 72
          17 16 15 29 76 82
          77 78 77 66 69 61
          77 72 68 63 61 78
          77 71 48 40 54 71
          30 16 37 29 58 51
          41 29 61 63 54 71
          67 58 59 51 59 58
          45 51 37 26 21 16
          23 9 20 16 50 36
          55 52 43 48 18 34
          85 65 80 83 42 15
          43 25 61 59 43 51
          30 38 37 16 45 58
          47 29 43 34 15 29
          62 54 55 63 81 54
          62 63 55 72 65 63
          31 11 19 20 42 33
          41 25 3 9 6 16
          55 65 62 63 62 65
          81 63 48 40 18 34
          74 85 65 72 79 48
          62 71 11 5 1 12
          53 73 59 34 44 39
          36 25 62 80 81 65
          30 41 23 29 53 45
          32 34 3 6 21 16
          12 7 1 4 85 74
          65 83 18 15 8 25
          18 34 15 25 68 61
          66 77 6 15 17 16
          63 72 81 85 47 58