<?xml version="1.0"?>
<VTKFile type="UnstructuredGrid" version="0.1" byte_order="LittleEndian" header_type="UInt32" compressor="vtkZLibDataCompressor">
  <UnstructuredGrid>
    <Piece NumberOfPoints="88" NumberOfCells="239">
      <PointData>
        <DataArray type="Float64" Name="nsi_BC" NumberOfComponents="3" format="ascii" RangeMin="0" RangeMax="1">
          1 0 0 1 0 0
          1 0 0 1 0 0
          1 0 0 0 0 0
          1 0 0 0 0 0
          1 0 0 0 0 0
          1 0 0 0 0 0
          0 0 0 0 0 0
          1 0 0 0 0 0
          0 0 0 1 0 0
          1 0 0 1 0 0
          0 0 0 1 0 0
          1 0 0 0 0 0
          0 0 0 0 0 0
          1 0 0 1 0 0
          0 0 0 0 0 0
          0 0 0 0 0 0
          1 0 0 0 0 0
          0 0 0 0 0 0
          1 0 0 1 0 0
          0 0 0 1 0 0
          1 0 0 0 0 0
          0 0 0 0 0 0
          0 0 0 1 0 0
          0 0 0 0 0 0
          1 0 0 0 0 0
          0 0 0 0 0 0
          1 0 0 1 0 0
          0 0 0 0 0 0
          1 0 0 0 0 0
          0 0 0 1 0 0
          0 0 0 0 0 0
          1 0 0 0 0 0
          0 0 0 1 0 0
          0 0 0 0 0 0
          0 0 0 1 0 0
          1 0 0 0 0 0
          0 0 0 1 0 0
          0 0 0 1 0 0
          0 0 0 0 0 0
          1 0 0 1 0 0
          1 0 0 1 0 0
          0 0 0 0 0 0
          1 0 0 0 0 0
          1 0 0 0 0 0
          <InformationKey name="L2_NORM_RANGE" location="vtkDataArray" length="2">
            <Value index="0">
              0
            </Value>
            <Value index="1">
              1
            </Value>
          </InformationKey>
        </DataArray>
        <DataArray type="Float64" Name="nsi_FIXNO" NumberOfComponents="3" format="ascii" RangeMin="1.7320508075688772" RangeMax="1.7320508075688772">
          1 1 1 1 1 1
          1 1 1 1 1 1
          1 1 1 1 1 1
          1 1 1 1 1 1
          1 1 1 -1 -1 -1
          1 1 1 1 1 1
          1 1 1 1 1 1
          1 1 1 -1 -1 -1
          -1 -1 -1 1 1 1
          1 1 1 1 1 1
          1 1 1 1 1 1
          1 1 1 1 1 1
          1 1 1 -1 -1 -1
          1 1 1 1 1 1
          1 1 1 -1 -1 -1
          1 1 1 1 1 1
          1 1 1 1 1 1
          -1 -1 -1 1 1 1
          1 1 1 1 1 1
          1 1 1 1 1 1
          1 1 1 1 1 1
          1 1 1 1 1 1
          1 1 1 1 1 1
          1 1 1 1 1 1
          1 1 1 1 1 1
          1 1 1 1 1 1
          1 1 1 1 1 1
          1 1 1 1 1 1
          1 1 1 1 1 1
          1 1 1 1 1 1
          1 1 1 1 1 1
          1 1 1 1 1 1
          1 1 1 1 1 1
          1 1 1 1 1 1
          1 1 1 1 1 1
          1 1 1 -1 -1 -1
          1 1 1 1 1 1
          1 1 1 1 1 1
          1 1 1 1 1 1
          1 1 1 1 1 1
          1 1 1 1 1 1
          1 1 1 1 1 1
          1 1 1 1 1 1
          1 1 1 1 1 1
          <InformationKey name="L2_NORM_RANGE" location="vtkDataArray" length="2">
            <Value index="0">
              1.7320508076
            </Value>
            <Value index="1">
              1.7320508076
            </Value>
          </InformationKey>
        </DataArray>
        <DataArray type="Float64" Name="tem_BC" format="ascii" RangeMin="0" RangeMax="12">
          0 0 0 0 0 12
          0 12 0 0 0 12
          12 12 0 0 0 0
          0 0 12 0 0 12
          12 0 0 0 12 0
          12 12 0 12 0 12
          0 0 12 0 0 12
          12 12 12 0 12 12
          0 12 12 12 0 0
          12 12 0 12 12 0
          12 12 0 12 12 0
          12 12 12 0 0 0
          12 0 12 7.64356 12 12
          0 7.64356 8.129456 8.136573 12 12
          7.64356 12 8.129456 12
        </DataArray>
        <DataArray type="Float64" Name="tem_FIXNO" format="ascii" RangeMin="-1" RangeMax="1">
          -1 -1 -1 -1 -1 1
          -1 1 -1 -1 -1 1
          1 1 -1 -1 -1 -1
          -1 -1 1 -1 -1 1
          1 -1 -1 -1 1 -1
          1 1 -1 1 -1 1
          -1 -1 1 -1 -1 1
          1 1 1 -1 1 1
          -1 1 1 1 -1 -1
          1 1 -1 1 1 -1
          1 1 -1 1 1 -1
          1 1 1 -1 -1 -1
          1 -1 1 1 1 1
          -1 1 1 1 1 1
          1 1 1 1
        </DataArray>
        <DataArray type="Float64" Name="Velocity" NumberOfComponents="3" format="ascii" RangeMin="0" RangeMax="1.0000000000000002">
          1 0 0 1 0 0
          1.0000000000000002 0 0 1 0 0
          1 0 0 0 0 0
          1 0 0 0 0 0
          1 0 0 0.5418155574104531 0.08217550211537844 0.06986579236138679
          1 0 0 0 0 0
          0 0 0 0 0 0
          1 0 0 0.4486773342035917 0.06102330199129878 -0.006968352711094583
          0.5225680978997291 0.08175451033370881 -0.011141394459567827 1 0 0
          1 0 0 1 0 0
          0 0 0 1 0 0
          1 0 0 0 0 0
          0 0 0 0.4267042043485221 -0.00917613359440228 -0.02398176326091106
          1 0 0 1 0 0
          0 0 0 0.3492279643108769 0.04480744436393386 -0.06679870980795644
          0 0 0 0 0 0
          1 0 0 0 0 0
          0.46353496778310266 -0.0663628372369931 0.00767926580248386 0 0 0
          1 0 0 1 0 0
          0 0 0 1 0 0
          1 0 0 0 0 0
          0 0 0 0 0 0
          0 0 0 1 0 0
          0 0 0 0 0 0
          1 0 0 0 0 0
          0 0 0 0 0 0
          1 0 0 1 0 0
          0 0 0 0 0 0
          1 0 0 0 0 0
          0 0 0 1 0 0
          0 0 0 0 0 0
          1 0 0 0 0 0
          0 0 0 1 0 0
          0 0 0 0 0 0
          0 0 0 1 0 0
          1 0 0 0.6368402768991392 -0.02371938130618069 -0.09035128271358506
          0 0 0 1 0 0
          0 0 0 1 0 0
          0 0 0 0 0 0
          1 0 0 1.0000000000000002 0 0
          1 0 0 1 0 0
          0 0 0 0 0 0
          1 0 0 0 0 0
          1 0 0 0 0 0
          <InformationKey name="L2_NORM_RANGE" location="vtkDataArray" length="2">
            <Value index="0">
              0
            </Value>
            <Value index="1">
              1
            </Value>
          </InformationKey>
        </DataArray>
        <DataArray type="Float64" Name="Pressure" format="ascii" RangeMin="0" RangeMax="12.06140270261884">
          0 7.693284158439927 7.991338581210499 7.740983118614059 8.76627942342006 8.355894863219014
          9.309772428133337 8.926307153508684 9.959996948888785 9.564137129495302 9.860431605170541 8.498163512299694
          9.331328351799737 9.479824197406673 8.4655229016794 10.28777725020974 9.557481012256773 10.0558706423121
          10.681113261033977 8.38529319518032 9.368846042916172 9.0340181835747 10.6930627200759 10.012509925997703
          10.391391849794397 10.705362036397569 9.178670609489812 10.86674437467226 8.86197195512989 10.389794194853442
          9.991820691539928 9.181624357840315 10.088926160545434 10.639187648959169 10.900470073666146 10.742288601401587
          10.917363334856097 9.925026024421275 9.72698358174495 11.122314827403315 11.034817224778614 10.55895135771331
          10.920761852811477 11.148863260450455 10.948572404142897 10.520411921949758 10.799204488644984 10.25956253312994
          11.06666757303318 10.901031422612267 10.840661163280807 10.926273591203513 10.936590377098213 11.052882378640595
          10.816161895188745 10.942387343187804 11.2342489494882 10.861606184650832 10.62029034070748 10.838854949776719
          10.940900573164184 10.804740327275729 11.30202626698261 10.976491432671253 10.9588230905873 11.048255112136916
          10.861402982762446 10.753506285557172 10.984346790728187 10.820497669487844 11.16058850872606 11.333105230177365
          10.973162178535901 11.171983593009152 11.036487369027181 11.5951978038424 10.94175331281493 11.024269203909943
          11.063995663524429 12.06140270261884 11.246225912151369 11.509401873299462 11.115996419883402 11.027399232901558
          12.018830363886202 11.020013795139494 11.656134285811415 11.268444171056823
        </DataArray>
        <DataArray type="Float64" Name="DISSI_NS" format="ascii" RangeMin="0" RangeMax="0.0074507796265186575">
          3.636155735008812e-38 0.0017228708006490655 0.0003571023281163088 0.00097605788605928 0.0016936871076129924 0.003119273325864157
          0.00034008056266629256 0.0037002385237812586 0.0005202760450962686 0.0011207664392230501 0.003044968466897925 0.0019223075693133294
          0.0025316573719193717 0.004958340257594523 0 0.000453743885344716 0.0011314923801298395 0.0009467263632149128
          0.001076179802628432 0.0014560405576089094 0.0017920232787995622 0.0003386300512197919 0.0013182368983361643 0.00159666379970158
          0.003860533767861304 0.0017231096267893817 0.0032715966310161984 5.0891607687796484e-39 0.0017986023521693276 0.0015398585322439799
          0.0021195278666764138 0.003275855143093864 0.0008484477475256039 0.0002955188713472891 0.001177739222462249 0.00418389820298153
          0.0053751826387846025 0.002909071944441296 0.0054219943657549275 0.0015278662856995722 0.0010779747285433127 0.00023759772971975577
          0.00020434823610681048 0.0013503634147696755 0.0026531687797689257 0.0025973580588620902 0 0.003206110141232022
          0.0011952963500278168 0 0.005268223631581774 0.00251362412418863 0.0065097340880555556 0.0007804210740286392
          0.0017624711492708774 0.0036274508567958803 1.5911118791696657e-38 0 0.002927251017561365 0.0023683837075323343
          0.004525482921093531 0.002153066956502689 0.0011044424528420548 0.0015997093631189773 0.0074507796265186575 0.0032787802718279697
          0.0041529903546563066 0.0045002306721952864 0 0.003936629564843565 0.00016728535256896112 0.0011307090308124163
          0.0030896739778525934 0.0009680461349088 0.005140167609773621 3.636155735007092e-38 0.005974564302670471 0.00220151929818844
          0.0030371116333456354 0.00018252738096890324 0.0011817377007017143 0.0013512586146817722 0.0036065690078020338 0.0030315248686987343
          0.00027457124250094173 0.0024666050669443166 0.0013918122022470506 0.0017234162115208848
        </DataArray>
        <DataArray type="Float64" Name="Temperature" format="ascii" RangeMin="-1.377773898117138" RangeMax="12.000000000000004">
          0.4904873478384347 -0.7307459011112398 0.03348471585268676 -0.44493246304317313 -0.06914588760251306 12
          -0.13116940850177625 12.000000000000002 -0.21896137462864185 0.27919430330600487 0.07280963960165517 12
          11.999999999999998 12.000000000000004 0.3945307647945168 -0.14690707207590442 0.2498839344437284 -0.18794961407679434
          0.2027677925517592 -0.5497735870567968 12.000000000000002 -0.050349997053301745 -0.5942822156187527 12.000000000000002
          12.000000000000002 1.7914487606892866 -0.11728362429734653 0.06378179910845644 12 1.1181216184064915
          12 12.000000000000002 -0.32939316796948964 12 1.3233319406119732 12.000000000000002
          1.235448434433405 0.05593618238508926 12 -0.14462322638256414 -1.377773898117138 12
          12.000000000000002 11.999999999999998 12.000000000000002 -0.37860408556793357 12.000000000000002 11.999999999999998
          -0.0019495341781698954 11.999999999999998 12.000000000000002 12 0.8258374135116432 -0.2069107959918378
          11.999999999999998 11.999999999999998 2.1719371742427547 12.000000000000002 12.000000000000002 0.18685372868024178
          12.000000000000002 12.000000000000004 1.9069306037819578 12 12.000000000000002 2.593338325194063
          12 12 12.000000000000002 0.07741217760882191 1.7109468586946508 3.0599168978375326
          12.000000000000002 0.2231204811083935 12 7.643560000000001 12 11.999999999999998
          2.839705389511264 7.643560000000002 8.129456 8.136573 12 12.000000000000002
          7.643559999999999 12.000000000000002 8.129456000000001 12.000000000000002
        </DataArray>
        <DataArray type="Float64" Name="DISSI_TEMPE" format="ascii" RangeMin="5.884222782497453e-32" RangeMax="1.438102028848216">
          0.00434218581636645 0.47905313077212663 0.0012129452715126659 0.20718827485031044 0.4319313318258072 0.8513278587237086
          0.0006402840742930191 0.9869231857148149 0.013359088037257638 0.33979403753651066 0.6289657032474509 0.6441328048561411
          0.9508168899167451 1.2202984008255415 0.0028986168764804244 0.20805717375981048 0.3133670101637993 0.012656738818334387
          0.2711552345406738 0.4123830562902443 0.8489940566480879 0.0009060876675530184 0.18934090210105292 0.7767181633975168
          0.9540808029159127 0.5983920227912845 0.7280233080928 0.0033173872176458594 0.6192945298205907 0.46870854875805273
          0.9332880248966027 0.8902590618854518 0.008923729816109637 0.43035233910885945 0.3268749925387453 0.9641160117488139
          1.130437463664407 0.4346055882608692 1.2741244808391496 0.389057552310226 0.2801599899530849 0.4827672603192969
          0.404652738088736 0.6345443536181894 0.7336306008088919 0.39094668890124046 8.914288791589104e-32 0.9468083209194798
          0.3192761118088652 2.3626848781431594e-31 1.0906307391093564 0.6871605510003171 1.438102028848216 0.021458318623305377
          0.6168774694116478 0.7666338141737777 0.035128523321455 5.884222782497453e-32 0.7667116365504193 0.5690329313991654
          1.2691523982896824 0.6789857187177506 0.33608837407126557 0.22765959021217713 1.3690672295174737 0.48291080422900046
          1.0823905478780513 1.1143441332007562 1.2087047622112927e-31 1.1764536503670655 0.09475240628056732 0.4159512733853242
          0.3982595094382268 0.29011123150457535 0.7829621529806373 0.07008324859483356 1.28432086199455 0.38598683907116466
          0.7299555521590471 0.10890380638828263 0.21331188540950982 0.3096412437795545 0.573324593272906 0.4633197889349406
          0.13488193006484184 0.2598958158776199 0.2438602003999957 0.04148021033729452
        </DataArray>
        <DataArray type="Float64" Name="CN2" format="ascii" RangeMin="0" RangeMax="4.915011800183346e-11">
          0 2.6087056618979382e-11 1.1036684751153198e-13 1.357826863451994e-11 2.3427437590513444e-11 3.168605102155342e-11
          5.936072910353841e-14 3.470037340441763e-11 1.0762595289054174e-12 2.1042189700123495e-11 2.799801276644795e-11 2.817246039119055e-11
          3.793960445282454e-11 3.891820282674612e-11 0 1.752567941289551e-11 1.9352442368307435e-11 8.348374564618757e-13
          1.7039830092990138e-11 2.368941392060395e-11 3.8012051954926193e-11 8.402314958123266e-14 1.1251099992432957e-11 3.6140634390724057e-11
          3.307573215023654e-11 3.1406794855842895e-11 3.1728996759297323e-11 0 2.7693573693367806e-11 2.579139641772262e-11
          3.9512933495974634e-11 3.259901119563398e-11 6.117777376319659e-13 3.5137539013923197e-11 1.9609629406238696e-11 3.253958931231944e-11
          4.093637022950565e-11 1.9647750850459195e-11 3.9442081840725586e-11 2.1864550155197878e-11 1.8008967765637395e-11 4.2390180297607386e-11
          3.7362581656497513e-11 3.122183581168408e-11 2.8820449174686898e-11 1.847196143288955e-11 0 3.492005098814816e-11
          1.9432183585830026e-11 0 3.408790643954479e-11 2.7485449684212486e-11 4.915011800183346e-11 1.5099768673193067e-12
          2.7773803134299438e-11 2.7135156945045166e-11 0 0 2.9148809021454895e-11 2.7497809585603333e-11
          4.172890588707278e-11 2.8596868506698255e-11 2.0424758535794954e-11 1.058646005393296e-11 3.812143360849044e-11 2.0216936090745223e-11
          3.662192703122468e-11 3.670717633778335e-11 0 4.806993732841522e-11 1.0833257572609114e-11 2.4664759211760013e-11
          1.4871008302531066e-11 1.8880623365420472e-11 2.4673307574381335e-11 0 3.84931097355768e-11 1.613654630186991e-11
          3.123758182588261e-11 1.1104523189885017e-11 1.1589472231924449e-11 1.608644005705865e-11 2.0332098734943927e-11 1.741029336694359e-11
          1.200331626516364e-11 1.0461122833300823e-11 1.2546037318892335e-11 1.881591185140861e-12
        </DataArray>
        <DataArray type="Float64" Name="CT2" format="ascii" RangeMin="0" RangeMax="44.896539136392356">
          0 23.017346875479237 0.09847654322654972 12.030835800096925 20.871778857071153 33.56099682361407
          0.05283656550263298 36.7532652216761 0.9567269737849826 18.842268931228457 24.995117429104194 29.83941302755464
          40.18380535619896 41.220167305466944 0 15.595581873950765 17.321754519391828 0.7424538745005306
          15.240955572776832 20.957146000902476 40.260508061206714 0.07487741981645347 9.9464729103933 38.27790130214284
          35.03148296326031 28.74996425802278 28.24757582231486 0 29.331977398494463 23.37931326292213
          41.849647074280725 34.527409057822275 0.5429508646556687 37.21501897723712 17.828759781873718 34.46339644144064
          37.17103183878741 17.53609821006475 41.77482664602423 19.456940509088014 15.738345319362187 44.896539136392356
          39.571392732079914 33.06746579685104 30.524247205982377 16.38184257615099 0 36.98495291718429
          17.328609361935687 0 36.1031822229976 29.110338626728208 44.36336014648347 1.3424821201743025
          29.415803772753545 28.73932796783884 0 0 30.872221597817166 24.589094121450444
          44.19582868501687 30.287536084862165 18.728152732907365 11.212300729475693 40.3750759651744 18.72342524288484
          38.78699793097247 38.87737102161165 0 42.9163180456975 9.905128011865173 22.997536738914516
          15.750140036434896 16.892282700214494 26.131890281662177 0 40.76873855787095 17.090475577528547
          29.033450163089256 11.058329732671455 11.621544266647037 16.132504495256203 21.534013100639164 18.439520414979743
          11.953394115223546 11.079544294417763 12.580653369559386 1.9928137392452046
        </DataArray>
      </PointData>
      <CellData>
        <DataArray type="UInt8" Name="vtkGhostType" format="ascii" RangeMin="0" RangeMax="0">
          0 0 0 0 0 0
          0 0 0 0 0 0
          0 0 0 0 0 0
          0 0 0 0 0 0
          0 0 0 0 0 0
          0 0 0 0 0 0
          0 0 0 0 0 0
          0 0 0 0 0 0
          0 0 0 0 0 0
          0 0 0 0 0 0
          0 0 0 0 0 0
          0 0 0 0 0 0
          0 0 0 0 0 0
          0 0 0 0 0 0
          0 0 0 0 0 0
          0 0 0 0 0 0
          0 0 0 0 0 0
          0 0 0 0 0 0
          0 0 0 0 0 0
          0 0 0 0 0 0
          0 0 0 0 0 0
          0 0 0 0 0 0
          0 0 0 0 0 0
          0 0 0 0 0 0
          0 0 0 0 0 0
          0 0 0 0 0 0
          0 0 0 0 0 0
          0 0 0 0 0 0
          0 0 0 0 0 0
          0 0 0 0 0 0
          0 0 0 0 0 0
          0 0 0 0 0 0
          0 0 0 0 0 0
          0 0 0 0 0 0
          0 0 0 0 0 0
          0 0 0 0 0 0
          0 0 0 0 0 0
          0 0 0 0 0 0
          0 0 0 0 0 0
          0 0 0 0 0
        </DataArray>
      </CellData>
      <Points>
        <DataArray type="Float32" Name="Points" NumberOfComponents="3" format="ascii" RangeMin="0" RangeMax="24.49489742783178">
          20 10 10 20 6.5 10
          16 10 10 20 10 5
          16.37211036682129 5.206768989562988 10 20 3 10
          14.333330154418945 10 5.767949104309082 17.5 2.625 10
          12 10 10 14.425399780273438 5.033590793609619 7.012404918670654
          13.360549926757812 4.658843994140625 10 20 3 5
          16.25 2.4375 7.37460994720459 15 2.25 10
          20 10 0 12.214110374450684 6.010365009307861 4.925261974334717
          14.570380210876465 5.105739116668701 2.9404709339141846 12 10 3.0717968940734863
          10 10 6.535898208618164 20 6.5 0
          16.344310760498047 2.451646089553833 3.285098075866699 16 10 0
          10.119270324707031 5.519060134887695 10 13.631239891052246 2.0446860790252686 6.215021133422852
          12.5 1.875 10 10.550640106201172 4.647356033325195 7.100153923034668
          16.37211036682129 5.206768989562988 0 8 10 10
          20 3 0 11.739009857177734 4.367464065551758 2.512845993041992
          13.663330078125 2.049499034881592 2.55780291557312 17.5 2.625 0
          12 10 0 10.661359786987305 1.5992039442062378 6.873061180114746
          9.59029769897461 6.954894065856934 2.912667989730835 10 1.5 10
          8.36054801940918 3.908843994140625 10 13.360549926757812 4.658843994140625 0
          15 2.25 0 6.61377477645874 6.690732002258301 10
          8 10 3.0717968940734863 10.999679565429688 1.6499520540237427 3.4145760536193848
          9 3 5 8 4.732050895690918 5
          8 3 6.732050895690918 10.596699714660645 5.428274154663086 0
          9 1.350000023841858 5 12.5 1.875 0
          5.6666669845581055 10 5.767949104309082 7.9958391189575195 1.1993759870529175 6.734446048736572
          7.5 1.125 10 8 3 3.267949104309082
          5.86054801940918 3.533843994140625 10 8 10 0
          6 4.732050895690918 5 6 3 6.732050895690918
          4 10 10 7.995840072631836 1.1993759870529175 3.2655539512634277
          10 1.5 0 7.719629764556885 4.535800933837891 0
          6.004158973693848 0.9006239175796509 6.734445095062256 6 3 3.267949104309082
          3.305811882019043 6.3972368240356445 10 5 3 5
          5 0.75 10 3.3605480194091797 3.158843994140625 10
          6.004159927368164 0.9006239771842957 3.2655539512634277 7.5 1.125 0
          5 0.75 5 5.535371780395508 3.26835298538208 0
          4 10 0 3.0012240409851074 5.308693885803223 3.156306028366089
          3.720721960067749 0.5581083297729492 6.921747207641602 4.087935924530029 6.566143035888672 0
          2.5 0.375 10 0 10 10
          5 0.75 0 3.3971519470214844 0.5095726847648621 3.1724090576171875
          3.3605480194091797 3.158843994140625 0 0 10 5
          0 5 10 0 4.949490070343018 5.050509929656982
          2.5 0.375 0 0 0 10
          0 10 0 0 0 5
          0 5 0 0 0 0
          <InformationKey name="L2_NORM_RANGE" location="vtkDataArray" length="2">
            <Value index="0">
              0
            </Value>
            <Value index="1">
              24.494897428
            </Value>
          </InformationKey>
        </DataArray>
      </Points>
      <Cells>
        <DataArray type="Int64" Name="connectivity" format="ascii" RangeMin="0" RangeMax="87">
          16 20 19 11 53 40
          70 73 81 63 77 71
          69 59 61 51 62 55
          52 65 66 77 69 76
          55 68 72 63 79 62
          75 80 52 55 64 65
          10 8 2 9 32 37
          21 16 47 41 30 29
          15 9 23 16 54 48
          34 40 44 42 43 25
          43 39 44 25 41 15
          23 29 62 54 81 71
          77 69 78 61 32 17
          53 34 39 54 62 48
          59 73 54 34 19 3
          21 16 11 1 4 12
          79 56 75 62 45 17
          32 34 54 59 61 73
          23 33 24 25 18 22
          39 25 23 10 24 13
          24 10 23 25 39 48
          56 27 46 42 44 33
          4 11 12 9 64 60
          52 50 40 73 54 71
          23 15 41 25 44 35
          36 50 39 18 43 48
          10 9 23 25 43 54
          39 48 23 16 30 29
          85 81 65 72 60 50
          49 55 21 17 32 16
          49 35 44 50 81 62
          79 80 39 22 36 25
          26 38 20 16 81 85
          65 80 81 63 65 72
          8 9 22 25 20 38
          30 16 46 44 49 33
          20 16 19 26 70 40
          48 73 7 4 12 13
          61 59 69 73 45 51
          58 29 52 39 36 55
          69 73 78 71 36 35
          44 25 42 15 41 29
          19 21 3 14 77 63
          61 71 78 82 77 86
          40 73 53 34 18 48
          39 27 68 61 77 63
          17 40 53 34 23 13
          12 9 49 50 44 55
          17 37 32 16 48 54
          34 43 81 77 63 85
          18 8 22 25 44 35
          49 33 36 39 44 55
          61 54 43 59 86 73
          84 71 59 45 53 34
          11 9 3 16 10 13
          23 9 52 50 60 55
          11 1 3 9 77 72
          63 85 86 81 77 71
          6 17 21 16 4 1
          11 9 54 73 61 71
          39 62 56 48 43 15
          42 29 70 48 79 71
          67 59 69 51 4 2
          3 9 37 16 17 29
          43 34 18 25 43 18
          39 25 52 62 39 55
          86 84 79 71 15 34
          17 29 12 13 4 9
          32 17 45 37 3 1
          4 9 45 34 51 29
          79 62 81 71 69 78
          61 71 45 37 17 29
          48 73 40 71 57 58
          67 51 10 2 4 9
          6 8 18 15 31 26
          20 19 67 61 57 51
          54 73 40 34 62 48
          54 71 18 27 39 22
          11 20 12 9 41 58
          57 51 56 62 79 48
          46 41 57 51 41 42
          46 33 47 37 30 38
          46 42 41 51 3 2
          4 1 43 51 59 34
          23 20 30 16 77 86
          85 81 8 15 6 9
          0 2 3 1 24 22
          10 25 41 33 23 25
          87 85 77 86 69 61
          67 51 52 60 64 55
          59 51 45 34 41 51
          42 29 39 55 62 54
          12 20 23 9 15 34
          43 25 15 16 23 29
          22 9 10 25 44 39
          43 54 44 55 39 54
          23 9 15 25 84 70
          79 71 35 33 44 25
          44 33 42 25 61 73
          69 71 84 73 70 71
          17 15 18 34 36 22
          35 25 36 50 55 44
          79 81 86 71 2 8
          6 9 18 17 6 15
          27 22 18 8 4 13
          10 9 42 51 43 29
          22 8 10 9 31 11
          28 19 15 9 8 25
          43 59 54 34 78 73
          86 71 86 77 78 71
          41 15 42 25 18 40
          17 34 54 63 81 71
          70 73 48 71 3 2
          6 9 17 34 45 29
          74 65 64 72 64 55
          60 72 64 65 55 72
          57 61 67 66 69 76
          67 66 67 61 69 66
          21 26 19 16 77 86
          82 87 24 33 35 25
          20 26 31 38 35 22
          24 25 55 68 60 72
          17 16 15 29 76 82
          77 78 77 66 69 61
          77 72 68 63 61 78
          77 71 48 40 54 71
          30 16 37 29 58 51
          41 29 61 63 54 71
          67 58 59 51 59 58
          45 51 37 26 21 16
          23 9 20 16 50 36
          55 52 43 48 18 34
          85 65 80 83 42 15
          43 25 61 59 43 51
          30 38 37 16 45 58
          47 29 43 34 15 29
          62 54 55 63 81 54
          62 63 55 72 65 63
          31 11 19 20 42 33
          41 25 3 9 6 16
          55 65 62 63 62 65
          81 63 48 40 18 34
          74 85 65 72 79 48
          62 71 11 5 1 12
          53 73 59 34 44 39
          36 25 62 80 81 65
          30 41 23 29 53 45
          32 34 3 6 21 16
          12 7 1 4 85 74
          65 83 18 15 8 25
          18 34 15 25 68 61
          66 77 6 15 17 16
          63 72 81 85 47 58
          41 29 47 37 45 29
          20 9 11 16 5 7
          1 12 69 77 78 76
          30 37 47 29 37 38
          26 16 11 3 19 16
          51 34 43 29 6 9
          15 16
        </DataArray>
        <DataArray type="Int64" Name="offsets" format="ascii" RangeMin="4" RangeMax="956">
          4 8 12 16 20 24
          28 32 36 40 44 48
          52 56 60 64 68 72
          76 80 84 88 92 96
          100 104 108 112 116 120
          124 128 132 136 140 144
          148 152 156 160 164 168
          172 176 180 184 188 192
          196 200 204 208 212 216
          220 224 228 232 236 240
          244 248 252 256 260 264
          268 272 276 280 284 288
          292 296 300 304 308 312
          316 320 324 328 332 336
          340 344 348 352 356 360
          364 368 372 376 380 384
          388 392 396 400 404 408
          412 416 420 424 428 432
          436 440 444 448 452 456
          460 464 468 472 476 480
          484 488 492 496 500 504
          508 512 516 520 524 528
          532 536 540 544 548 552
          556 560 564 568 572 576
          580 584 588 592 596 600
          604 608 612 616 620 624
          628 632 636 640 644 648
          652 656 660 664 668 672
          676 680 684 688 692 696
          700 704 708 712 716 720
          724 728 732 736 740 744
          748 752 756 760 764 768
          772 776 780 784 788 792
          796 800 804 808 812 816
          820 824 828 832 836 840
          844 848 852 856 860 864
          868 872 876 880 884 888
          892 896 900 904 908 912
          916 920 924 928 932 936
          940 944 948 952 956
        </DataArray>
        <DataArray type="UInt8" Name="types" format="ascii" RangeMin="10" RangeMax="10">
          10 10 10 10 10 10
          10 10 10 10 10 10
          10 10 10 10 10 10
          10 10 10 10 10 10
          10 10 10 10 10 10
          10 10 10 10 10 10
          10 10 10 10 10 10
          10 10 10 10 10 10
          10 10 10 10 10 10
          10 10 10 10 10 10
          10 10 10 10 10 10
          10 10 10 10 10 10
          10 10 10 10 10 10
          10 10 10 10 10 10
          10 10 10 10 10 10
          10 10 10 10 10 10
          10 10 10 10 10 10
          10 10 10 10 10 10
          10 10 10 10 10 10
          10 10 10 10 10 10
          10 10 10 10 10 10
          10 10 10 10 10 10
          10 10 10 10 10 10
          10 10 10 10 10 10
          10 10 10 10 10 10
          10 10 10 10 10 10
          10 10 10 10 10 10
          10 10 10 10 10 10
          10 10 10 10 10 10
          10 10 10 10 10 10
          10 10 10 10 10 10
          10 10 10 10 10 10
          10 10 10 10 10 10
          10 10 10 10 10 10
          10 10 10 10 10 10
          10 10 10 10 10 10
          10 10 10 10 10 10
          10 10 10 10 10 10
          10 10 10 10 10 10
          10 10 10 10 10
        </DataArray>
      </Cells>
    </Piece>
  </UnstructuredGrid>
</VTKFile>
