<?xml version="1.0"?>
<VTKFile type="UnstructuredGrid" version="0.1" byte_order="LittleEndian" header_type="UInt32" compressor="vtkZLibDataCompressor">
  <UnstructuredGrid>
    <Piece NumberOfPoints="88" NumberOfCells="239">
      <PointData>
        <DataArray type="Float64" Name="nsi_BC" NumberOfComponents="3" format="ascii" RangeMin="0" RangeMax="1">
          1 0 0 1 0 0
          1 0 0 1 0 0
          1 0 0 0 0 0
          1 0 0 0 0 0
          1 0 0 0 0 0
          1 0 0 0 0 0
          0 0 0 0 0 0
          1 0 0 0 0 0
          0 0 0 1 0 0
          1 0 0 1 0 0
          0 0 0 1 0 0
          1 0 0 0 0 0
          0 0 0 0 0 0
          1 0 0 1 0 0
          0 0 0 0 0 0
          0 0 0 0 0 0
          1 0 0 0 0 0
          0 0 0 0 0 0
          1 0 0 1 0 0
          0 0 0 1 0 0
          1 0 0 0 0 0
          0 0 0 0 0 0
          0 0 0 1 0 0
          0 0 0 0 0 0
          1 0 0 0 0 0
          0 0 0 0 0 0
          1 0 0 1 0 0
          0 0 0 0 0 0
          1 0 0 0 0 0
          0 0 0 1 0 0
          0 0 0 0 0 0
          1 0 0 0 0 0
          0 0 0 1 0 0
          0 0 0 0 0 0
          0 0 0 1 0 0
          1 0 0 0 0 0
          0 0 0 1 0 0
          0 0 0 1 0 0
          0 0 0 0 0 0
          1 0 0 1 0 0
          1 0 0 1 0 0
          0 0 0 0 0 0
          1 0 0 0 0 0
          1 0 0 0 0 0
          <InformationKey name="L2_NORM_RANGE" location="vtkDataArray" length="2">
            <Value index="0">
              0
            </Value>
            <Value index="1">
              1
            </Value>
          </InformationKey>
        </DataArray>
        <DataArray type="Float64" Name="nsi_FIXNO" NumberOfComponents="3" format="ascii" RangeMin="1.7320508075688772" RangeMax="1.7320508075688772">
          1 1 1 1 1 1
          1 1 1 1 1 1
          1 1 1 1 1 1
          1 1 1 1 1 1
          1 1 1 -1 -1 -1
          1 1 1 1 1 1
          1 1 1 1 1 1
          1 1 1 -1 -1 -1
          -1 -1 -1 1 1 1
          1 1 1 1 1 1
          1 1 1 1 1 1
          1 1 1 1 1 1
          1 1 1 -1 -1 -1
          1 1 1 1 1 1
          1 1 1 -1 -1 -1
          1 1 1 1 1 1
          1 1 1 1 1 1
          -1 -1 -1 1 1 1
          1 1 1 1 1 1
          1 1 1 1 1 1
          1 1 1 1 1 1
          1 1 1 1 1 1
          1 1 1 1 1 1
          1 1 1 1 1 1
          1 1 1 1 1 1
          1 1 1 1 1 1
          1 1 1 1 1 1
          1 1 1 1 1 1
          1 1 1 1 1 1
          1 1 1 1 1 1
          1 1 1 1 1 1
          1 1 1 1 1 1
          1 1 1 1 1 1
          1 1 1 1 1 1
          1 1 1 1 1 1
          1 1 1 -1 -1 -1
          1 1 1 1 1 1
          1 1 1 1 1 1
          1 1 1 1 1 1
          1 1 1 1 1 1
          1 1 1 1 1 1
          1 1 1 1 1 1
          1 1 1 1 1 1
          1 1 1 1 1 1
          <InformationKey name="L2_NORM_RANGE" location="vtkDataArray" length="2">
            <Value index="0">
              1.7320508076
            </Value>
            <Value index="1">
              1.7320508076
            </Value>
          </InformationKey>
        </DataArray>
        <DataArray type="Float64" Name="tem_BC" format="ascii" RangeMin="0" RangeMax="12">
          0 0 0 0 0 12
          0 12 0 0 0 12
          12 12 0 0 0 0
          0 0 12 0 0 12
          12 0 0 0 12 0
          12 12 0 12 0 12
          0 0 12 0 0 12
          12 12 12 0 12 12
          0 12 12 12 0 0
          12 12 0 12 12 0
          12 12 0 12 12 0
          12 12 12 0 0 0
          12 0 12 7.64356 12 12
          0 7.64356 8.129456 8.136573 12 12
          7.64356 12 8.129456 12
        </DataArray>
        <DataArray type="Float64" Name="tem_FIXNO" format="ascii" RangeMin="-1" RangeMax="1">
          -1 -1 -1 -1 -1 1
          -1 1 -1 -1 -1 1
          1 1 -1 -1 -1 -1
          -1 -1 1 -1 -1 1
          1 -1 -1 -1 1 -1
          1 1 -1 1 -1 1
          -1 -1 1 -1 -1 1
          1 1 1 -1 1 1
          -1 1 1 1 -1 -1
          1 1 -1 1 1 -1
          1 1 -1 1 1 -1
          1 1 1 -1 -1 -1
          1 -1 1 1 1 1
          -1 1 1 1 1 1
          1 1 1 1
        </DataArray>
        <DataArray type="Float64" Name="Velocity" NumberOfComponents="3" format="ascii" RangeMin="0" RangeMax="1.0000000000000002">
          1 0 0 1 0 0
          1 0 0 1 0 0
          1 0 0 0 0 0
          1 0 0 0 0 0
          1 0 0 0.8446572502238158 0.10950361820231327 0.07149102651645292
          1 0 0 0 0 0
          0 0 0 0 0 0
          1 0 0 0.8793596722697805 0.02868694845544987 0.00803361438575688
          0.8077566135914485 0.10186752019470102 -0.016887793893590422 1 0 0
          1 0 0 1 0 0
          0 0 0 1 0 0
          1 0 0 0 0 0
          0 0 0 0.6099011057200001 0.12645079728907327 -0.10455060227419466
          1 0 0 1.0000000000000002 0 0
          0 0 0 0.643478371947636 0.1484596412836411 -0.0003843959298916594
          0 0 0 0 0 0
          1 0 0 0 0 0
          0.779615120739077 -0.05709335065521981 0.094448750011026 0 0 0
          1 0 0 1 0 0
          0 0 0 1 0 0
          1 0 0 0 0 0
          0 0 0 0 0 0
          0 0 0 1 0 0
          0 0 0 0 0 0
          1 0 0 0 0 0
          0 0 0 0 0 0
          1 0 0 1 0 0
          0 0 0 0 0 0
          1 0 0 0 0 0
          0 0 0 1 0 0
          0 0 0 0 0 0
          1 0 0 0 0 0
          0 0 0 1 0 0
          0 0 0 0 0 0
          0 0 0 1 0 0
          1 0 0 0.7658691536893341 0.04003025266951778 -0.13982807486652934
          0 0 0 1 0 0
          0 0 0 1 0 0
          0 0 0 0 0 0
          1 0 0 1 0 0
          1 0 0 1 0 0
          0 0 0 0 0 0
          1 0 0 0 0 0
          1 0 0 0 0 0
          <InformationKey name="L2_NORM_RANGE" location="vtkDataArray" length="2">
            <Value index="0">
              0
            </Value>
            <Value index="1">
              1
            </Value>
          </InformationKey>
        </DataArray>
        <DataArray type="Float64" Name="Pressure" format="ascii" RangeMin="0" RangeMax="9.646636209486612">
          0 7.783829061144241 7.500315984574053 8.323420418107407 8.246019767098726 8.216009876309913
          8.649500152608919 8.510250356915632 8.715357838560122 8.758858427954825 8.868541147876892 8.755394416053553
          8.755409504940936 8.804699987115976 8.725515594031892 9.033297035961644 8.872051537244873 8.991692485773964
          9.13008889155727 8.82321986943651 8.858091261535218 8.8552427591563 9.178763982692674 9.069271352318971
          9.189326481180471 9.234934174437738 8.892483789431234 9.26985758770579 8.884057321910529 9.224716223789423
          9.089689716342447 8.914425980574652 9.075638555342174 9.464243946628237 9.265942048223865 9.46428234801679
          9.384391889569192 9.032596258296532 9.045246255793252 9.439737000141369 9.436134232422102 9.464239655154401
          9.464284105569659 9.458670518487011 9.464336120269277 9.290022919112278 9.464279846224184 9.218495344922902
          9.499689952548922 9.464338141662818 9.464332703742631 9.464352784166833 9.432727169382488 9.397649114850713
          9.572813452443866 9.464427549735037 9.53808113651628 9.464354212494726 9.464308607838667 9.404066653600548
          9.46442218466081 9.4644641627547 9.589493016529696 9.46451565253134 9.464491830087342 9.460856325586736
          9.46443712822118 9.464356007315535 9.464493374536685 9.47358779191215 9.642964848199691 9.572439287036348
          9.464481479984602 9.640952214214495 9.47015268577278 9.546555494244666 9.487166535252593 9.464494785954534
          9.465206427708125 9.540129450263056 9.51277747643003 9.476315754106365 9.485003386581166 9.449599471729531
          9.646636209486612 9.46446262383109 9.540185192412766 9.501112409143143
        </DataArray>
        <DataArray type="Float64" Name="DISSI_NS" format="ascii" RangeMin="0" RangeMax="0.0074507796265186575">
          0 0.0019065318270880252 0.000028632846508666355 0.001007923083178746 0.001536044822640549 0.003119273325864157
          0.000024189137458430707 0.0037002385237812586 0.00017711031875111832 0.0014199546083663987 0.0026005442590021984 0.00255802631988252
          0.0034439160607303817 0.004988308472235992 0 0.0006732532630751854 0.0012634619336728398 0.0001425778340086992
          0.0012403619311699022 0.0015925884734210801 0.0030009026290835654 0.0000311244421254408 0.0009780712845680062 0.002783103610412843
          0.0037404114907752645 0.0022912795130902745 0.0029564956475273754 7.426759708454734e-38 0.0017986023521693276 0.0015842249916666405
          0.0030412773941033196 0.003275855143093864 0.00007887006412118763 0.0009648128411593965 0.0012069762296089298 0.004732289510199722
          0.005726218571743071 0.0018659653998259072 0.0052193116448344635 0.0016295081651626637 0.001103678633339505 0.0011983146099122943
          0.0008771499645069824 0.002273071638895867 0.003157728709978211 0.0017211232853603972 0 0.0031872726947610825
          0.001397735045053443 0 0.005268223631581774 0.002640902186075461 0.0065097340880555556 0.00007501119779110696
          0.002234131555577295 0.0036274508567958803 2.1871013723011178e-38 0 0.003086150363611484 0.0022929164637479097
          0.004525482921093531 0.0024302792662587217 0.0012325340614436026 0.0016906378421591669 0.0074507796265186575 0.0032787802718279697
          0.0041529903546563066 0.0045002306721952864 0 0.0041784443991727226 0.00006627678971129545 0.0013344737574443673
          0.0030896739778525934 0.0009681746652545622 0.005140167609773621 0 0.005974564302670471 0.002307105488390983
          0.003160464190038442 0.00007135993881498247 0.0011817377007017143 0.001410960176581109 0.0036065690078020338 0.0030315248686987343
          0.00010908701252562617 0.0024666050669443166 0.0013201857718488502 0.0017234162115208848
        </DataArray>
        <DataArray type="Float64" Name="Temperature" format="ascii" RangeMin="-1.6691520190033244" RangeMax="12.000000000000004">
          0.6414939332270987 -1.664226725847273 -0.17740331718220245 -1.1656201465613696 0.1468228425829557 12
          -0.6275751362328071 12.000000000000002 -0.7595349484153797 1.2632740910622073 0.5285780312909568 12.000000000000002
          12 12.000000000000002 0.43592541631492226 1.48872169969286 1.0365420263607144 -0.43656390113303245
          0.23062583858785815 -1.2458172683192956 11.999999999999998 -0.3726434265457816 -0.1430932560365966 12.000000000000002
          12 4.564984013792723 -0.1346279653359191 0.8306581926058744 12 3.5128652541836742
          11.999999999999998 12.000000000000002 -0.7732421445777246 12 2.547639707842403 11.999999999999998
          2.8112576944110854 0.4026488146069026 12.000000000000004 0.860509801976635 -1.6691520190033244 11.999999999999998
          12.000000000000002 11.999999999999998 12 -0.13647700300505977 12.000000000000002 12
          1.6829035394631844 11.999999999999998 12.000000000000002 12.000000000000004 3.6659736730164783 -0.5145232238964738
          11.999999999999996 11.999999999999998 5.118104973180786 12.000000000000002 11.999999999999998 0.9462989487965752
          12.000000000000002 12.000000000000004 4.338269068593166 12 12.000000000000002 5.789852488340601
          12 12 12.000000000000002 2.7624118064540375 4.280570056087859 6.5851385941002505
          12.000000000000002 2.5353514736806284 12 7.643560000000001 12 12.000000000000002
          6.154074338968918 7.643559999999998 8.129456 8.136573 12 12.000000000000002
          7.64356 12.000000000000002 8.129456 12.000000000000002
        </DataArray>
        <DataArray type="Float64" Name="DISSI_TEMPE" format="ascii" RangeMin="7.682930127668586e-32" RangeMax="1.2106384558027194">
          0.01551016910518342 0.5163287073479852 0.0070034004316912885 0.23044029228784985 0.40732041953866266 0.9807521402373464
          0.006097967225790478 0.9926378994868115 0.04475880671362795 0.3606151366647628 0.5600692595144859 0.6905406379529107
          0.9614788063862598 1.131477745236879 0.009572614337107897 0.189489502327774 0.3253542428706907 0.03548169463609101
          0.25502386623962797 0.4369913874448521 0.8807168132821015 0.005019723695216644 0.22688044253986533 0.7094006226306505
          0.8051027058783118 0.486680171330062 0.7035284660749783 0.012180616983951792 0.6898949747106577 0.4130360034012745
          0.8378400549243823 0.9401392808639538 0.020503952262487423 0.27258176220176616 0.28586352939631887 0.7087263094700222
          0.7865595182820231 0.3977262866788399 1.2106384558027194 0.31264869358400016 0.21988231733795294 0.36417028357822284
          0.2834703990803299 0.5189384716888699 0.5134378809393593 0.3622029408695833 1.04278797963023e-31 0.7947547708150262
          0.24562028481952927 1.4519335944634052e-31 0.6914699388306933 0.5599568987836329 0.8278312272043944 0.05031769229545898
          0.38675401661409586 0.4498078424227069 0.031999160108197505 8.793807291548656e-32 0.6617103059215128 0.47481162803185206
          0.7059818542451176 0.40967340886468256 0.17820137973576833 0.10147756813082492 0.7058180285670793 0.21583785962734242
          0.6497707035328814 0.7662763665154071 7.682930127668586e-32 0.7379594521262994 0.08041641906639181 0.1974578580728532
          0.17603416737685226 0.21800094184350083 0.34125070207171077 0.022942019475495887 0.7422884742270417 0.17480548514164826
          0.35011259285903357 0.03798382572191259 0.08001740017658202 0.11216012079013202 0.21484656924661585 0.18479806742599697
          0.05179057121337315 0.11852006044155297 0.08358862262760444 0.041480210337294585
        </DataArray>
        <DataArray type="Float64" Name="CN2" format="ascii" RangeMin="0" RangeMax="3.795524432062934e-11">
          0 2.7559260953385962e-11 1.482357890429942e-12 1.510042162638286e-11 2.2751577858318946e-11 3.65030641276094e-11
          1.3744252266716305e-12 3.490101324152886e-11 5.20533458106532e-12 2.0343144785996573e-11 2.6102221708816956e-11 2.7458709600181285e-11
          3.462433293626035e-11 3.601260707175093e-11 0 1.366366044391797e-11 1.9145716339339794e-11 4.414846936589644e-12
          1.5278582394930866e-11 2.4614713263342615e-11 3.320568393924793e-11 1.0363336805265324e-12 1.479342570135798e-11 2.7426920757639627e-11
          2.820597691569124e-11 2.2313991642372743e-11 3.172206414584119e-11 0 3.085069355728159e-11 2.1743808158694644e-11
          3.144883508111108e-11 3.44253133608647e-11 3.1232650288062347e-12 1.500195338118949e-11 1.6709013550077258e-11 2.2957265760454074e-11
          2.725678789629448e-11 2.074314168388233e-11 3.795524432062934e-11 1.6945753676403876e-11 1.4083521959508755e-11 1.86457387350412e-11
          1.6104545539832483e-11 2.1463975008972473e-11 1.903246374939566e-11 1.9559993641241766e-11 0 2.936905529424329e-11
          1.384438164264973e-11 0 2.1611451968090013e-11 2.203108419735213e-11 2.7148639541378936e-11 7.76439304777498e-12
          1.6089093287709475e-11 1.5920567848466263e-11 0 0 2.4716914027525374e-11 2.293705242642131e-11
          2.321153910154252e-11 1.65710906091516e-11 1.0079203375316647e-11 4.632533477569242e-12 1.96527902183448e-11 8.6285953722858e-12
          2.198392306303571e-11 2.524096078894343e-11 0 2.842507603893654e-11 1.2060558429977199e-11 1.0531158168322334e-11
          6.572916711745466e-12 1.3716588753597897e-11 1.0753418626085222e-11 0 2.2246902155409067e-11 7.1944558060041915e-12
          1.4095286605519697e-11 5.29653095210557e-12 4.347283738717238e-12 5.743322354796383e-12 7.61896355799154e-12 6.9439879937434755e-12
          6.269095844150362e-12 4.7704282493352005e-12 4.37666162736109e-12 1.8815246853047125e-12
        </DataArray>
        <DataArray type="Float64" Name="CT2" format="ascii" RangeMin="0" RangeMax="40.2006003440508">
          0 23.984687752176004 1.3185904731841123 13.238489552332302 20.334056981341746 38.66315324463096
          1.2145091053946038 36.96608258575093 4.590778736613798 18.480268707384358 23.458998626074283 29.083280292486833
          36.67285149536433 38.14322406457353 0 12.453214909068574 17.33504223640038 3.912095966152201
          13.67163639043731 21.553981463693216 35.17019714321453 0.9191825493762276 13.165258003505558 29.049428347467494
          29.874499781423314 21.26376244168478 28.23439004020676 0 32.67586395670292 20.408203356823293
          33.30925539671307 36.46194114887116 2.753949681553259 15.889305672910009 15.464943195049493 24.315167734045584
          25.323949215861155 18.60825219813594 40.2006003440508 15.303599377439065 12.255524724781184 19.748617713690255
          17.05711517015144 22.733552706102447 20.158217132208673 17.408865188812907 0 31.106361846331954
          12.653531851764342 0 22.889750222624507 23.334203317439663 25.53739174013091 6.872285049816867
          17.040711946110537 16.862255312628122 0 0 26.178897626690425 20.74027061709628
          24.584481049710845 17.55125590464001 9.5734227164726 4.906543714328947 20.81523529785266 8.368468864077089
          23.284252604519114 26.73394126511272 0 26.390651235553968 11.445815090552982 10.330632029345503
          6.961698896514834 12.692961087973963 11.38947249382393 0 23.56277596650268 7.620001474057349
          13.741893883962225 5.274763978667151 4.359465280000289 5.760002868092349 8.06961517274693 7.354720904072949
          6.24331865594217 5.052594844611095 4.388923082965658 1.9928137392452072
        </DataArray>
      </PointData>
      <CellData>
        <DataArray type="UInt8" Name="vtkGhostType" format="ascii" RangeMin="0" RangeMax="0">
          0 0 0 0 0 0
          0 0 0 0 0 0
          0 0 0 0 0 0
          0 0 0 0 0 0
          0 0 0 0 0 0
          0 0 0 0 0 0
          0 0 0 0 0 0
          0 0 0 0 0 0
          0 0 0 0 0 0
          0 0 0 0 0 0
          0 0 0 0 0 0
          0 0 0 0 0 0
          0 0 0 0 0 0
          0 0 0 0 0 0
          0 0 0 0 0 0
          0 0 0 0 0 0
          0 0 0 0 0 0
          0 0 0 0 0 0
          0 0 0 0 0 0
          0 0 0 0 0 0
          0 0 0 0 0 0
          0 0 0 0 0 0
          0 0 0 0 0 0
          0 0 0 0 0 0
          0 0 0 0 0 0
          0 0 0 0 0 0
          0 0 0 0 0 0
          0 0 0 0 0 0
          0 0 0 0 0 0
          0 0 0 0 0 0
          0 0 0 0 0 0
          0 0 0 0 0 0
          0 0 0 0 0 0
          0 0 0 0 0 0
          0 0 0 0 0 0
          0 0 0 0 0 0
          0 0 0 0 0 0
          0 0 0 0 0 0
          0 0 0 0 0 0
          0 0 0 0 0
        </DataArray>
      </CellData>
      <Points>
        <DataArray type="Float32" Name="Points" NumberOfComponents="3" format="ascii" RangeMin="0" RangeMax="24.49489742783178">
          20 10 10 20 6.5 10
          16 10 10 20 10 5
          16.37211036682129 5.206768989562988 10 20 3 10
          14.333330154418945 10 5.767949104309082 17.5 2.625 10
          12 10 10 14.425399780273438 5.033590793609619 7.012404918670654
          13.360549926757812 4.658843994140625 10 20 3 5
          16.25 2.4375 7.37460994720459 15 2.25 10
          20 10 0 12.214110374450684 6.010365009307861 4.925261974334717
          14.570380210876465 5.105739116668701 2.9404709339141846 12 10 3.0717968940734863
          10 10 6.535898208618164 20 6.5 0
          16.344310760498047 2.451646089553833 3.285098075866699 16 10 0
          10.119270324707031 5.519060134887695 10 13.631239891052246 2.0446860790252686 6.215021133422852
          12.5 1.875 10 10.550640106201172 4.647356033325195 7.100153923034668
          16.37211036682129 5.206768989562988 0 8 10 10
          20 3 0 11.739009857177734 4.367464065551758 2.512845993041992
          13.663330078125 2.049499034881592 2.55780291557312 17.5 2.625 0
          12 10 0 10.661359786987305 1.5992039442062378 6.873061180114746
          9.59029769897461 6.954894065856934 2.912667989730835 10 1.5 10
          8.36054801940918 3.908843994140625 10 13.360549926757812 4.658843994140625 0
          15 2.25 0 6.61377477645874 6.690732002258301 10
          8 10 3.0717968940734863 10.999679565429688 1.6499520540237427 3.4145760536193848
          9 3 5 8 4.732050895690918 5
          8 3 6.732050895690918 10.596699714660645 5.428274154663086 0
          9 1.350000023841858 5 12.5 1.875 0
          5.6666669845581055 10 5.767949104309082 7.9958391189575195 1.1993759870529175 6.734446048736572
          7.5 1.125 10 8 3 3.267949104309082
          5.86054801940918 3.533843994140625 10 8 10 0
          6 4.732050895690918 5 6 3 6.732050895690918
          4 10 10 7.995840072631836 1.1993759870529175 3.2655539512634277
          10 1.5 0 7.719629764556885 4.535800933837891 0
          6.004158973693848 0.9006239175796509 6.734445095062256 6 3 3.267949104309082
          3.305811882019043 6.3972368240356445 10 5 3 5
          5 0.75 10 3.3605480194091797 3.158843994140625 10
          6.004159927368164 0.9006239771842957 3.2655539512634277 7.5 1.125 0
          5 0.75 5 5.535371780395508 3.26835298538208 0
          4 10 0 3.0012240409851074 5.308693885803223 3.156306028366089
          3.720721960067749 0.5581083297729492 6.921747207641602 4.087935924530029 6.566143035888672 0
          2.5 0.375 10 0 10 10
          5 0.75 0 3.3971519470214844 0.5095726847648621 3.1724090576171875
          3.3605480194091797 3.158843994140625 0 0 10 5
          0 5 10 0 4.949490070343018 5.050509929656982
          2.5 0.375 0 0 0 10
          0 10 0 0 0 5
          0 5 0 0 0 0
          <InformationKey name="L2_NORM_RANGE" location="vtkDataArray" length="2">
            <Value index="0">
              0
            </Value>
            <Value index="1">
              24.494897428
            </Value>
          </InformationKey>
        </DataArray>
      </Points>
      <Cells>
        <DataArray type="Int64" Name="connectivity" format="ascii" RangeMin="0" RangeMax="87">
          16 20 19 11 53 40
          70 73 81 63 77 71
          69 59 61 51 62 55
          52 65 66 77 69 76
          55 68 72 63 79 62
          75 80 52 55 64 65
          10 8 2 9 32 37
          21 16 47 41 30 29
          15 9 23 16 54 48
          34 40 44 42 43 25
          43 39 44 25 41 15
          23 29 62 54 81 71
          77 69 78 61 32 17
          53 34 39 54 62 48
          59 73 54 34 19 3
          21 16 11 1 4 12
          79 56 75 62 45 17
          32 34 54 59 61 73
          23 33 24 25 18 22
          39 25 23 10 24 13
          24 10 23 25 39 48
          56 27 46 42 44 33
          4 11 12 9 64 60
          52 50 40 73 54 71
          23 15 41 25 44 35
          36 50 39 18 43 48
          10 9 23 25 43 54
          39 48 23 16 30 29
          85 81 65 72 60 50
          49 55 21 17 32 16
          49 35 44 50 81 62
          79 80 39 22 36 25
          26 38 20 16 81 85
          65 80 81 63 65 72
          8 9 22 25 20 38
          30 16 46 44 49 33
          20 16 19 26 70 40
          48 73 7 4 12 13
          61 59 69 73 45 51
          58 29 52 39 36 55
          69 73 78 71 36 35
          44 25 42 15 41 29
          19 21 3 14 77 63
          61 71 78 82 77 86
          40 73 53 34 18 48
          39 27 68 61 77 63
          17 40 53 34 23 13
          12 9 49 50 44 55
          17 37 32 16 48 54
          34 43 81 77 63 85
          18 8 22 25 44 35
          49 33 36 39 44 55
          61 54 43 59 86 73
          84 71 59 45 53 34
          11 9 3 16 10 13
          23 9 52 50 60 55
          11 1 3 9 77 72
          63 85 86 81 77 71
          6 17 21 16 4 1
          11 9 54 73 61 71
          39 62 56 48 43 15
          42 29 70 48 79 71
          67 59 69 51 4 2
          3 9 37 16 17 29
          43 34 18 25 43 18
          39 25 52 62 39 55
          86 84 79 71 15 34
          17 29 12 13 4 9
          32 17 45 37 3 1
          4 9 45 34 51 29
          79 62 81 71 69 78
          61 71 45 37 17 29
          48 73 40 71 57 58
          67 51 10 2 4 9
          6 8 18 15 31 26
          20 19 67 61 57 51
          54 73 40 34 62 48
          54 71 18 27 39 22
          11 20 12 9 41 58
          57 51 56 62 79 48
          46 41 57 51 41 42
          46 33 47 37 30 38
          46 42 41 51 3 2
          4 1 43 51 59 34
          23 20 30 16 77 86
          85 81 8 15 6 9
          0 2 3 1 24 22
          10 25 41 33 23 25
          87 85 77 86 69 61
          67 51 52 60 64 55
          59 51 45 34 41 51
          42 29 39 55 62 54
          12 20 23 9 15 34
          43 25 15 16 23 29
          22 9 10 25 44 39
          43 54 44 55 39 54
          23 9 15 25 84 70
          79 71 35 33 44 25
          44 33 42 25 61 73
          69 71 84 73 70 71
          17 15 18 34 36 22
          35 25 36 50 55 44
          79 81 86 71 2 8
          6 9 18 17 6 15
          27 22 18 8 4 13
          10 9 42 51 43 29
          22 8 10 9 31 11
          28 19 15 9 8 25
          43 59 54 34 78 73
          86 71 86 77 78 71
          41 15 42 25 18 40
          17 34 54 63 81 71
          70 73 48 71 3 2
          6 9 17 34 45 29
          74 65 64 72 64 55
          60 72 64 65 55 72
          57 61 67 66 69 76
          67 66 67 61 69 66
          21 26 19 16 77 86
          82 87 24 33 35 25
          20 26 31 38 35 22
          24 25 55 68 60 72
          17 16 15 29 76 82
          77 78 77 66 69 61
          77 72 68 63 61 78
          77 71 48 40 54 71
          30 16 37 29 58 51
          41 29 61 63 54 71
          67 58 59 51 59 58
          45 51 37 26 21 16
          23 9 20 16 50 36
          55 52 43 48 18 34
          85 65 80 83 42 15
          43 25 61 59 43 51
          30 38 37 16 45 58
          47 29 43 34 15 29
          62 54 55 63 81 54
          62 63 55 72 65 63
          31 11 19 20 42 33
          41 25 3 9 6 16
          55 65 62 63 62 65
          81 63 48 40 18 34
          74 85 65 72 79 48
          62 71 11 5 1 12
          53 73 59 34 44 39
          36 25 62 80 81 65
          30 41 23 29 53 45
          32 34 3 6 21 16
          12 7 1 4 85 74
          65 83 18 15 8 25
          18 34 15 25 68 61
          66 77 6 15 17 16
          63 72 81 85 47 58
          41 29 47 37 45 29
          20 9 11 16 5 7
          1 12 69 77 78 76
          30 37 47 29 37 38
          26 16 11 3 19 16
          51 34 43 29 6 9
          15 16
        </DataArray>
        <DataArray type="Int64" Name="offsets" format="ascii" RangeMin="4" RangeMax="956">
          4 8 12 16 20 24
          28 32 36 40 44 48
          52 56 60 64 68 72
          76 80 84 88 92 96
          100 104 108 112 116 120
          124 128 132 136 140 144
          148 152 156 160 164 168
          172 176 180 184 188 192
          196 200 204 208 212 216
          220 224 228 232 236 240
          244 248 252 256 260 264
          268 272 276 280 284 288
          292 296 300 304 308 312
          316 320 324 328 332 336
          340 344 348 352 356 360
          364 368 372 376 380 384
          388 392 396 400 404 408
          412 416 420 424 428 432
          436 440 444 448 452 456
          460 464 468 472 476 480
          484 488 492 496 500 504
          508 512 516 520 524 528
          532 536 540 544 548 552
          556 560 564 568 572 576
          580 584 588 592 596 600
          604 608 612 616 620 624
          628 632 636 640 644 648
          652 656 660 664 668 672
          676 680 684 688 692 696
          700 704 708 712 716 720
          724 728 732 736 740 744
          748 752 756 760 764 768
          772 776 780 784 788 792
          796 800 804 808 812 816
          820 824 828 832 836 840
          844 848 852 856 860 864
          868 872 876 880 884 888
          892 896 900 904 908 912
          916 920 924 928 932 936
          940 944 948 952 956
        </DataArray>
        <DataArray type="UInt8" Name="types" format="ascii" RangeMin="10" RangeMax="10">
          10 10 10 10 10 10
          10 10 10 10 10 10
          10 10 10 10 10 10
          10 10 10 10 10 10
          10 10 10 10 10 10
          10 10 10 10 10 10
          10 10 10 10 10 10
          10 10 10 10 10 10
          10 10 10 10 10 10
          10 10 10 10 10 10
          10 10 10 10 10 10
          10 10 10 10 10 10
          10 10 10 10 10 10
          10 10 10 10 10 10
          10 10 10 10 10 10
          10 10 10 10 10 10
          10 10 10 10 10 10
          10 10 10 10 10 10
          10 10 10 10 10 10
          10 10 10 10 10 10
          10 10 10 10 10 10
          10 10 10 10 10 10
          10 10 10 10 10 10
          10 10 10 10 10 10
          10 10 10 10 10 10
          10 10 10 10 10 10
          10 10 10 10 10 10
          10 10 10 10 10 10
          10 10 10 10 10 10
          10 10 10 10 10 10
          10 10 10 10 10 10
          10 10 10 10 10 10
          10 10 10 10 10 10
          10 10 10 10 10 10
          10 10 10 10 10 10
          10 10 10 10 10 10
          10 10 10 10 10 10
          10 10 10 10 10 10
          10 10 10 10 10 10
          10 10 10 10 10
        </DataArray>
      </Cells>
    </Piece>
  </UnstructuredGrid>
</VTKFile>
