<?xml version="1.0"?>
<VTKFile type="UnstructuredGrid" version="0.1" byte_order="LittleEndian" header_type="UInt32" compressor="vtkZLibDataCompressor">
  <UnstructuredGrid>
    <Piece NumberOfPoints="164" NumberOfCells="275">
      <PointData>
        <DataArray type="Float64" Name="Velocity" NumberOfComponents="3" format="ascii" RangeMin="0" RangeMax="1.6669159444843717">
          0.9207286389762742 0 0 1.019592578463881 -0.0005500954784013395 0
          1.2388466810995404 0 0 1.221475155606743 0.019951088501128894 0
          1.0754673786331217 -0.009587030314894952 0 1.1047843687955725 0 0
          1.08247317029451 0.0053774616524806355 0 1.1462699619218308 -0.005777432975727707 0
          1.2648547473167175 -0.00165589224453891 0 0.882083149701621 -0.001962392802504817 0
          1.1155670256790584 0 0 1.125788520733129 -0.0010007444735516424 0
          1.1267832586276465 0.0019944330409410378 0 1.0855187642448927 0.0018358925218070205 0
          1.1440139708425194 0.012741480626938072 0 1.0577805947710675 0.009577457691955983 0
          1.115089817855842 0 0 1.1135291138363574 0.0009111838584587174 0
          1.1231572881006209 0.001901064146028034 0 1.1161124891508474 0.0005389819105304853 0
          1.1244787534640976 0.0005558751177324577 0 1.2229460586287264 0.0006765523046851515 0
          1.1159440338519102 0.0018082765993655953 0 1.117956586739596 0.001406052722466586 0
          1.1079604590812575 0.0018058705797600431 0 1.0573145607210663 -0.009722574003664608 0
          1.1197872486595855 0 0 1.114002616260833 -0.0003793839255577338 0
          1.1180235137862662 0.0024276934609301 0 1.123022026781366 0.0001887087648213396 0
          1.1436528282150469 -0.011177870806008237 0 1.1164692632367128 0.002037296773289012 0
          1.1169613983452062 0.0003900660043832346 0 1.1160404576033096 0.0018536732150246393 0
          1.125594322903884 -0.0010958737811799582 0 0.8955191400934801 -0.003907074042869264 0
          1.1212563587529059 0 0 1.1150805938217514 0.0002933208936817937 0
          1.1188900648431255 0.0049487030056273255 0 1.2554210048037295 -0.001762540909189296 0
          1.1145257457505742 -0.00043313162136462827 0 1.0927676232445493 -0.004055470134799148 0
          1.1128595416630378 0.0021184281751546502 0 1.1128258124628265 0.004251934426420481 0
          1.11431497318067 0.0006973946312046924 0 1.1170356238035566 0.005601216881739859 0
          1.1213542992556844 -0.002192883214237625 0 1.097685983520535 -0.0009205896061300264 0
          1.1263348436451857 0 0 1.1154605158543272 -0.0003007197266143168 0
          1.1224469698351445 0.00939657829516279 0 1.1307567519449542 -0.0037647447361773435 0
          1.11517709060728 -0.00041420753510333305 0 1.1115108140799757 0.002150306520618217 0
          1.1122704805009436 -0.0006933192076144728 0 1.1141378920348526 0.007672892461490379 0
          1.1255252824554878 -0.002771994035338213 0 1.1151413327074924 -0.001378202222527881 0
          1.1207158585114856 0.010492407471014667 0 1.1125215786657132 -0.003564199584835436 0
          0.908386189943169 0 0 1.135250731136789 0 0
          1.1163498760436925 -0.002801502472852239 0 1.2519767514915832 0 0
          1.1291290392535034 0.015899444821425187 0 1.0954834211929434 0 0
          1.1089548209596778 -0.00048270629715603937 0 1.1088832595194582 0.005870442765368925 0
          1.1174513468734393 -0.003056642601254389 0 1.1126169761494917 -0.0034073579625074632 0
          1.1137333505412137 0.014573060586738774 0 1.1192850468100208 0 0
          1.1145233649208146 -0.003083729160357592 0 1.12592645070544 0.020988575429424536 0
          1.115859948385583 0 0 1.1509786785480967 0 0
          1.1151887022735127 0.00027215838709949394 0 1.1433042005988987 0.025728962340330067 0
          1.1142379402187041 -0.009296787279893592 0 1.0954858625031199 0.017359362079089155 0
          1.1186174611345236 -0.005632581363996513 0 1.1152894683067718 0.03136732450708377 0
          1.1127939987937323 0 0 1.1049872067797533 -0.010437376660846561 0
          1.1181722285084184 -0.002304047806251745 0 1.1489565428299844 0.026997193750658538 0
          1.1174139189968724 0 0 1.1640103182954733 0 0
          1.0385101637043315 0.06754496386638657 0 1.1204238368122472 -0.014363812366904247 0
          1.123181173181662 -0.006217056776635494 0 1.084731202039239 0.11948163657322178 0
          1.0440727837134978 -0.05935623532433894 0 1.125248127336003 0 0
          1.0952278655825856 0.12807183537194436 0 1.1976259802191347 0.023059709643482838 0
          1.1180279050575208 -0.030793818416660824 0 1.1699050239326587 0 0
          1.1360639064762903 -0.01196832879594605 0 1.1342983036327492 -0.028677346790593104 0
          1.1304143240295417 0 0 0.9088064049346881 -0.009859184974510847 0
          1.109055630710912 -0.17666555381405571 0 1.2480159017935488 0.07913314634438454 0
          1.202409119456561 0.002495550075394227 0 1.4626970477497756 0.23195759894846776 0
          1.1544300892909982 -0.039445730348956355 0 1.1793438840568613 0 0
          1.1472325098643295 0 0 0 0 0
          1.168323487012088 -0.029799599730672123 0 1.5600464846110642 -0.2827152276847347 0
          1.6592357679500696 -0.15982938506847952 0 1.1445156255016096 -0.020270981736558696 0
          1.210768840787971 -0.12018285963025656 0 1.2157767515963087 -0.01198078156823439 0
          0 0 0 1.169057270359 0 0
          0 0 0 1.16637283116904 0 0
          0 0 0 0 0 0
          1.2129729882565037 -0.016254272737476348 0 1.222489474201676 -0.040479016864942034 0
          1.509499442817622 -0.38647412984658525 0 1.0706634245658748 -0.12677535717817245 0
          1.566701587839813 0.12758279712592904 0 0.7956829176046788 0.06435937200021005 0
          1.2101991335425013 0.02273485681920027 0 1.5603572027894503 0.4479256853806739 0
          1.1821117980010125 0 0 1.1371027287795572 0 0
          0.9674388731020488 -0.05454164139034297 0 1.055790458999864 -0.04544548566621211 0
          1.132021775297216 -0.04923819683611263 0 0.8795607694313271 -0.014621469463862908 0
          0.9599548780890804 0.1049566187578872 0 1.2004725108582066 0.01961764371248677 0
          1.1900066146722639 0 0 1.0266092549398562 0.1368740339899597 0
          1.1319819380287792 0.011055273293315045 0 1.2343989698587974 -0.0426945337206472 0
          1.2577025944746894 0 0 1.1873759088869436 -0.023372265935199817 0
          1.124075487786995 0.010333718790033801 0 1.2489682521123724 -0.041933840537565235 0
          1.0635527669099338 0.052057558448612595 0 1.181429504471418 0 0
          1.167674200268479 0.02683504146151192 0 1.1601703570178534 0.05840794512420293 0
          1.2428353487127983 0.02350281437426707 0 0.9999999993687974 0 0
          0.9999999993687971 0 0 1.1992429536263505 0.02641443526281271 0
          0.9999999993687971 0 0 1.0860179220726998 0 0
          0.9999999993687971 0 0 1.108644323209507 0.04215983548350957 0
          0.9999999993687974 0 0 0.9999999993687974 0 0
          1.3186121026423554 0 0 0.9999999993687974 0 0
          0.9999999993687971 0 0 0.9999999993687971 0 0
          <InformationKey name="L2_NORM_RANGE" location="vtkDataArray" length="2">
            <Value index="0">
              0
            </Value>
            <Value index="1">
              1.6669159445
            </Value>
          </InformationKey>
        </DataArray>
        <DataArray type="Float64" Name="Pressure" format="ascii" RangeMin="-35.61373221919449" RangeMax="0.35692058549748906">
          0.15062796464999278 0.1789834811678581 -1.0084010254436675 -1.306861789220099 0.2880220370824161 -3.342712344089632
          -3.4995261476577046 -2.361426137867981 -1.3004949775425896 0.27583538401629115 -5.800677175522802 -4.639513750204913
          -5.840892441134874 -3.5380699868544463 -2.2611933258856407 0.35692058549748906 -8.283511457994228 -7.101050463702813
          -5.880773605946383 -8.299174516805389 -4.697881639749138 -1.3816988079186272 -8.316329705181573 -9.51849995152751
          -3.595222563592974 0.35036253865511957 -10.716642810288526 -7.125335869140202 -10.731903814184324 -5.927784345763609
          -2.2904109357492786 -10.749214814657785 -9.53943858820154 -11.954322532503406 -4.7183264776659675 0.266984129124006
          -13.154508793992969 -8.337406107165158 -13.16517864784739 -1.3397497652368846 -7.1381804291582265 -3.565287529147801
          -11.967376987578195 -13.174724184062395 -10.760206658485043 -14.384545607094063 -5.905906523698462 0.28546097174324675
          -15.581755024940895 -9.54701894747707 -15.598796122322153 -2.2409700419797383 -8.33445105980813 -14.395739507737337
          -13.186316453409447 -15.604611787971393 -4.671115670795636 -11.975353448611683 -16.8106941895784 -7.121003935193945
          0.25802581204685915 -18.007818224605987 -10.763023433503196 -1.2587873331511163 -18.026303990864708 -3.49167079853975
          -15.61226158997604 -16.818839585149668 -9.544882174639378 -14.404926530627192 -18.038442586224207 -5.877719056456755
          -13.19043324547129 -19.248824953081595 -8.318514299883603 -20.42382677995208 -11.975579748328524 -20.54882858665592
          -16.54372835948758 -19.559675942494447 -15.619730236666493 -20.440086115695685 -10.757271390241405 -18.636213713549026
          -14.405669393643647 -22.163667051931373 -13.189534026177329 -22.828207292567672 -21.63542344592559 -18.457540115528673
          -16.908017899923315 -22.837157927024172 -21.66087041832764 -15.623771476464274 -23.98591637372404 -24.53683751438386
          -21.218146608196356 -25.25731708481544 -19.26476135360258 -20.76574059102867 -18.04843192485211 -24.265539881777634
          -23.53241195973575 -26.248446001212734 -26.74011428423424 -26.156855126791243 -23.074998540758983 -27.656835959793018
          -20.469602658151363 -26.77625403280183 -22.59942037493116 -26.136527915960126 -28.170455259612563 -28.564788737735537
          -25.419109964112913 -28.758847979689737 -28.06740226857213 -22.891522236333525 -28.044996523400368 -30.104529898786232
          -28.76270769242277 -28.689592045918893 -25.766945325026693 -30.473939329741196 -29.683103936962535 -30.319318804306285
          -28.216332309940945 -29.75781095002857 -27.681433066733945 -29.36095132876981 -25.302868768712152 -32.3765861173968
          -31.948112241793186 -32.587179290688006 -32.485286960774566 -31.64059621336511 -31.069655234857983 -28.876533661867807
          -27.707249901977168 -30.797347724769885 -30.290470772307568 -33.83837295085448 -34.47542200231448 -34.382343754296485
          -33.234028923791854 -33.86228154342973 -32.79425855379641 -30.094518252698716 -31.37828565316277 -32.43585155883555
          -34.57289160929802 -35.028676914381926 -35.42452858101665 -34.26163484632445 -35.39066406826925 -32.405770376488675
          -35.376391479867294 -33.94333002874024 -35.50977200263437 -35.234638467984944 -34.487837447388785 -35.39855248526074
          -35.61373221919449 -35.39431148658805
        </DataArray>
        <DataArray type="Float64" Name="Sigma" NumberOfComponents="6" format="ascii" RangeMin="0.00003308711224739877" RangeMax="0.06256736425720598">
          -0.009020335620396497 -0.0003499534423142379 0 0.0016836758581211966 0 0
          -0.007460187880191151 0.00015393857204501726 0 0.000668108654825355 0 0
          -0.000055647459703596964 0.00047775171947564215 0 -0.00001526670873241867 0 0
          0.000035166475603490864 -0.0002010671411120279 0 -0.0007549235902863704 0 0
          -0.003938491428034849 -0.00030891693241763996 0 -0.0003949182784118799 0 0
          0.0005660236313731646 0.00007829687046771181 0 -0.0003253830020307776 0 0
          0.0023037017195793132 -0.000024873287221990993 0 0.00025629970318493593 0 0
          0.0017287692405319691 -0.00032048061257415643 0 0.0005487630958580775 0 0
          -0.0007749119793113808 0.0004480545101261619 0 -0.000224962023250368 0 0
          -0.012704176066375313 0.00025181969345258466 0 -0.00019498349255037538 0 0
          -0.000031426450869635674 0.00005446249544543133 0 0.00026328204235886353 0 0
          -0.0010163977330226162 -0.00001738878985657627 0 -0.00015901761771521176 0 0
          -0.0008081750597384437 -0.000006501289328630076 0 0.00003466847384195744 0 0
          0.0020595096503314876 0.00020608637163129317 0 -0.00009294463471291337 0 0
          0.0018181419193984754 0.00004450547488127233 0 -0.0002544768004524386 0 0
          -0.00481049522941177 -0.00005683501325820395 0 0.0007396861389929483 0 0
          0.0003625504222876403 0.000021325008363445573 0 0.00005094461809598089 0 0
          0.0006279655817630512 0.000021359503887636857 0 -0.000007465063239875044 0 0
          -0.0004595446248324059 -0.000018609048286999142 0 -0.000005594540836622922 0 0
          0.00009263285317763088 0.000008676082076648564 0 -0.00003580444761687526 0 0
          -0.0008280540057266483 -0.000027667098656941457 0 0.00028906736984454545 0 0
          -0.0003119460913720333 -0.0005999588471690966 0 -0.000020688817649393727 0 0
          -0.000035712897566204364 -0.000022183090140361186 0 0.000011256056901277525 0 0
          -0.00019712739179389687 0.000007629427389481139 0 -4.5532989472585067e-7 0 0
          0.0012240546429843017 -0.0002030236962961844 0 -0.000002541275298401483 0 0
          -0.004801263498973226 -0.0000679030918855658 0 -0.0007809335836889051 0 0
          -0.00020071130961444604 0.00003874896516211376 0 -0.000011749417513497305 0 0
          0.00044787356191790104 -0.000029468172749088024 0 -0.00005142981139900778 0 0
          0.00002119275011452329 0.000017525482290735004 0 -0.000030414765198592926 0 0
          -0.00003678612480036251 0.00003647930054534734 0 0.000014529503208359099 0 0
          0.0016946276155304656 0.000012339364515957095 0 0.00025797670466319074 0 0
          0.00011272391505336237 0.000007366759197179421 0 -0.000028365505554402612 0 0
          -0.00009052707241761963 -0.000014128910395448841 0 -0.000022336147315770816 0 0
          0.00006259701540452459 -0.00001812037824676604 0 -0.00004507300282155413 0 0
          -0.0007233088202482118 -0.00007003334398769312 0 -0.0001987997186757986 0 0
          -0.011687514502333707 0.00011608215308913359 0 0.0004334449327669661 0 0
          -0.00003025319788199557 0.0000970943257008037 0 -0.00001783094438460211 0 0
          -0.00003232220153096361 0.000001377705938391249 0 -0.0000069378823434143856 0 0
          -0.00005863293967812058 0.00003741060923114924 0 -0.00006726517447689482 0 0
          -0.0006006201527063113 0.00016407426971474457 0 0.0001735596515445898 0 0
          0.00043007718567809807 -0.00000906718938351392 0 0.000007721557189628554 0 0
          0.0016844920169001559 0.00004737673685232791 0 -0.00012119007990631763 0 0
          0.00008111010411317029 -0.00004975095855749182 0 -0.000011201767361579075 0 0
          0.000002465012178964603 -0.000001544578041662469 0 -0.00005008486829016672 0 0
          0.00007408992338755831 -0.000019831895554180513 0 0.0000052696989014304976 0 0
          -0.0000726540095394071 -0.00003277877958672187 0 -0.00008010271954776566 0 0
          -0.00026172740761925027 -0.00004802704053509786 0 0.000002287519949106979 0 0
          -0.004113952498322834 -0.00001801061942059971 0 0.0002562273031369099 0 0
          -0.00013206468603759833 0.00019110459600187352 0 -0.000033346157986506746 0 0
          -0.00009903077599085914 -0.00002551019580647222 0 0.00001644782282920849 0 0
          -0.00010158290058880732 0.00008765934006883009 0 -0.00009087595348713136 0 0
          0.0022067562237864306 -0.000009244619662075317 0 -0.00024273498634217085 0 0
          -0.0000537319656257835 -0.000055430775991354835 0 0.000002048575199591271 0 0
          0.000018160264191221257 -0.00007275148673574433 0 -0.00003817972151730293 0 0
          0.000053089106335115036 -0.00003428801205342258 0 0.000019818876746883968 0 0
          -0.000024070423734563413 -0.00004784900165026072 0 -0.00009738414475236964 0 0
          -0.0010339964748094588 0.00004117551407515999 0 0.00009692317705024412 0 0
          0.000052778647260644145 -0.00004878341457913155 0 0.000025419932400931812 0 0
          -6.993142056866886e-7 -0.00002601015423782136 0 -0.00017132557533205528 0 0
          0.0004509413485405446 0.0000020842967524816223 0 -0.000015627256103072568 0 0
          -0.011507936229688936 -0.000011528191371423566 0 -0.0044556224506394435 0 0
          -0.00027300504202593936 0.0002712896404972406 0 -0.000012392497433432038 0 0
          0.00006201994064318731 -0.000005926412149713003 0 0.000017848670306853168 0 0
          -0.0004318514124828558 0.00010464513906082119 0 0.0010407764428247363 0 0
          -0.00014876919079349993 0.00020658440550060418 0 -0.00018961704039499285 0 0
          0.0014997732490830173 0.00010674342626795155 0 -0.00009175029985617534 0 0
          0.00003838946850493768 -0.00018241202196325014 0 0.00003208808623985727 0 0
          0.00015791720145034432 -0.00015437644916745718 0 -0.00008642099165696239 0 0
          -0.00010126949007231203 0.000012548974498296398 0 -0.00003132930130345134 0 0
          -0.000003909824293218562 -0.00005000772612649943 0 0.00007184489938336856 0 0
          -0.00007625165892577864 0.000010536951249564023 0 -0.00017687700575602172 0 0
          -0.0001374581765369326 0.00009195788167499664 0 -0.00011630911153114799 0 0
          -0.000026516976511522632 0.000021509292260924832 0 0.000024004181205413422 0 0
          -0.0005927610828027625 -0.00027727658915489617 0 -0.000025977744718762415 0 0
          -0.00008758079734732399 0.00012867024779523233 0 0.00006690673601428424 0 0
          -0.00020425607940781403 0.0006927150026525503 0 -0.0002213666741777287 0 0
          0.000015259019079730218 0.00005412378074390266 0 -0.000011399502591273765 0 0
          -0.0003537883149869879 0.0002250994681702217 0 -0.00009132158179612731 0 0
          0.000020608134846869358 -0.00004686277072193789 0 0.00015949057595619504 0 0
          0.00024719762551530535 -0.0009280190482460613 0 -0.00041457292103893055 0 0
          -0.00006042202037016015 0.00007204535739563664 0 0.0000972955980294366 0 0
          0.000918434915625726 0.0007136616465564939 0 -0.000943132383930992 0 0
          0.00008186252074340164 0.000022249084463797213 0 -0.00007657694230641467 0 0
          0.00011219184862122093 -0.0000695091347720348 0 0.0002302369909563111 0 0
          -0.00010711471112574927 0.000039931603370006235 0 0.000055404482889139435 0 0
          0.0008846655013261893 0.0007435550071536685 0 -0.0007709773408272778 0 0
          -0.00017304624411853636 -0.000007880101360086798 0 0.0000319817596677297 0 0
          -0.0009472106442417095 0.00019993678649572402 0 0.0005541004919853874 0 0
          0.003392692921415624 -0.0013022358114251065 0 -0.0012122193274145408 0 0
          -0.00014396317500270196 -0.0001301698795678039 0 0.00011766408268615968 0 0
          -0.00013332367784759964 0.00010782773330328166 0 0.0000830083871941431 0 0
          -0.00489729261934657 -0.0003179721511579255 0 -0.0014742392477135827 0 0
          0.00262461018501346 -0.001886532226513745 0 0.0014395608451604036 0 0
          -0.00009070594747406521 0.00011822789465086056 0 0.00007563184821395243 0 0
          -0.004058353832917125 0.0027935141134789823 0 0.0009720248507889926 0 0
          -0.00017276645017357111 0.0010540092452794396 0 -0.0012297074468255488 0 0
          0.00042269615369564786 0.0009106384141932434 0 0.0009912340094004974 0 0
          -0.00045177435312086946 -0.00008340085461051465 0 0.001059006880847733 0 0
          -0.0002628761075871937 0.00036683535101880314 0 0.00033501636440015506 0 0
          -0.0006660808932019346 -0.00030287577827474806 0 0.00012356886011153265 0 0
          -0.00024932679699252484 0.00014961674877297853 0 -0.0000474694965673571 0 0
          -0.0003631042734674401 -0.005597299755081593 0 0.00036194717320056017 0 0
          -0.006957130502648173 0.0002253352640514545 0 0.0019586375576624445 0 0
          -0.005922750445678184 0.0016167041322094021 0 0.006070864430790527 0 0
          0.0014034950356520775 0.0009058711476876837 0 -0.0006312885318419791 0 0
          0.004647148884972352 0.00015040700493319686 0 -0.007104402625591805 0 0
          0.0005401203187648644 0.0013960542275603513 0 0.001547079457484412 0 0
          -0.000656849190322838 -0.00034615618607295817 0 0.0008166839041667484 0 0
          -0.0003929910565323912 0.0005444190379800955 0 0.000043264894751916714 0 0
          0.03778945057665442 -0.009627212178973044 0 0.0005567025325823679 0 0
          -0.0009078584511107349 0.00023087282263494695 0 -0.00021423874334404008 0 0
          0.005973998580645155 0.0001364634562011294 0 0.009611116965985751 0 0
          0.0007432929421534423 -0.0017417775751312921 0 0.003054123699846251 0 0
          0.0023368861945107975 -0.0018408444356972078 0 0.0022171402428984685 0 0
          -0.006184861026154034 0.004334789759620389 0 -0.005425351948283512 0 0
          -0.0016052396644086152 -0.00015205977987089918 0 -0.00012677026741459842 0 0
          -0.002858390943145854 0.004066372605439728 0 -0.020677523307707862 0 0
          -0.00003853991341842029 0.0009896823125435683 0 0.0001530171619110942 0 0
          0.0000020981082356413113 0.0030718594815569264 0 0.018357624936535272 0 0
          0.003270622610571678 -0.0007601947034847384 0 0.0008766168134037867 0 0
          -0.060947720338895194 0.009308215917866196 0 -0.010339768122097888 0 0
          -0.05734276879319313 0.01484877610198277 0 0.020149337098214388 0 0
          0.00025978424196553695 0.00038898948677612284 0 0.000414247192238303 0 0
          0.00043992383063307333 -0.00047810770428488185 0 -0.0008823106773645472 0 0
          -0.0032313532089119482 0.0019487444687852871 0 -0.006799650490350854 0 0
          0.009583691441644778 -0.004832849488613015 0 0.0019166876462378647 0 0
          0.0009846085163613425 -0.002101254067771441 0 -0.004117334897730089 0 0
          -0.009203267934152846 0.01169432798212536 0 0.0008853603719171709 0 0
          -0.00022044227124803592 -0.001470157469623269 0 -0.0026451822705295704 0 0
          -0.008924173070480294 0.00104140818950536 0 0.007558503250480336 0 0
          -0.0004859546591294849 0.000562904855379501 0 -0.0004479951961701932 0 0
          -0.00239524167740768 -0.0013111100758198386 0 -0.0019062221604745672 0 0
          0.0010821966264616578 -0.0004862860995397533 0 -0.00151580562061854 0 0
          -0.00016416419272669345 -0.0005298280783643145 0 0.0005045704706871714 0 0
          -0.0037216151993379938 0.0005235030138412375 0 -0.0013187340248755266 0 0
          0.00014289477902302409 0.003306024382396595 0 -0.003057925391851268 0 0
          0.006339905224297497 0.0019281763752356756 0 0.005643174684655278 0 0
          0.00019777653266980148 0.00011930726261641146 0 0.0005267059101296029 0 0
          -0.0001750088170276826 -0.0003102140059687599 0 -0.0008395437630419549 0 0
          0.011417935139272516 -0.0048338090239641645 0 -0.00024626857104112157 0 0
          0.002041362558368848 -0.0012299885001698558 0 0.00013766782084945 0 0
          -0.000627584897456184 -0.00016608612192850673 0 0.00011468486932617306 0 0
          -0.0004815227580591416 -0.00042799797386513356 0 -0.0011465911833520193 0 0
          0.00043152141990183697 -0.00029274890260690183 0 -0.00007602978410538257 0 0
          -0.0045457614608062245 0.0009727037941151305 0 0.000376697412426684 0 0
          -0.0029581721533612636 0.0003714667170851333 0 -0.00047736929338678714 0 0
          -0.007088337446261435 0.0008529464274131184 0 0.0008202360454159275 0 0
          0.0014096776059899937 -0.0008573069884051836 0 -0.0002693143650659736 0 0
          0.0019541399231767387 -0.0002721579795016293 0 -0.0007147217127403195 0 0
          -0.0028447220335636432 -0.00023003069832443684 0 0.0012997147534422589 0 0
          0.0011629029510393683 0.000009513748616169135 0 0.000984071853534906 0 0
          0.007156387471013318 0.00021890624225670162 0 0.0007050941913050239 0 0
          0.0067277329177677534 -0.0000476463484908517 0 -0.0003111230988174633 0 0
          0.0009302268501703277 0.00008759360695013823 0 -0.0006681484078848316 0 0
          0.0050942160311000986 0.000041898586371917206 0 -0.0005131329946851741 0 0
          -0.002043914191588867 -0.0009220087145131062 0 -0.0000716153243993214 0 0
          0.006918020887468268 -0.0001822168329344205 0 -0.00025493984960555955 0 0
          -0.000040625818966960116 -0.0004899580758973788 0 0.00014954238753610307 0 0
          0.006016129757872673 0.0005463440298020044 0 -0.00012723034087355075 0 0
          0.008040328535897914 -0.00011486300117563881 0 0.00019333464478819143 0 0
          -0.00037647356053243476 -0.0007323770420316717 0 0.0027971040445852816 0 0
          0.005874582986465826 -0.0000764264176383581 0 -0.0003931807679218015 0 0
          0.004461023133755261 0.000028679901146488753 0 0.0008142003413016361 0 0
          0.0106077754510517 0.0003014575160904539 0 -0.0017332397191277954 0 0
          <InformationKey name="L2_NORM_RANGE" location="vtkDataArray" length="2">
            <Value index="0">
              3.3087112247e-05
            </Value>
            <Value index="1">
              0.062567364257
            </Value>
          </InformationKey>
        </DataArray>
      </PointData>
      <CellData>
        <DataArray type="UInt8" Name="vtkGhostType" format="ascii" RangeMin="0" RangeMax="0">
          0 0 0 0 0 0
          0 0 0 0 0 0
          0 0 0 0 0 0
          0 0 0 0 0 0
          0 0 0 0 0 0
          0 0 0 0 0 0
          0 0 0 0 0 0
          0 0 0 0 0 0
          0 0 0 0 0 0
          0 0 0 0 0 0
          0 0 0 0 0 0
          0 0 0 0 0 0
          0 0 0 0 0 0
          0 0 0 0 0 0
          0 0 0 0 0 0
          0 0 0 0 0 0
          0 0 0 0 0 0
          0 0 0 0 0 0
          0 0 0 0 0 0
          0 0 0 0 0 0
          0 0 0 0 0 0
          0 0 0 0 0 0
          0 0 0 0 0 0
          0 0 0 0 0 0
          0 0 0 0 0 0
          0 0 0 0 0 0
          0 0 0 0 0 0
          0 0 0 0 0 0
          0 0 0 0 0 0
          0 0 0 0 0 0
          0 0 0 0 0 0
          0 0 0 0 0 0
          0 0 0 0 0 0
          0 0 0 0 0 0
          0 0 0 0 0 0
          0 0 0 0 0 0
          0 0 0 0 0 0
          0 0 0 0 0 0
          0 0 0 0 0 0
          0 0 0 0 0 0
          0 0 0 0 0 0
          0 0 0 0 0 0
          0 0 0 0 0 0
          0 0 0 0 0 0
          0 0 0 0 0 0
          0 0 0 0 0
        </DataArray>
        <DataArray type="Float64" Name="Velocity_SGS" NumberOfComponents="3" format="ascii" RangeMin="0" RangeMax="0.28837672897850086">
          6.935042734428e-310 6.935042734428e-310 4.6387071063763e-310 0.04651144142308383 -0.010640909104451519 0
          -0.022353875449714428 0.005550877619980465 0 0.03300983925001154 -0.0016273642883171575 0
          0.15117923243572712 0.012697870854236095 0 0.18998996882546385 0.004321267111160986 0
          -0.060095079657255066 -0.005520865239719208 0 0.27854411749509456 0.07466131813207366 0
          -0.045385520116218624 0.006948865805163238 0 0.17052788729794066 -0.04136324495708113 0
          -0.13802266545066016 -0.05969094866514253 0 -0.1346370776874348 -0.06972769438354998 0
          0.01712573228726273 0.00020862809139463815 0 -0.07306080130714442 0.023749437801118604 0
          -0.03817458090472994 -0.015578233269469288 0 -0.16104972003638338 0.025607939421987004 0
          0.03921895136303062 0.04147696917614227 0 -0.05547578292422015 0.014764264854868297 0
          -0.1510479783379737 -0.024918603494537492 0 -0.13174678605493428 0.003929729865415449 0
          -0.084456097598622 -0.016744430644008407 0 0.025572117812291344 0.004297350973849709 0
          0.03207468367526219 -0.003642435007839817 0 0.05993821807075533 -0.01683433130406382 0
          0.03632199328691556 0.012742435256803741 0 0.1393331491506701 -0.045299989602041076 0
          -0.061591675370376645 0.03557906649748512 0 -0.06327899749094631 0.0103968862302977 0
          0.018394256796381143 -0.007549269292675137 0 0.024714452951370914 -0.000316542596772401 0
          0.01602516303190341 0.0005803589767150043 0 0.02522592126610252 -0.0012245908479411643 0
          0.0009215537259388978 0.0022351965283143736 0 0.05079150874636365 -0.004197877963441704 0
          -0.012490580395753122 -0.004727596461776855 0 -0.011278685355080703 0.010574670939901549 0
          -0.0629176589958227 -0.002514994357298732 0 -0.1322887382656977 0.06219564105969473 0
          0.050197109961709514 -0.013145521234730397 0 0.002967325096467055 0.00013730617893259358 0
          -0.0008769242283839991 -0.001993802523744368 0 -0.011940244672324895 0.0024823470971448735 0
          0.002137467262897451 -0.0012842307411218348 0 -0.009827213606260063 -0.00002682218212883142 0
          0.05292189566365883 -0.007998235159011132 0 0.011799399430897146 0.005971563504535808 0
          -0.012229892075452511 0.0011892931753813326 0 -0.01407220541410506 -0.0008673203235526712 0
          0.027143236847169676 -0.007746447980773878 0 0.0314895800564626 0.006228978926662435 0
          0.004886285761096802 -0.01860652263974931 0 -0.0181299489065047 0.0018486648032977136 0
          0.016732854483104555 0.0034460358777161446 0 0.020926582996359355 -0.004280029502354586 0
          -0.01486804837442967 -0.00589810698063143 0 -0.0070405802718179105 -0.013447320806847924 0
          -0.0038439597296819365 0.00002644981396391754 0 -0.020407347898473864 0.0014253167738725687 0
          0.03436582194748707 -0.006614148169866159 0 0.011699702741058082 0.0014581296479823664 0
          -0.01313943450554045 -0.00016499309234043773 0 0.012925161456127442 0.002134108389942361 0
          0.027457301835369236 0.0040650369128050305 0 -0.024923570115494884 -0.0036206372405844494 0