<?xml version="1.0"?>
<VTKFile type="UnstructuredGrid" version="0.1" byte_order="LittleEndian" header_type="UInt32" compressor="vtkZLibDataCompressor">
  <UnstructuredGrid>
    <Piece NumberOfPoints="418" NumberOfCells="757">
      <PointData>
        <DataArray type="Float64" Name="nsi_BC" NumberOfComponents="3" format="ascii" RangeMin="0" RangeMax="1">
          0 0 0 0 0 0
          0 0 0 0 0 0
          0 0 0 1 0 0
          0 0 0 0 0 0
          0 0 0 0 0 0
          0 0 0 0 0 0
          0 0 0 0 0 0
          0 0 0 0 0 0
          0 0 0 0 0 0
          0 0 0 0 0 0
          0 0 0 0 0 0
          0 0 0 0 0 0
          0 0 0 0 0 0
          0 0 0 0 0 0
          0 0 0 0 0 0
          0 0 0 0 0 0
          0 0 0 0 0 0
          0 0 0 0 0 0
          0 0 0 0 0 0
          0 0 0 0 0 0
          0 0 0 0 0 0
          0 0 0 0 0 0
          0 0 0 0 0 0
          0 0 0 0 0 0
          0 0 0 0 0 0
          0 0 0 0 0 0
          0 0 0 0 0 0
          0 0 0 0 0 0
          0 0 0 0 0 0
          0 0 0 0 0 0
          0 0 0 0 0 0
          0 0 0 0 0 0
          0 0 0 0 0 0
          0 0 0 0 0 0
          0 0 0 0 0 0
          0 0 0 0 0 0
          0 0 0 0 0 0
          0 0 0 0 0 0
          0 0 0 0 0 0
          0 0 0 0 0 0
          0 0 0 0 0 0
          0 0 0 0 0 0
          0 0 0 0 0 0
          0 0 0 0 0 0
          0 0 0 0 0 0
          0 0 0 0 0 0
          0 0 0 0 0 0
          0 0 0 0 0 0
          0 0 0 0 0 0
          0 0 0 0 0 0
          0 0 0 0 0 0
          0 0 0 0 0 0
          0 0 0 0 0 0
          0 0 0 0 0 0
          0 0 0 0 0 0
          0 0 0 0 0 0
          0 0 0 0 0 0
          0 0 0 0 0 0
          0 0 0 0 0 0
          0 0 0 0 0 0
          0 0 0 0 0 0
          0 0 0 0 0 0
          0 0 0 0 0 0
          0 0 0 0 0 0
          0 0 0 0 0 0
          0 0 0 0 0 0
          0 0 0 0 0 0
          0 0 0 0 0 0
          0 0 0 0 0 0
          0 0 0 0 0 0
          0 0 0 0 0 0
          0 0 0 0 0 0
          0 0 0 0 0 0
          0 0 0 0 0 0
          0 0 0 0 0 0
          0 0 0 0 0 0
          0 0 0 0 0 0
          0 0 0 0 0 0
          0 0 0 0 0 0
          0 0 0 0 0 0
          0 0 0 0 0 0
          0 0 0 0 0 0
          0 0 0 0 0 0
          0 0 0 0 0 0
          0 0 0 0 0 0
          0 0 0 0 0 0
          0 0 0 0 0 0
          0 0 0 0 0 0
          0 0 0 0 0 0
          0 0 0 0 0 0
          0 0 0 0 0 0
          0 0 0 0 0 0
          0 0 0 0 0 0
          0 0 0 0 0 0
          0 0 0 0 0 0
          0 0 0 0 0 0
          0 0 0 0 0 0
          0 0 0 0 0 0
          0 0 0 0 0 0
          0 0 0 0 0 0
          0 0 0 0 0 0
          0 0 0 0 0 0
          0 0 0 0 0 0
          0 0 0 0 0 0
          0 0 0 0 0 0
          0 0 0 0 0 0
          0 0 0 0 0 0
          0 0 0 0 0 0
          0 0 0 0 0 0
          0 0 0 0 0 0
          0 0 0 0 0 0
          0 0 0 0 0 0
          0 0 0 0 0 0
          0 0 0 0 0 0
          0 0 0 0 0 0
          0 0 0 0 0 0
          0 0 0 0 0 0
          0 0 0 0 0 0
          0 0 0 0 0 0
          0 0 0 0 0 0
          0 0 0 0 0 0
          0 0 0 0 0 0
          0 0 0 0 0 0
          0 0 0 0 0 0
          0 0 0 0 0 0
          0 0 0 0 0 0
          0 0 0 0 0 0
          0 0 0 0 0 0
          0 0 0 0 0 0
          0 0 0 0 0 0
          0 0 0 0 0 0
          0 0 0 0 0 0
          0 0 0 0 0 0
          0 0 0 0 0 0
          0 0 0 0 0 0
          0 0 0 0 0 0
          0 0 0 0 0 0
          0 0 0 0 0 0
          0 0 0 0 0 0
          0 0 0 0 0 0
          0 0 0 0 0 0
          0 0 0 0 0 0
          0 0 0 0 0 0
          0 0 0 0 0 0
          0 0 0 0 0 0
          0 0 0 0 0 0
          0 0 0 0 0 0
          0 0 0 0 0 0
          0 0 0 0 0 0
          0 0 0 0 0 0
          0 0 0 0 0 0
          0 0 0 0 0 0
          0 0 0 0 0 0
          0 0 0 0 0 0
          0 0 0 0 0 0
          0 0 0 0 0 0
          0 0 0 0 0 0
          0 0 0 0 0 0
          0 0 0 0 0 0
          0 0 0 0 0 0
          0 0 0 0 0 0
          0 0 0 0 0 0
          0 0 0 0 0 0
          0 0 0 0 0 0
          0 0 0 0 0 0
          0 0 0 0 0 0
          0 0 0 0 0 0
          0 0 0 0 0 0
          0 0 0 0 0 0
          0 0 0 0 0 0
          0 0 0 0 0 0
          0 0 0 0 0 0
          0 0 0 0 0 0
          0 0 0 0 0 0
          0 0 0 0 0 0
          0 0 0 0 0 0
          0 0 0 0 0 0
          0 0 0 0 0 0
          0 0 0 0 0 0
          0 0 0 0 0 0
          0 0 0 0 0 0
          0 0 0 0 0 0
          0 0 0 0 0 0
          0 0 0 0 0 0
          0 0 0 0 0 0
          0 0 0 0 0 0
          0 0 0 0 0 0
          0 0 0 0 0 0
          0 0 0 0 0 0
          0 0 0 0 0 0
          0 0 0 0 0 0
          0 0 0 0 0 0
          0 0 0 0 0 0
          0 0 0 0 0 0
          0 0 0 0 0 0
          0 0 0 0 0 0
          0 0 0 0 0 0
          0 0 0 0 0 0
          0 0 0 0 0 0
          0 0 0 0 0 0
          0 0 0 0 0 0
          0 0 0 0 0 0
          0 0 0 0 0 0
          0 0 0 0 0 0
          0 0 0 0 0 0
          0 0 0 0 0 0
          0 0 0 0 0 0
          0 0 0 0 0 0
          0 0 0 0 0 0
          <InformationKey name="L2_NORM_RANGE" location="vtkDataArray" length="2">
            <Value index="0">
              0
            </Value>
            <Value index="1">
              1
            </Value>
          </InformationKey>
        </DataArray>
        <DataArray type="Float64" Name="nsi_FIXNO" NumberOfComponents="3" format="ascii" RangeMin="1.4142135623730951" RangeMax="1.4142135623730951">
          1 1 0 -1 -1 0
          -1 -1 0 -1 -1 0
          1 1 0 1 1 0
          -1 -1 0 -1 -1 0
          -1 -1 0 -1 -1 0
          -1 -1 0 -1 -1 0
          -1 -1 0 -1 -1 0
          -1 -1 0 1 1 0
          -1 -1 0 -1 -1 0
          -1 -1 0 -1 -1 0
          -1 -1 0 -1 -1 0
          -1 -1 0 -1 -1 0
          -1 -1 0 -1 -1 0
          -1 -1 0 -1 -1 0
          -1 -1 0 -1 -1 0
          -1 -1 0 -1 -1 0
          1 1 0 -1 -1 0
          -1 -1 0 -1 -1 0
          1 1 0 -1 -1 0
          -1 -1 0 -1 -1 0
          -1 -1 0 -1 -1 0
          1 1 0 -1 -1 0
          -1 -1 0 -1 -1 0
          -1 -1 0 -1 -1 0
          -1 -1 0 -1 -1 0
          -1 -1 0 -1 -1 0
          -1 -1 0 -1 -1 0
          -1 -1 0 -1 -1 0
          -1 -1 0 -1 -1 0
          -1 -1 0 -1 -1 0
          1 1 0 -1 -1 0
          -1 -1 0 -1 -1 0
          -1 -1 0 -1 -1 0
          -1 -1 0 -1 -1 0
          -1 -1 0 1 1 0
          -1 -1 0 -1 -1 0
          -1 -1 0 -1 -1 0
          -1 -1 0 -1 -1 0
          -1 -1 0 -1 -1 0
          -1 -1 0 -1 -1 0
          -1 -1 0 -1 -1 0
          -1 -1 0 -1 -1 0
          -1 -1 0 -1 -1 0
          -1 -1 0 -1 -1 0
          1 1 0 -1 -1 0
          -1 -1 0 -1 -1 0
          -1 -1 0 -1 -1 0
          -1 -1 0 -1 -1 0
          -1 -1 0 -1 -1 0
          -1 -1 0 -1 -1 0
          -1 -1 0 -1 -1 0
          -1 -1 0 -1 -1 0
          -1 -1 0 -1 -1 0
          -1 -1 0 -1 -1 0
          -1 -1 0 -1 -1 0
          -1 -1 0 -1 -1 0
          -1 -1 0 -1 -1 0
          -1 -1 0 -1 -1 0
          -1 -1 0 -1 -1 0
          -1 -1 0 -1 -1 0
          -1 -1 0 1 1 0
          -1 -1 0 -1 -1 0
          -1 -1 0 -1 -1 0
          -1 -1 0 -1 -1 0
          -1 -1 0 -1 -1 0
          -1 -1 0 -1 -1 0
          -1 -1 0 -1 -1 0
          -1 -1 0 -1 -1 0
          -1 -1 0 -1 -1 0
          -1 -1 0 -1 -1 0
          -1 -1 0 -1 -1 0
          -1 -1 0 -1 -1 0
          -1 -1 0 -1 -1 0
          -1 -1 0 -1 -1 0
          1 1 0 -1 -1 0
          -1 -1 0 -1 -1 0
          -1 -1 0 -1 -1 0
          -1 -1 0 -1 -1 0
          -1 -1 0 -1 -1 0
          -1 -1 0 1 1 0
          -1 -1 0 -1 -1 0
          1 1 0 -1 -1 0
          1 1 0 -1 -1 0
          -1 -1 0 -1 -1 0
          -1 -1 0 1 1 0
          -1 -1 0 -1 -1 0
          -1 -1 0 -1 -1 0
          1 1 0 -1 -1 0
          1 1 0 -1 -1 0
          -1 -1 0 -1 -1 0
          -1 -1 0 -1 -1 0
          -1 -1 0 -1 -1 0
          1 1 0 -1 -1 0
          -1 -1 0 1 1 0
          1 1 0 -1 -1 0
          -1 -1 0 -1 -1 0
          -1 -1 0 -1 -1 0
          -1 -1 0 1 1 0
          -1 -1 0 -1 -1 0
          -1 -1 0 -1 -1 0
          -1 -1 0 -1 -1 0
          1 1 0 1 1 0
          -1 -1 0 1 1 0
          -1 -1 0 -1 -1 0
          -1 -1 0 -1 -1 0
          1 1 0 -1 -1 0
          -1 -1 0 -1 -1 0
          -1 -1 0 -1 -1 0
          1 1 0 -1 -1 0
          -1 -1 0 -1 -1 0
          1 1 0 -1 -1 0
          -1 -1 0 1 1 0
          1 1 0 -1 -1 0
          -1 -1 0 -1 -1 0
          -1 -1 0 -1 -1 0
          -1 -1 0 -1 -1 0
          -1 -1 0 1 1 0
          1 1 0 -1 -1 0
          1 1 0 1 1 0
          -1 -1 0 -1 -1 0
          1 1 0 -1 -1 0
          -1 -1 0 -1 -1 0
          -1 -1 0 1 1 0
          -1 -1 0 -1 -1 0
          -1 -1 0 1 1 0
          -1 -1 0 1 1 0
          -1 -1 0 -1 -1 0
          -1 -1 0 -1 -1 0
          -1 -1 0 -1 -1 0
          -1 -1 0 1 1 0
          1 1 0 -1 -1 0
          1 1 0 -1 -1 0
          1 1 0 -1 -1 0
          -1 -1 0 -1 -1 0
          1 1 0 -1 -1 0
          -1 -1 0 -1 -1 0
          -1 -1 0 -1 -1 0
          1 1 0 1 1 0
          -1 -1 0 -1 -1 0
          -1 -1 0 -1 -1 0
          -1 -1 0 -1 -1 0
          1 1 0 -1 -1 0
          -1 -1 0 -1 -1 0
          1 1 0 -1 -1 0
          1 1 0 1 1 0
          -1 -1 0 -1 -1 0
          -1 -1 0 -1 -1 0
          -1 -1 0 1 1 0
          1 1 0 -1 -1 0
          -1 -1 0 -1 -1 0
          -1 -1 0 1 1 0
          -1 -1 0 1 1 0
          -1 -1 0 -1 -1 0
          1 1 0 -1 -1 0
          -1 -1 0 1 1 0
          -1 -1 0 -1 -1 0
          1 1 0 -1 -1 0
          1 1 0 -1 -1 0
          -1 -1 0 1 1 0
          -1 -1 0 -1 -1 0
          -1 -1 0 -1 -1 0
          -1 -1 0 1 1 0
          -1 -1 0 -1 -1 0
          -1 -1 0 -1 -1 0
          -1 -1 0 -1 -1 0
          1 1 0 -1 -1 0
          -1 -1 0 -1 -1 0
          -1 -1 0 -1 -1 0
          -1 -1 0 1 1 0
          -1 -1 0 -1 -1 0
          -1 -1 0 -1 -1 0
          1 1 0 -1 -1 0
          -1 -1 0 -1 -1 0
          -1 -1 0 -1 -1 0
          -1 -1 0 1 1 0
          -1 -1 0 -1 -1 0
          -1 -1 0 -1 -1 0
          -1 -1 0 -1 -1 0
          1 1 0 -1 -1 0
          -1 -1 0 -1 -1 0
          -1 -1 0 -1 -1 0
          -1 -1 0 -1 -1 0
          -1 -1 0 -1 -1 0
          1 1 0 -1 -1 0
          -1 -1 0 -1 -1 0
          -1 -1 0 -1 -1 0
          -1 -1 0 -1 -1 0
          1 1 0 -1 -1 0
          -1 -1 0 -1 -1 0
          -1 -1 0 -1 -1 0
          -1 -1 0 -1 -1 0
          -1 -1 0 -1 -1 0
          1 1 0 -1 -1 0
          -1 -1 0 -1 -1 0
          -1 -1 0 -1 -1 0
          -1 -1 0 -1 -1 0
          -1 -1 0 -1 -1 0
          1 1 0 -1 -1 0
          -1 -1 0 -1 -1 0
          1 1 0 -1 -1 0
          -1 -1 0 -1 -1 0
          -1 -1 0 -1 -1 0
          -1 -1 0 -1 -1 0
          1 1 0 -1 -1 0
          -1 -1 0 -1 -1 0
          -1 -1 0 -1 -1 0
          -1 -1 0 -1 -1 0
          1 1 0 -1 -1 0
          -1 -1 0 1 1 0
          <InformationKey name="L2_NORM_RANGE" location="vtkDataArray" length="2">
            <Value index="0">
              1.4142135624
            </Value>
            <Value index="1">
              1.4142135624
            </Value>
          </InformationKey>
        </DataArray>
        <DataArray type="Float64" Name="Velocity" NumberOfComponents="3" format="ascii" RangeMin="0" RangeMax="1.4145244497568743">
          0 0 0 0.3184855194621645 0.024377337233462068 0
          0.7323664130836878 0.1003492017056669 0 0.5148159627289436 0.036772695134280865 0
          0 0 0 1 0 0
          0.7175097913338176 0.026439965304562236 0 0.36954883658193416 0.02186175129655297 0
          0.643400887169342 0.03813610422330776 0 0.31177110751358034 0.0049382474657632845 0
          0.6665936493989126 0.02869190643443407 0 0.5616344611940818 0.03307655770310749 0
          0.702280009630815 -0.097426508263498 0 0.7194797045551659 0.032403681474144644 0
          0.6847045446474065 0.04714730507181802 0 0 0 0
          0.505345757204849 0.026841825390072634 0 0.7255318409720325 0.05928017796154521 0
          0.6052478645462186 -0.004796185560787202 0 0.6490644118773078 0.04241924748390048 0
          0.6595016411667247 0.05751645531526924 0 0.6865022516462416 0.061127236188275286 0
          0.42386326141648134 0.0365092570072447 0 0.3485447879024113 -0.02846298216022691 0
          0.7305192876783119 0.09761419878000603 0 0.6415218682883268 0.07995274092869863 0
          0.7404524507855792 0.11857264248045456 0 0.712388604010812 0.09777846704844168 0
          0.3208836330994292 0.012108980869381735 0 0.5702346315633825 0.046976550299972164 0
          0.44477816902414724 0.0028098639079916343 0 0.6005686780194717 0.0903254325270855 0
          0 0 0 0.6200322690391137 0.08021732716192649 0
          0.7316540744176062 0.1557622012135505 0 0.7557287915588495 0.1549956915900673 0
          0 0 0 0.7752118832221709 0.1909749560417238 0
          0.6512117168659282 0.1365404913896153 0 0.3225242301980723 0.009338595575127335 0
          0.5649151709436985 0.08530351869993816 0 0.20093915765015669 0.0051754240377857134 0
          0 0 0 0.46627096720194117 0.050549101075374525 0
          0.7643472168067865 0.18332907627696252 0 0.7536081920212658 0.22551886232265556 0
          0.824839787025344 0.24647174950245732 0 0.6759138804991481 0.20917904358205305 0
          0.5173625456795462 0.0951723984822486 0 0.8089692042416532 0.28468081737582834 0
          0.30901531434918245 0.025038659453554015 0 0.4610938229977256 0.02470976286246732 0
          0.7946113291322686 0.15353181006057984 0 0.8753445196602906 0.2764332272758172 0
          0.5542306478217992 0.16717673195799979 0 0.6886684858586142 0.2920735633711721 0
          0.8676582283936876 0.3437334794274374 0 0.3501807631490807 0.04837646835994103 0
          0.7960938948459637 0.3720985910040755 0 0.5880309095664027 0.25561025479877997 0
          0 0 0 0.9465014176728105 0.36507134376689426 0
          0.7035245574417248 0.37495750828202806 0 0.18601127724991082 0.011109139070747804 0
          0.9832612406103 0.23778890878573222 0 0.37219426387875876 0.09324592676645796 0
          0.45717322383961684 0.19209689587517972 0 0.8712190214875732 0.4254576373115084 0
          0.5895128594371439 0.33524445649852663 0 0 0 0
          0.7483424883867663 0.10282832793217453 0 0.46788545509430296 0.2697100120821027 0
          0.7402239447143713 0.465587597819392 0 1.0525185192321913 0.3596569267064771 0
          0.963031080525141 0.46416800631422167 0 0.32755074516884286 0.12722469026135755 0
          0.21575191092182938 0.03628041650063295 0 0.56484496958771 0.4152088600422408 0
          0.8482007899497419 0.5145409486730419 0 1.116240258799137 0.2870129481196982 0
          0.46328878896746006 0.3454221706238248 0 0.724460014914822 0.5160100434087405 0
          0.3416388652208248 0.19204071484443402 0 0.24620284766282313 0.06515104892451253 0
          1.0353382190605307 0.1935519149221379 0 0.6059194255648791 0.498261079462005 0
          0.9595499791543571 0.5243808483618542 0 0.34146772146186305 0.2632522832504001 0
          0 0 0 0.8337457334732429 0.08450313244221105 0
          1.1896166599820373 0.38323432199904894 0 0.7879188835575867 0.565903768906816 0
          0.43689895390709244 0.4246242264694653 0 0.6394345604518248 0.5560224767996693 0
          1.2243787709207032 0.27645562782104033 0 0.23341159180824472 0.12192014496869776 0
          0.3125684093342401 0.3108074894212903 0 0.12391198982223915 0.016530971353073267 0
          0.24332110029280762 0.18704403757911642 0 0.478081308173255 0.010941153466936792 0
          0.9313960065789628 0.5647398525568657 0 0.4206251220464966 0.48158096241764503 0
          1.1467929498375782 0.47291003157161016 0 0.2449064700113532 0.25007156241111844 0
          0.695034482346428 0.5888478600187586 0 0.27813669291263665 0.35082801090567023 0
          1.1695504683648539 0.14195917013765716 0 1.2938781605633927 0.331177932737033 0
          0.14217978295590114 0.04483573978013469 0 0.5201886117409613 0.5605208766386098 0
          0.8046920101261584 0.572202359789204 0 0.20138944854113222 0.27170974396794695 0
          0.32441501443509635 0.45798243698894203 0 1.0804375669944024 0.4860499552215646 0
          0.9188005448744848 0.02871005128177747 0 0.13720972367512288 0.07278855281915153 0
          0.5559005915273187 0.5594079962201585 0 0.21613385844844515 0.35110805687542 0
          1.2699852558530522 0.3579909224163757 0 1.3480483916949781 0.19534818576849028 0
          0.14182481511052247 0.12650617528709165 0 0 0 0
          0.15241490577883401 0.19561661718363396 0 0.32584415156593816 0.48291252228338094 0
          1.3556917447781334 0.2592081499776134 0 0.16725227934915443 0.2827748587023462 0
          0.060217876171586 0.008406389168750517 0 0.6557183229364015 0.5080614121373089 0
          0.15505943631610675 0.3305268028996957 0 0.987173143643846 0.4239058423855684 0
          0.3633717526630469 0.45688879592537207 0 0.10973431332874681 0.19950016437547277 0
          1.1799748292262064 0.33981789361110476 0 0.07979353667394977 0.03167117178573075 0
          0.10268249305955317 0.13189447742872093 0 1.2505659763929682 0.05883737401968783 0
          1.3150329617770626 0.2553999152951582 0 0.16225891324908503 0.34446909796251074 0
          0.08369220091149936 0.19343373097849945 0 1.4022565323621115 0.1552717973488946 0
          0.4288414329436591 0.3586806261590605 0 0.08615757413482442 0.09675401460373509 0
          0.07371370045302278 0.2420682472599558 0 0.07176254317400749 0.044770342161004735 0
          0.7657162039482571 0.3084516390659739 0 0.07792907204585604 0.13047256286501924 0
          0.06770782497312554 0.2079914789719281 0 0.0707689592350886 0.208997920869133 0
          0 0 0 0.08449892764454901 0.21730636376271137 0
          0.9955782207360513 0.2545318984534552 0 1.3998011371924077 0.08169727146521487 0
          1.194974489286263 0.21158203595128125 0 0.04094724849130544 0.15541689165961695 0
          0.05949742508159554 0.058149971180290055 0 0.04690340941734255 0.1216182681025714 0
          0.9260285921738076 0.0071649153714890175 0 0.03216742308956418 0.1387617483909788 0
          0.021576165506658765 0.12195078356609972 0 0 0 0
          0.05437778147080098 0.08670831200720949 0 0.4019115884571701 0.07067381302622842 0
          0 0 0 0.7071644036796414 0.11297526855068492 0
          0 0 0 0.017502122489875965 0.09266486680583404 0
          0.029057217226576018 0.10820887367435815 0 0.0395501991012182 0.013999087056591778 0
          1.3294877479648683 0.07149677997500421 0 0 0 0
          0.01105952382084439 0.0689446806192409 0 0.04156183572488202 0.0565433987843068 0
          0.9286303407738852 0.07647560773701728 0 0.03225965196451011 0.07589386005085606 0
          0 0 0 0.018585394341698307 0.07710094411533952 0
          0 0 0 1.414461563583954 0.013338069711325595 0
          0.35465191375374727 0.028036252734580522 0 0.006619391648683449 0.05568591511474695 0
          1.1310253221766475 0.030999897875455706 0 0.017976849539486858 0.06755930398085365 0
          0.6746734744665265 0.04021490465492288 0 0.032170822095644716 0.022696445084936616 0
          0 0 0 0.006828134178782734 0.04343373722376788 0
          1.406060052148884 -0.023909156175756136 0 0 0 0
          0 0 0 0.013537969581425027 0.0470361192460475 0
          0.024976314157818206 0.02643110418933646 0 0.004834947916786127 0.034815387075787706 0
          0.01886068142724146 0.04064336417365975 0 0.3357639619290156 0.00023482688370534346 0
          0.012571935410837171 0.040129251499984975 0 0 0 0
          1.2539949564449564 -0.04343399120167973 0 0.6599489304900926 -0.02188477749646081 0
          0.941529666043654 -0.05298647948886741 0 0.004377421514827177 0.026799585370790326 0
          1.153994682599738 -0.09059792790961887 0 0.017476487216545867 0.005897679816510779 0
          0 0 0 0 0 0
          0.014574638746901814 0.023600505252560345 0 0 0 0
          1.3144485098277374 -0.10997456850496258 0 0.008143076034943946 0.026263832819830992 0
          0.0036842928856018675 0.02035916139153321 0 0.34166275802954843 -0.026133498695778634 0
          0 0 0 1.3925795026356425 -0.11939206586391418 0
          0.0077548661941413 0.020283994085345675 0 0.6741952119789296 -0.12041894472461018 0
          0.01186683476253612 0.010108617621360866 0 0.0029017556394356965 0.014650481045109737 0
          0 0 0 0.9263529715238068 -0.16499884085937655 0
          0.004924225122410296 0.015520224640449746 0 1.3741432235593107 -0.1193262733584991 0
          0 0 0 0.0025419377796317456 0.010607652470837586 0
          1.1294751887640055 -0.19151472691410315 0 0 0 0
          0 0 0 0.3898076072302115 -0.16817850221683864 0
          0.006343780000706938 0.00824304362846086 0 0.004849726757694189 0.010123887574266044 0
          0.9444214707946712 -0.04645331694488435 0 0.0015132593055924171 0.007000779562467359 0
          1.2798048567788096 -0.20044848660053455 0 1.210086626875526 -0.09226984984919748 0
          0.006344815093767661 0.0021235041763639348 0 0 0 0
          0 0 0 0.6693444091754359 -0.23302576861027052 0
          0 0 0 0 0 0
          0.0009111591952046745 0.004846107651193753 0 0.04592689684277806 -0.07378764952118542 0
          0 0 0 0.0027602831597966357 0.005650376782565145 0
          1.3560779282934938 -0.20135748329311695 0 0.8985023608405561 -0.26555575894831557 0
          0.00358725720468097 0.0027169833702712204 0 0 0 0
          0.025848150540085647 -0.03303232245300947 0 0.0010563003059066887 0.002818893085698779 0
          0.002348106941336171 0.003406192840777608 0 0 0 0
          0.014851277888073873 -0.007915275194230032 0 0 0 0
          0.30864366124552245 -0.20755094135012284 0 1.3223634944403193 -0.1756292900951477 0
          0.0011010604402231859 0.001941765432522704 0 1.056802007373118 -0.29795051574811665 0
          0.006238542649970284 0.009130076031865069 0 0.0020036844342135552 0.0004999317763402575 0
          0.0007935616556225307 0.0015738801545441415 0 0 0 0
          0 0 0 0.10139833146961429 -0.10672683037193126 0
          0 0 0 0.002134218166002018 0.014698343199469428 0
          0 0 0 1.2259008491103431 -0.2894409541292159 0
          0.06392300750405577 -0.0577560597605918 0 0.001086866269121814 0.0008025228846553174 0
          0 0 0 0.0003702975622074611 0.0005749407053171269 0
          0.2560825689499479 -0.007637277331669388 0 0.5373875123279527 -0.2809435917371211 0
          0.001254284805494655 0.017940809172949206 0 1.161562016405439 -0.14288557406122013 0
          0 0 0 0 0 0
          0.0010136584075046086 0.019152555594746153 0 0.00021980061929668856 0.00019969272906654288 0
          0.2893678661925496 -0.21051405086941652 0 0.01682803053587728 -0.003305256262746838 0
          0.05181523222905373 -0.03755707083713952 0 0.7704856167029401 -0.3254656634438176 0
          0 0 0 1.2899546740160965 -0.2614631945121296 0
          0.13841248633515973 -0.11892167972318163 0 0.00007898993155403058 0.02025290194876218 0
          0 0 0 0.010237347598093256 0.011457083831520665 0
          0 0 0 0 0 0
          0.00447619182837199 0.020937206296193563 0 0.00011677156670018282 -0.00014197715144945785 0
          -0.0005632754116983617 0.019791595790182692 0 0.003946389490979047 0.02564995565728121 0
          0.7937109036670104 -0.0920016903044476 0 0 0 0
          0 0 0 0.47910045103746296 -0.2832536276177885 0
          -0.00045804421070106977 0.019090425528499766 0 0.9386397111424429 -0.3440840385109339 0
          1.2452914056075457 -0.22821347209573228 0 0 0 0
          0.03410290161724244 -0.012929781305149397 0 0 0 0
          0.30563569423660153 -0.21655918783058525 0 0.000021558697032530134 0.03012569081808492 0
          0 0 0 -0.0007841577734322046 0.017875188222719454 0
          0.012954866010614956 0.020623246459595856 0 0 0 0
          -0.000521408499133842 0.03131628602969592 0 0.15801435172102354 -0.12021950369653059 0
          0 0 0 -0.0011155265523700702 0.016312051812676163 0
          0 0 0 -0.001671079370015925 0.02850694046896443 0
          0.6574914193090179 -0.3291364277370753 0 0 0 0
          -0.0014024018723285243 0.014012249832096691 0 -0.002410150155941409 0.026767611369801034 0
          1.0891233807146419 -0.16466860366314903 0 0.4670394789714415 -0.27905708194578044 0
          0.0037191183918134168 0.03131900312015482 0 0 0 0
          -0.0015586862984176214 0.011558206494506664 0 1.2113330058623417 -0.30737403883057335 0
          0.05118011596979436 -0.021730345104822944 0 -0.0045835020433324086 0.02581887187560598 0
          1.0415316022014196 -0.3675165323122672 0 0.29903067278143686 -0.20489497273236268 0
          0 0 0 -0.001366546340697005 0.009219355890243875 0
          -0.0036607778465922334 0.034161396564628715 0 0.1357456327039188 -0.09742598524558561 0
          -0.005006265911902232 0.022048409213253833 0 0.029026333505898522 0.002161090765959968 0
          0.8169045995011878 -0.3625999139247262 0 0 0 0
          -0.0013422991358517712 0.006811251920119325 0 -0.004419249713392193 0.017037700209216227 0
          0.6254744367984808 -0.3198925517609521 0 0.7102313861480573 -0.08251859868416349 0
          0 0 0 -0.0013323063260562897 0.004537767821552047 0
          -0.009848252492526067 0.02819191837228138 0 -0.004911969702555536 0.014088603784003414 0
          0.005382251275121403 0.023356488791013142 0 0.4532247048951152 -0.26420221201255445 0
          0.07483941725679853 -0.049506643185169945 0 0 0 0
          -0.0011726015086198473 0.0024260291082688736 0 1.1070583221118253 -0.35849395946505586 0
          -0.0046757151492822545 0.010136060326250747 0 -0.01031953145758805 0.021887656552784154 0
          0.297783377282927 -0.19573378011339243 0 1.15226952920835 -0.2998975257359502 0
          0 0 0 0.9547743884377882 -0.3670733710122468 0
          -0.0043427198560365265 0.0066834620784303606 0 -0.00048377979204640876 0.00061888396148794 0
          0.04392541453996865 -0.015841538457034596 0 -0.01021881375974329 0.015183523489208017 0
          0.15464435623905332 -0.1122521344942735 0 -0.0032186892806216776 0.003514644897335563 0
          0.6734829557814299 -0.32450422919235844 0 -0.010337213337951252 0.01822008603387238 0
          0 0 0 1.012262795255817 -0.2080619269194792 0
          0.31957656973371534 -0.017656461406660846 0 -0.008155260542409875 0.007273668995334177 0
          -0.016947025981095355 0.017830592520821975 0 -0.015622821787597338 0.015530160695363279 0
          0.1020310759711505 -0.07022829011567297 0 0.4269511408782349 -0.2538610876877799 0
          0 0 0 -0.0037445658599444846 0.0017141225095628227 0
          1.0429081865359897 -0.32949111637196843 0 0.003072128549253392 -0.013478939410309127 0
          -0.015596488041547795 0.008735750280982234 0 -0.01645589647210962 0.0038297258801540473 0
          0.8237257712236441 -0.3347885981370102 0 0.2018737695252242 -0.1470560836473485 0
          0.5557431503800496 -0.07382772008625978 0 -0.020913368655966984 0.008092782673262692 0
          0 0 0 -0.009416767941108847 0.00256842904680481 0
          0.5651398844035886 -0.2941647146321557 0 1.0882471338805384 -0.27449813245323335 0
          0.04986781320857478 -0.06183270731937022 0 0.34633142012307605 -0.22538673964948866 0
          -0.0012134837250049812 -0.023120914557375957 0 -0.017788164172050553 -0.0051960620396877075 0
          -0.016117002286564007 0.0019705783102646848 0 0.9769314064579342 -0.32152131264526856 0
          0 0 0 -0.01981369698912046 0.0014643575417484323 0
          0.7466683787438192 -0.33957296135399023 0 0.4866149732285031 -0.2881750262570352 0
          0 0 0 0.13595203741663445 -0.13015757358085012 0
          0.03568983682058932 -0.06395158084495159 0 0.9654076229777929 -0.09790823375619524 0
          0.0004594301090655305 -0.030095070483697212 0 -0.01509292615762544 0.0003787731498232823 0
          -0.01331457592943234 -0.009524851363041893 0 0.2811602722042215 -0.2250131524455629 0
          0 0 0 0.9910070524833631 -0.3853282966734194 0
          -0.010927853758688114 -0.0003232181167852717 0 0.10708774247641682 -0.1372720889622628 0
          0.03372684849795505 -0.06166812086724073 0 0.5652760287309642 -0.42398275364704735 0
          0.0040803938386132005 -0.01781571990904013 0 0.25179810433530775 -0.2898915779527126 0
          0 0 0 0.0363849070013899 -0.037681540036167444 0
          0.10886005043707303 -0.11562021804245953 0 0 0 0
          <InformationKey name="L2_NORM_RANGE" location="vtkDataArray" length="2">
            <Value index="0">
              0
            </Value>
            <Value index="1">
              1.4145244498
            </Value>
          </InformationKey>
        </DataArray>
        <DataArray type="Float64" Name="Pressure" format="ascii" RangeMin="-8.452148443554863" RangeMax="36.90727282652986">
          36.24559269469588 36.40487290500724 36.72999031330402 36.18095232272627 35.99996321438813 36.77194654538094
          36.04144460857493 35.49128896404913 35.34895925255016 34.58571429105752 36.09310700851946 34.371371843405406
          36.90727282652986 35.29776854928453 34.379843823923544 33.5815445953319 33.42888060593835 34.48893372325262
          36.481514693883724 35.533267814266736 33.29235093783309 34.74710494390529 32.36051582854085 36.87390863923306
          33.48595469880314 32.19417489424356 32.309420785111364 33.912748820720886 31.429128501073663 34.91749272871312
          35.89852547248585 30.871511850703886 36.6940771258909 34.184643498481684 33.074923911545476 31.15243362611852
          30.342300864383716 31.562644120268946 33.52896560306547 35.18312716489982 29.490790284745596 35.598174470462475
          36.7168865399629 34.35798077948711 29.653565490742967 32.13547234910949 30.144269316094295 32.80463863072266
          33.86096347745345 30.765299463027 34.480032805642225 27.528927896921388 27.85864992697802 28.50696524761956
          33.41055464815133 32.072786465037815 29.342511546569884 33.99646619105757 30.217137382698773 32.787549357699525
          34.71590006647022 27.51241333356771 31.170126241110516 34.09042488582968 25.843168469143937 33.767276644276265