<?xml version="1.0"?>
<VTKFile type="UnstructuredGrid" version="0.1" byte_order="LittleEndian" header_type="UInt32" compressor="vtkZLibDataCompressor">
  <UnstructuredGrid>
    <Piece NumberOfPoints="418" NumberOfCells="757">
      <PointData>
        <DataArray type="Float64" Name="nsi_BC" NumberOfComponents="3" format="ascii" RangeMin="0" RangeMax="1">
          0 0 0 0 0 0
          0 0 0 0 0 0
          0 0 0 1 0 0
          0 0 0 0 0 0
          0 0 0 0 0 0
          0 0 0 0 0 0
          0 0 0 0 0 0
          0 0 0 0 0 0
          0 0 0 0 0 0
          0 0 0 0 0 0
          0 0 0 0 0 0
          0 0 0 0 0 0
          0 0 0 0 0 0
          0 0 0 0 0 0
          0 0 0 0 0 0
          0 0 0 0 0 0
          0 0 0 0 0 0
          0 0 0 0 0 0
          0 0 0 0 0 0
          0 0 0 0 0 0
          0 0 0 0 0 0
          0 0 0 0 0 0
          0 0 0 0 0 0
          0 0 0 0 0 0
          0 0 0 0 0 0
          0 0 0 0 0 0
          0 0 0 0 0 0
          0 0 0 0 0 0
          0 0 0 0 0 0
          0 0 0 0 0 0
          0 0 0 0 0 0
          0 0 0 0 0 0
          0 0 0 0 0 0
          0 0 0 0 0 0
          0 0 0 0 0 0
          0 0 0 0 0 0
          0 0 0 0 0 0
          0 0 0 0 0 0
          0 0 0 0 0 0
          0 0 0 0 0 0
          0 0 0 0 0 0
          0 0 0 0 0 0
          0 0 0 0 0 0
          0 0 0 0 0 0
          0 0 0 0 0 0
          0 0 0 0 0 0
          0 0 0 0 0 0
          0 0 0 0 0 0
          0 0 0 0 0 0
          0 0 0 0 0 0
          0 0 0 0 0 0
          0 0 0 0 0 0
          0 0 0 0 0 0
          0 0 0 0 0 0
          0 0 0 0 0 0
          0 0 0 0 0 0
          0 0 0 0 0 0
          0 0 0 0 0 0
          0 0 0 0 0 0
          0 0 0 0 0 0
          0 0 0 0 0 0
          0 0 0 0 0 0
          0 0 0 0 0 0
          0 0 0 0 0 0
          0 0 0 0 0 0
          0 0 0 0 0 0
          0 0 0 0 0 0
          0 0 0 0 0 0
          0 0 0 0 0 0
          0 0 0 0 0 0
          0 0 0 0 0 0
          0 0 0 0 0 0
          0 0 0 0 0 0
          0 0 0 0 0 0
          0 0 0 0 0 0
          0 0 0 0 0 0
          0 0 0 0 0 0
          0 0 0 0 0 0
          0 0 0 0 0 0
          0 0 0 0 0 0
          0 0 0 0 0 0
          0 0 0 0 0 0
          0 0 0 0 0 0
          0 0 0 0 0 0
          0 0 0 0 0 0
          0 0 0 0 0 0
          0 0 0 0 0 0
          0 0 0 0 0 0
          0 0 0 0 0 0
          0 0 0 0 0 0
          0 0 0 0 0 0
          0 0 0 0 0 0
          0 0 0 0 0 0
          0 0 0 0 0 0
          0 0 0 0 0 0
          0 0 0 0 0 0
          0 0 0 0 0 0
          0 0 0 0 0 0
          0 0 0 0 0 0
          0 0 0 0 0 0
          0 0 0 0 0 0
          0 0 0 0 0 0
          0 0 0 0 0 0
          0 0 0 0 0 0
          0 0 0 0 0 0
          0 0 0 0 0 0
          0 0 0 0 0 0
          0 0 0 0 0 0
          0 0 0 0 0 0
          0 0 0 0 0 0
          0 0 0 0 0 0
          0 0 0 0 0 0
          0 0 0 0 0 0
          0 0 0 0 0 0
          0 0 0 0 0 0
          0 0 0 0 0 0
          0 0 0 0 0 0
          0 0 0 0 0 0
          0 0 0 0 0 0
          0 0 0 0 0 0
          0 0 0 0 0 0
          0 0 0 0 0 0
          0 0 0 0 0 0
          0 0 0 0 0 0
          0 0 0 0 0 0
          0 0 0 0 0 0
          0 0 0 0 0 0
          0 0 0 0 0 0
          0 0 0 0 0 0
          0 0 0 0 0 0
          0 0 0 0 0 0
          0 0 0 0 0 0
          0 0 0 0 0 0
          0 0 0 0 0 0
          0 0 0 0 0 0
          0 0 0 0 0 0
          0 0 0 0 0 0
          0 0 0 0 0 0
          0 0 0 0 0 0
          0 0 0 0 0 0
          0 0 0 0 0 0
          0 0 0 0 0 0
          0 0 0 0 0 0
          0 0 0 0 0 0
          0 0 0 0 0 0
          0 0 0 0 0 0
          0 0 0 0 0 0
          0 0 0 0 0 0
          0 0 0 0 0 0
          0 0 0 0 0 0
          0 0 0 0 0 0
          0 0 0 0 0 0
          0 0 0 0 0 0
          0 0 0 0 0 0
          0 0 0 0 0 0
          0 0 0 0 0 0
          0 0 0 0 0 0
          0 0 0 0 0 0
          0 0 0 0 0 0
          0 0 0 0 0 0
          0 0 0 0 0 0
          0 0 0 0 0 0
          0 0 0 0 0 0
          0 0 0 0 0 0
          0 0 0 0 0 0
          0 0 0 0 0 0
          0 0 0 0 0 0
          0 0 0 0 0 0
          0 0 0 0 0 0
          0 0 0 0 0 0
          0 0 0 0 0 0
          0 0 0 0 0 0
          0 0 0 0 0 0
          0 0 0 0 0 0
          0 0 0 0 0 0
          0 0 0 0 0 0
          0 0 0 0 0 0
          0 0 0 0 0 0
          0 0 0 0 0 0
          0 0 0 0 0 0
          0 0 0 0 0 0
          0 0 0 0 0 0
          0 0 0 0 0 0
          0 0 0 0 0 0
          0 0 0 0 0 0
          0 0 0 0 0 0
          0 0 0 0 0 0
          0 0 0 0 0 0
          0 0 0 0 0 0
          0 0 0 0 0 0
          0 0 0 0 0 0
          0 0 0 0 0 0
          0 0 0 0 0 0
          0 0 0 0 0 0
          0 0 0 0 0 0
          0 0 0 0 0 0
          0 0 0 0 0 0
          0 0 0 0 0 0
          0 0 0 0 0 0
          0 0 0 0 0 0
          0 0 0 0 0 0
          0 0 0 0 0 0
          0 0 0 0 0 0
          0 0 0 0 0 0
          0 0 0 0 0 0
          0 0 0 0 0 0
          0 0 0 0 0 0
          0 0 0 0 0 0
          0 0 0 0 0 0
          <InformationKey name="L2_NORM_RANGE" location="vtkDataArray" length="2">
            <Value index="0">
              0
            </Value>
            <Value index="1">
              1
            </Value>
          </InformationKey>
        </DataArray>
        <DataArray type="Float64" Name="nsi_FIXNO" NumberOfComponents="3" format="ascii" RangeMin="1.4142135623730951" RangeMax="1.4142135623730951">
          1 1 0 -1 -1 0
          -1 -1 0 -1 -1 0
          1 1 0 1 1 0
          -1 -1 0 -1 -1 0
          -1 -1 0 -1 -1 0
          -1 -1 0 -1 -1 0
          -1 -1 0 -1 -1 0
          -1 -1 0 1 1 0
          -1 -1 0 -1 -1 0
          -1 -1 0 -1 -1 0
          -1 -1 0 -1 -1 0
          -1 -1 0 -1 -1 0
          -1 -1 0 -1 -1 0
          -1 -1 0 -1 -1 0
          -1 -1 0 -1 -1 0
          -1 -1 0 -1 -1 0
          1 1 0 -1 -1 0
          -1 -1 0 -1 -1 0
          1 1 0 -1 -1 0
          -1 -1 0 -1 -1 0
          -1 -1 0 -1 -1 0
          1 1 0 -1 -1 0
          -1 -1 0 -1 -1 0
          -1 -1 0 -1 -1 0
          -1 -1 0 -1 -1 0
          -1 -1 0 -1 -1 0
          -1 -1 0 -1 -1 0
          -1 -1 0 -1 -1 0
          -1 -1 0 -1 -1 0
          -1 -1 0 -1 -1 0
          1 1 0 -1 -1 0
          -1 -1 0 -1 -1 0
          -1 -1 0 -1 -1 0
          -1 -1 0 -1 -1 0
          -1 -1 0 1 1 0
          -1 -1 0 -1 -1 0
          -1 -1 0 -1 -1 0
          -1 -1 0 -1 -1 0
          -1 -1 0 -1 -1 0
          -1 -1 0 -1 -1 0
          -1 -1 0 -1 -1 0
          -1 -1 0 -1 -1 0
          -1 -1 0 -1 -1 0
          -1 -1 0 -1 -1 0
          1 1 0 -1 -1 0
          -1 -1 0 -1 -1 0
          -1 -1 0 -1 -1 0
          -1 -1 0 -1 -1 0
          -1 -1 0 -1 -1 0
          -1 -1 0 -1 -1 0
          -1 -1 0 -1 -1 0
          -1 -1 0 -1 -1 0
          -1 -1 0 -1 -1 0
          -1 -1 0 -1 -1 0
          -1 -1 0 -1 -1 0
          -1 -1 0 -1 -1 0
          -1 -1 0 -1 -1 0
          -1 -1 0 -1 -1 0
          -1 -1 0 -1 -1 0
          -1 -1 0 -1 -1 0
          -1 -1 0 1 1 0
          -1 -1 0 -1 -1 0
          -1 -1 0 -1 -1 0
          -1 -1 0 -1 -1 0
          -1 -1 0 -1 -1 0
          -1 -1 0 -1 -1 0
          -1 -1 0 -1 -1 0
          -1 -1 0 -1 -1 0
          -1 -1 0 -1 -1 0
          -1 -1 0 -1 -1 0
          -1 -1 0 -1 -1 0
          -1 -1 0 -1 -1 0
          -1 -1 0 -1 -1 0
          -1 -1 0 -1 -1 0
          1 1 0 -1 -1 0
          -1 -1 0 -1 -1 0
          -1 -1 0 -1 -1 0
          -1 -1 0 -1 -1 0
          -1 -1 0 -1 -1 0
          -1 -1 0 1 1 0
          -1 -1 0 -1 -1 0
          1 1 0 -1 -1 0
          1 1 0 -1 -1 0
          -1 -1 0 -1 -1 0
          -1 -1 0 1 1 0
          -1 -1 0 -1 -1 0
          -1 -1 0 -1 -1 0
          1 1 0 -1 -1 0
          1 1 0 -1 -1 0
          -1 -1 0 -1 -1 0
          -1 -1 0 -1 -1 0
          -1 -1 0 -1 -1 0
          1 1 0 -1 -1 0
          -1 -1 0 1 1 0
          1 1 0 -1 -1 0
          -1 -1 0 -1 -1 0
          -1 -1 0 -1 -1 0
          -1 -1 0 1 1 0
          -1 -1 0 -1 -1 0
          -1 -1 0 -1 -1 0
          -1 -1 0 -1 -1 0
          1 1 0 1 1 0
          -1 -1 0 1 1 0
          -1 -1 0 -1 -1 0
          -1 -1 0 -1 -1 0
          1 1 0 -1 -1 0
          -1 -1 0 -1 -1 0
          -1 -1 0 -1 -1 0
          1 1 0 -1 -1 0
          -1 -1 0 -1 -1 0
          1 1 0 -1 -1 0
          -1 -1 0 1 1 0
          1 1 0 -1 -1 0
          -1 -1 0 -1 -1 0
          -1 -1 0 -1 -1 0
          -1 -1 0 -1 -1 0
          -1 -1 0 1 1 0
          1 1 0 -1 -1 0
          1 1 0 1 1 0
          -1 -1 0 -1 -1 0
          1 1 0 -1 -1 0
          -1 -1 0 -1 -1 0
          -1 -1 0 1 1 0
          -1 -1 0 -1 -1 0
          -1 -1 0 1 1 0
          -1 -1 0 1 1 0
          -1 -1 0 -1 -1 0
          -1 -1 0 -1 -1 0
          -1 -1 0 -1 -1 0
          -1 -1 0 1 1 0
          1 1 0 -1 -1 0
          1 1 0 -1 -1 0
          1 1 0 -1 -1 0
          -1 -1 0 -1 -1 0
          1 1 0 -1 -1 0
          -1 -1 0 -1 -1 0
          -1 -1 0 -1 -1 0
          1 1 0 1 1 0
          -1 -1 0 -1 -1 0
          -1 -1 0 -1 -1 0
          -1 -1 0 -1 -1 0
          1 1 0 -1 -1 0
          -1 -1 0 -1 -1 0
          1 1 0 -1 -1 0
          1 1 0 1 1 0
          -1 -1 0 -1 -1 0
          -1 -1 0 -1 -1 0
          -1 -1 0 1 1 0
          1 1 0 -1 -1 0
          -1 -1 0 -1 -1 0
          -1 -1 0 1 1 0
          -1 -1 0 1 1 0
          -1 -1 0 -1 -1 0
          1 1 0 -1 -1 0
          -1 -1 0 1 1 0
          -1 -1 0 -1 -1 0
          1 1 0 -1 -1 0
          1 1 0 -1 -1 0
          -1 -1 0 1 1 0
          -1 -1 0 -1 -1 0
          -1 -1 0 -1 -1 0
          -1 -1 0 1 1 0
          -1 -1 0 -1 -1 0
          -1 -1 0 -1 -1 0
          -1 -1 0 -1 -1 0
          1 1 0 -1 -1 0
          -1 -1 0 -1 -1 0
          -1 -1 0 -1 -1 0
          -1 -1 0 1 1 0
          -1 -1 0 -1 -1 0
          -1 -1 0 -1 -1 0
          1 1 0 -1 -1 0
          -1 -1 0 -1 -1 0
          -1 -1 0 -1 -1 0
          -1 -1 0 1 1 0
          -1 -1 0 -1 -1 0
          -1 -1 0 -1 -1 0
          -1 -1 0 -1 -1 0
          1 1 0 -1 -1 0
          -1 -1 0 -1 -1 0
          -1 -1 0 -1 -1 0
          -1 -1 0 -1 -1 0
          -1 -1 0 -1 -1 0
          1 1 0 -1 -1 0
          -1 -1 0 -1 -1 0
          -1 -1 0 -1 -1 0
          -1 -1 0 -1 -1 0
          1 1 0 -1 -1 0
          -1 -1 0 -1 -1 0
          -1 -1 0 -1 -1 0
          -1 -1 0 -1 -1 0
          -1 -1 0 -1 -1 0
          1 1 0 -1 -1 0
          -1 -1 0 -1 -1 0
          -1 -1 0 -1 -1 0
          -1 -1 0 -1 -1 0
          -1 -1 0 -1 -1 0
          1 1 0 -1 -1 0
          -1 -1 0 -1 -1 0
          1 1 0 -1 -1 0
          -1 -1 0 -1 -1 0
          -1 -1 0 -1 -1 0
          -1 -1 0 -1 -1 0
          1 1 0 -1 -1 0
          -1 -1 0 -1 -1 0
          -1 -1 0 -1 -1 0
          -1 -1 0 -1 -1 0
          1 1 0 -1 -1 0
          -1 -1 0 1 1 0
          <InformationKey name="L2_NORM_RANGE" location="vtkDataArray" length="2">
            <Value index="0">
              1.4142135624
            </Value>
            <Value index="1">
              1.4142135624
            </Value>
          </InformationKey>
        </DataArray>
        <DataArray type="Float64" Name="Velocity" NumberOfComponents="3" format="ascii" RangeMin="0" RangeMax="1.4147691097499626">
          0 0 0 0.3185289939809144 0.02433196977409989 0
          0.7322700097376699 0.10036041136192658 0 0.5148182599513655 0.03660708982783777 0
          0 0 0 1 0 0
          0.7174415386969638 0.026297647642647373 0 0.3693923400600942 0.021584607734478237 0
          0.6435585307270566 0.0378176592137922 0 0.3113277869852349 0.004800775495169985 0
          0.6664326884626602 0.02877877729200326 0 0.5615285069342519 0.03253879063551172 0
          0.7022524003013688 -0.09762289680248377 0 0.7198663464125903 0.032797204650205705 0
          0.6856692881233643 0.04692446180400983 0 0 0 0
          0.5045033763167127 0.02650049405420429 0 0.7271387123108772 0.06015442071702962 0
          0.6054012872450955 -0.004571100418934756 0 0.6493119662046174 0.043423887510228826 0
          0.6601709220424916 0.057182735579608436 0 0.6875920861474701 0.06320021715643202 0
          0.4228712743024298 0.03636106556977388 0 0.3487063618309063 -0.028464123384595877 0
          0.7332173408792272 0.09824859267625141 0 0.6415101695409918 0.07990357088445664 0
          0.7426258018398857 0.11881253737242994 0 0.7151605839579979 0.09972135410277909 0
          0.3199250340833611 0.012135965042175354 0 0.570046948916284 0.049209451210637876 0
          0.4446320067899773 0.0036187935803651027 0 0.5998702151314708 0.09036819159790127 0
          0 0 0 0.6206754865800548 0.0827408264359486 0
          0.7357529761214817 0.1569800842673935 0 0.7570988119664691 0.15523131607456092 0
          0 0 0 0.7784437248454019 0.19127960742978453 0
          0.653479112562632 0.138238492848143 0 0.32130601400372477 0.010102689704042406 0
          0.5638059960544685 0.08540388552368192 0 0.2004875715579256 0.005327619374014613 0
          0 0 0 0.4644636015748802 0.05253107402484377 0
          0.764760754392746 0.18349030675412953 0 0.7578192969173447 0.22608605729624084 0
          0.8273045538061558 0.2466053406045875 0 0.6795267740528408 0.20974544853051216 0
          0.5161600311043506 0.09675076888678935 0 0.8128592327836242 0.28468735589338184 0
          0.3065878907319898 0.026016149587154234 0 0.460167011837943 0.02478427594776809 0
          0.7941427470159839 0.15369488931108138 0 0.8767646449011764 0.2764156645339851 0
          0.5547451701249697 0.1676131909745405 0 0.6925355506453009 0.29154924808783517 0
          0.8707228144924981 0.34339214516715266 0 0.34666156921737007 0.049136597439426624 0
          0.7998169209180477 0.371326569930613 0 0.5902141951051582 0.25486560342700304 0
          0 0 0 0.948516358059551 0.3647393440051732 0
          0.7070716657434147 0.3736529122690866 0 0.18351138855835702 0.011329159563252844 0
          0.9831523909113457 0.2378868253236914 0 0.368736581345599 0.09330832617263861 0
          0.4564060853507913 0.19110485747423298 0 0.8742564780980023 0.4245443925857848 0
          0.5921484654409684 0.33349109694177775 0 0 0 0
          0.7473719021793784 0.10297899581347933 0 0.4684302388097264 0.26770914074235297 0
          0.7435022343338397 0.4639462654013795 0 1.0535568423011987 0.35941987593898367 0
          0.9651833381831474 0.4634343730331989 0 0.32456555820180255 0.12606223074666595 0
          0.2120126066701664 0.036310531471441525 0 0.5672068018209174 0.4128051747827195 0
          0.8508768313113498 0.513188272561622 0 1.1162760494603503 0.28708231142032287 0
          0.46451640476576744 0.3427046052410493 0 0.7271743371019217 0.5141353274410891 0
          0.3399622116526604 0.18990636982327225 0 0.24236239833600048 0.06455379249771659 0
          1.034735143941714 0.19371006733072443 0 0.6082535897406934 0.4958944888438559 0
          0.9615525584420047 0.5234068786150284 0 0.34100266184197076 0.26039545331917663 0
          0 0 0 0.8328368999108511 0.08461644307558436 0
          1.1903170259526468 0.3831935586366677 0 0.7901021291458685 0.5643568375546971 0
          0.43834788253344836 0.4216760113819928 0 0.6414591492951719 0.5539920747238316 0
          1.2242425422608412 0.2766943517500674 0 0.23056728848632352 0.1200625518903394 0
          0.3126919096446102 0.3075373116172096 0 0.1209848012912269 0.016308941604051483 0
          0.2415531104452947 0.1843160988830296 0 0.47758387686823217 0.010999206162678556 0
          0.9330038432869784 0.5638521513181086 0 0.42198865253528345 0.4788784421000625 0
          1.1479441005416802 0.47273003085112225 0 0.24420104566144862 0.24681185539455988 0
          0.6966463171724792 0.5873268393935536 0 0.2785963908591615 0.347586437285785 0
          1.168984701312336 0.14238495661607534 0 1.2943222707692674 0.3315257857060199 0
          0.13891149285865548 0.044024145924961115 0 0.5215585374116901 0.5585843275453851 0
          0.8059520228974941 0.5713591687964382 0 0.20118294988872162 0.268421638934985 0
          0.3253443906606704 0.4556179354059131 0 1.081566583657015 0.4858558277749505 0
          0.9181672425153882 0.02900516715854022 0 0.13441150036461427 0.0712826937146505 0
          0.5569664766004617 0.5581382386632439 0 0.21656632034783901 0.34821832428056515 0
          1.270711263587179 0.3583404407357428 0 1.347945542289062 0.1960531430995617 0
          0.14000712340273283 0.12400609143639754 0 0 0 0
          0.15166768789401996 0.19254543267386895 0 0.3266237875525172 0.481221524552847 0
          1.356017534747039 0.25983116383210436 0 0.16736128914586818 0.2797843772073911 0
          0.05851570857129933 0.008202677666662087 0 0.6565630361760872 0.5074573729591189 0
          0.15545076066929917 0.3283939655303775 0 0.9880949421700845 0.4238898465553787 0
          0.3639500808035603 0.45595529757728587 0 0.10943872666519407 0.19658976473559173 0
          1.1807867574684117 0.3401870315586481 0 0.0774748468735457 0.03090820401458716 0
          0.10148505582688858 0.1292865858566944 0 1.2502389178994544 0.05961609850626271 0
          1.3155928743895182 0.2561002703989667 0 0.16261599488696712 0.34324319392597114 0
          0.0836627493160658 0.19092046819813047 0 1.4025014467338455 0.15637734050822352 0
          0.4292842575571613 0.3583946289669398 0 0.0848370166427836 0.09457038631431543 0
          0.07388841822173191 0.24072905639749143 0 0.06973822429197496 0.04365717961121955 0
          0.7664049368664347 0.3085215013502294 0 0.07727422388138436 0.12786663813410007 0
          0.06780343913053907 0.2060255604139952 0 0.07089627284771431 0.20741886963841497 0
          0 0 0 0.08464301271073528 0.21675658900258646 0
          0.9962978557815023 0.2548863225377788 0 1.399914964143573 0.08295343129576195 0
          1.195605253621481 0.21228308416457256 0 0.04102986316649365 0.15471046254737097 0
          0.0580827874784016 0.056534730824129416 0 0.04668168442052783 0.11936604148811242 0
          0.9258251091865709 0.007637162880091636 0 0.032176352210860584 0.13707821599925962 0
          0.02162161199255475 0.121157267593016 0 0 0 0
          0.05357348321283849 0.08457887664100695 0 0.40231759016747365 0.07078066529929701 0
          0 0 0 0.7077018127592891 0.11323455683812854 0
          0 0 0 0.017530701048944934 0.0918160502306428 0
          0.029014798748955684 0.10653653261614646 0 0.03818697331286453 0.013617680661001086 0
          1.3298053540301413 0.07287185150610444 0 0 0 0
          0.011063921190905608 0.06806483138615817 0 0.04064720105195236 0.054871815443070564 0
          0.9290638746171386 0.07705767062206662 0 0.031899986845576364 0.0740076824732192 0
          0 0 0 0.018492279873180695 0.07562251995536819 0
          0 0 0 1.414688186963472 0.015131674352380005 0
          0.3549458916718456 0.028117896381319767 0 0.0066133523639537225 0.05480791502075452 0
          1.1313056854089074 0.03210353802871358 0 0.017860735054085045 0.06604162345426448 0
          0.6749964246728107 0.040537783137627036 0 0.031001286352134713 0.021991231004724693 0
          0 0 0 0.006806567865213862 0.042580273484192147 0
          1.4063872923432592 -0.022002077250695775 0 0 0 0
          0 0 0 0.013381480709623979 0.045767923657467735 0
          0.024138076125734462 0.02547940963689755 0 0.004804825543755757 0.03401042484776885 0
          0.018447524376007607 0.03927136588131243 0 0.3359189073263568 0.00036405971440256837 0
          0.012397249805847433 0.03888863759591916 0 0 0 0
          1.254571073311417 -0.04191076006778382 0 0.6600050422076319 -0.021358033915557673 0
          0.9414991929295808 -0.05184436664073614 0 0.004337978249001516 0.02605311301077204 0
          1.153923796527632 -0.08865779697577876 0 0.016744419034894344 0.005690238118182488 0
          0 0 0 0 0 0
          0.01412977379009762 0.02262188634714147 0 0 0 0
          1.314577164228896 -0.10752673529611609 0 0.007963715065636723 0.025304603720859062 0
          0.003635297332472173 0.019692003834155095 0 0.34160285136958524 -0.02588604464683594 0
          0 0 0 1.392991912837195 -0.1166499246307601 0
          0.007565864789625472 0.019452005913001003 0 0.6738385164066284 -0.11924665334849725 0
          0.011295233011976335 0.00969264663745445 0 0.002849399275253044 0.014069116108203834 0
          0 0 0 0.9259629332247403 -0.16296941414833516 0
          0.004750032629362622 0.014794927704897053 0 1.3750036082780992 -0.11668170460813158 0
          0 0 0 0.0024792109861787293 0.010120257554007365 0
          1.1292478765169802 -0.18873320542091596 0 0 0 0
          0 0 0 0.3892589055051411 -0.16684136490721488 0
          0.006045726921017509 0.007769250737174669 0 0.004678912117694382 0.009568580597596502 0
          0.945536772438367 -0.04545235226942866 0 0.001462710512779801 0.006609496174582298 0
          1.2799614216598922 -0.1970684043320068 0 1.2115583264035816 -0.09025121078005408 0
          0.006013439510039285 0.002015925370987812 0 0 0 0
          0 0 0 0.6686657523475921 -0.23064801586884418 0
          0 0 0 0 0 0
          0.0008709150082573597 0.004537878482273738 0 0.04576128664415814 -0.07236762548089262 0
          0 0 0 0.002627721204261184 0.005281584920120953 0
          1.3568371428331152 -0.19771481162352567 0 0.8979274124458099 -0.2622222254977038 0
          0.003348198826962425 0.0025397157331162414 0 0 0 0
          0.02577043980587943 -0.031755837435774384 0 0.0010127413227025064 0.0025906709382519624 0
          0.002224325880212482 0.0031460052891898968 0 0 0 0
          0.014801155528175966 -0.006730608555751989 0 0 0 0
          0.3080395312481744 -0.20458319923759827 0 1.3239619307963386 -0.17222023869120417 0
          0.0010066889659182782 0.0017682103302260452 0 1.0565582578914492 -0.2936238071016007 0
          0.0062010183839161445 0.010238853960260296 0 0.0018716051067110325 0.0004512263290078525 0
          0.0007508647526402969 0.0014132384815152728 0 0 0 0
          0 0 0 0.1011046589779155 -0.10390184961289198 0
          0 0 0 0.002105569282777002 0.015747087832542375 0
          0 0 0 1.2263788170587187 -0.28473407268071405 0
          0.06372984527734353 -0.0550770800792673 0 0.0009949529791811085 0.0007163515235128119 0
          0 0 0 0.00034149067657209496 0.0004762780691065264 0
          0.2563487413393898 -0.00757412162019839 0 0.5366598656804906 -0.27648352644377344 0
          0.0012253112718808503 0.018938909325155972 0 1.1642025695348999 -0.14040377605915158 0
          0 0 0 0 0 0
          0.0009713364325846177 0.020090810599810327 0 0.0001939899236630467 0.0001452618520456824 0
          0.28878170395744734 -0.20599725657254514 0 0.01668494216014385 -0.0008585311455041719 0
          0.051619476160883866 -0.0344440940565071 0 0.7699734671107641 -0.31998927448093556 0
          0 0 0 1.2915067682366406 -0.25660733520576456 0
          0.13802951346769401 -0.11464944546376546 0 0.000030066205891199553 0.021123767411628826 0
          0 0 0 0.010119287783622668 0.013776695458379166 0
          0 0 0 0 0 0
          0.004346452330464983 0.022864068955664296 0 0.00010281548367282229 -0.00015053366012655566 0
          -0.0006105394432861344 0.020571333486171777 0 0.0038049679107101976 0.02750386230949594 0
          0.7961268138594784 -0.09068514810604797 0 0 0 0
          0 0 0 0.47846854422145507 -0.2770066100658935 0
          -0.0005184709649331254 0.019772952137161803 0 0.9387229100325771 -0.33733245769383746 0
          1.2482657364973255 -0.22397506940391854 0 0 0 0
          0.03377777513909125 -0.008973522906410179 0 0 0 0
          0.3050340002966924 -0.21025840784308666 0 -0.0001862848784325865 0.03200156041481938 0
          0 0 0 -0.0008596250686758295 0.018440611194945895 0
          0.012630602898689045 0.023836897667394018 0 0 0 0
          -0.0007373488049631924 0.032981244679357286 0 0.15748495336347731 -0.11421376106483493 0
          0 0 0 -0.0011775129606487642 0.016767593011186386 0
          0 0 0 -0.0019148139155551907 0.02979034846758579 0
          0.6572330299431112 -0.321271688377325 0 0 0 0
          -0.0014579523070317134 0.014357131606391075 0 -0.002632353907322732 0.027830622227431163 0
          1.093634874564581 -0.16182975308205427 0 0.46646554619819625 -0.27091203610500164 0
          0.003153413101048554 0.034344138521750306 0 0 0 0
          -0.0016387228889511495 0.011775468611691459 0 1.2143830705911802 -0.3010817340337759 0
          0.05045377736361142 -0.016317187579376592 0 -0.0048240016976075955 0.02677363664687423 0
          1.0429233261230293 -0.35949608590752835 0 0.2983171954071128 -0.1968139367647314 0
          0 0 0 -0.0014260258215547817 0.009318248808603758 0
          -0.004244404382424874 0.036345462435551874 0 0.1348174682842152 -0.09017694989897895 0
          -0.005288078244687635 0.02272630819493449 0 0.028024041863732158 0.00710471709782059 0
          0.8175026452767171 -0.35342877342446816 0 0 0 0
          -0.0013742413142387403 0.0068330024173409035 0 -0.00466990882719857 0.01742215417817591 0
          0.6254250214267387 -0.3102112823674766 0 0.7139494707928902 -0.08145734168238385 0
          0 0 0 -0.0013537241693643296 0.004513749907917678 0
          -0.010572746219363506 0.029559840966686977 0 -0.005085813640494871 0.014307078968176063 0
          0.004108919184972641 0.02732281770940928 0 0.4525719776206426 -0.25421804278085813 0
          0.07329248614446769 -0.04267188488340875 0 0 0 0
          -0.0011699249189496348 0.002390370803308997 0 1.1105314200752336 -0.35063446038837215 0
          -0.004791090054566602 0.010213639824711445 0 -0.010956111130370118 0.022672686410656437 0
          0.29662742915390855 -0.18599199380452006 0 1.157770400411122 -0.29401958664954747 0
          0 0 0 0.9569629176186779 -0.3572968120426661 0
          -0.004388583142597604 0.006702636295084333 0 -0.00047650665512697895 0.0005991500413382763 0
          0.04194087666645083 -0.009877945178688374 0 -0.010604997097215569 0.015557899951654547 0
          0.15256178264390402 -0.10347698642878747 0 -0.003213957609968797 0.003501171736252318 0
          0.673844293062503 -0.3135706718328002 0 -0.012346368046821904 0.0214933070161144 0
          0 0 0 1.019876899114661 -0.2051482091184274 0
          0.322116178987668 -0.01759568967207265 0 -0.008255905240900713 0.007358951580631423 0
          -0.018554825235813043 0.019774218455041136 0 -0.016679948223405194 0.01657463419039723 0
          0.09928947029513824 -0.062094361117305895 0 0.4257525153176624 -0.24270254822202514 0
          0 0 0 -0.003745401476954863 0.0017170514980368035 0
          1.0477371070638302 -0.32027868684856897 0 -0.0005066150566843039 -0.0083356261563812 0
          -0.01607606337435422 0.009115591215455202 0 -0.019329194362029633 0.006947897803994141 0
          0.825622232794 -0.3238325537942246 0 0.19851780929681012 -0.1370377917310924 0
          0.5613634256080623 -0.07329194782733117 0 -0.022957381844989737 0.009784049963992092 0
          0 0 0 -0.009537861246356466 0.0026438923977411947 0
          0.5646312529264649 -0.28278662240279684 0 1.096533424079767 -0.26723305599206193 0
          0.04454407928144789 -0.05508237350937469 0 0.3430696954686509 -0.21439692404001878 0
          -0.006022483208367794 -0.018632400558982538 0 -0.021369686050426846 -0.0027194613032323666 0
          -0.01662929025533973 0.0021691730654883417 0 0.9823596526248947 -0.31259911309605865 0
          0 0 0 -0.021813442183653057 0.0025642796069866797 0
          0.7480580232039592 -0.32963639408111933 0 0.4844040136036477 -0.27809587361436083 0
          0 0 0 0.1287456813304017 -0.12210089068550621 0
          0.028585188067125976 -0.05843413571773349 0 0.9787418857766104 -0.09463690776150524 0
          -0.005442581151116502 -0.026846890742210635 0 -0.016120447602323274 0.0008388225648571753 0
          -0.016835862234473323 -0.007967525844935371 0 0.2742583147685409 -0.21625798787791492 0
          0 0 0 0.9983637583040769 -0.3789556907576122 0
          -0.012741239433385537 -0.00013981275509931793 0 0.09725584870700736 -0.13108491193099087 0
          0.025171407410526585 -0.05811049908378184 0 0.5630252277445998 -0.4170657860243399 0
          0.00007289552212777407 -0.01704296801119864 0 0.24121925391144633 -0.2846335491293215 0
          0 0 0 0.028616346067105117 -0.0364592123131683 0
          0.09601479277579447 -0.11175870210858974 0 0 0 0
          <InformationKey name="L2_NORM_RANGE" location="vtkDataArray" length="2">
            <Value index="0">
              0
            </Value>
            <Value index="1">
              1.4147691097
            </Value>
          </InformationKey>
        </DataArray>
        <DataArray type="Float64" Name="Pressure" format="ascii" RangeMin="-8.36882925029205" RangeMax="36.91318641660646">
          36.25142553921116 36.40970220046439 36.736520417254305 36.186654609326744 36.003658550658656 36.778584901032914
          36.04939659998939 35.49692841513581 35.35747924738523 34.59261054528725 36.10098378198756 34.37993262527742
          36.91318641660646 35.30855408577238 34.390638604497745 33.589721205773785 33.438385349351584 34.50174086722617
          36.488196643892984 35.54340022334858 33.30419085711602 34.759883204683696 32.37510975516787 36.878823176725014
          33.50203949102 32.21039615712654 32.32828025105727 33.929285083730996 31.449600860705768 34.92911950883791
          35.90483085114481 30.89420537205375 36.69888341792291 34.19958751780936 33.096344222505465 31.17551159993294
          30.369258971365355 31.58894669616862 33.54955705664208 35.188820754949965 29.519459293849803 35.60010615201355
          36.72038486191515 34.368016243328896 29.681523456879148 32.1611165531036 30.172749891476183 32.83079643050332
          33.876826946782984 30.796796602521773 34.485392385256596 27.566484505937904 27.89346267607825 28.539378229260162
          33.4327158641365 32.10516862246988 29.377221091312535 34.007198681493456 30.255527569705926 32.81683941407118
          34.7168876300567 27.5500941012268 31.208860427219392 34.096552859454384 25.882736504801716 33.782045745786384