<?xml version="1.0"?>
<VTKFile type="UnstructuredGrid" version="0.1" byte_order="LittleEndian" header_type="UInt32" compressor="vtkZLibDataCompressor">
  <UnstructuredGrid>
    <Piece NumberOfPoints="418" NumberOfCells="757">
      <PointData>
        <DataArray type="Float64" Name="nsi_BC" NumberOfComponents="3" format="ascii" RangeMin="0" RangeMax="1">
          0 0 0 0 0 0
          0 0 0 0 0 0
          0 0 0 1 0 0
          0 0 0 0 0 0
          0 0 0 0 0 0
          0 0 0 0 0 0
          0 0 0 0 0 0
          0 0 0 0 0 0
          0 0 0 0 0 0
          0 0 0 0 0 0
          0 0 0 0 0 0
          0 0 0 0 0 0
          0 0 0 0 0 0
          0 0 0 0 0 0
          0 0 0 0 0 0
          0 0 0 0 0 0
          0 0 0 0 0 0
          0 0 0 0 0 0
          0 0 0 0 0 0
          0 0 0 0 0 0
          0 0 0 0 0 0
          0 0 0 0 0 0
          0 0 0 0 0 0
          0 0 0 0 0 0
          0 0 0 0 0 0
          0 0 0 0 0 0
          0 0 0 0 0 0
          0 0 0 0 0 0
          0 0 0 0 0 0
          0 0 0 0 0 0
          0 0 0 0 0 0
          0 0 0 0 0 0
          0 0 0 0 0 0
          0 0 0 0 0 0
          0 0 0 0 0 0
          0 0 0 0 0 0
          0 0 0 0 0 0
          0 0 0 0 0 0
          0 0 0 0 0 0
          0 0 0 0 0 0
          0 0 0 0 0 0
          0 0 0 0 0 0
          0 0 0 0 0 0
          0 0 0 0 0 0
          0 0 0 0 0 0
          0 0 0 0 0 0
          0 0 0 0 0 0
          0 0 0 0 0 0
          0 0 0 0 0 0
          0 0 0 0 0 0
          0 0 0 0 0 0
          0 0 0 0 0 0
          0 0 0 0 0 0
          0 0 0 0 0 0
          0 0 0 0 0 0
          0 0 0 0 0 0
          0 0 0 0 0 0
          0 0 0 0 0 0
          0 0 0 0 0 0
          0 0 0 0 0 0
          0 0 0 0 0 0
          0 0 0 0 0 0
          0 0 0 0 0 0
          0 0 0 0 0 0
          0 0 0 0 0 0
          0 0 0 0 0 0
          0 0 0 0 0 0
          0 0 0 0 0 0
          0 0 0 0 0 0
          0 0 0 0 0 0
          0 0 0 0 0 0
          0 0 0 0 0 0
          0 0 0 0 0 0
          0 0 0 0 0 0
          0 0 0 0 0 0
          0 0 0 0 0 0
          0 0 0 0 0 0
          0 0 0 0 0 0
          0 0 0 0 0 0
          0 0 0 0 0 0
          0 0 0 0 0 0
          0 0 0 0 0 0
          0 0 0 0 0 0
          0 0 0 0 0 0
          0 0 0 0 0 0
          0 0 0 0 0 0
          0 0 0 0 0 0
          0 0 0 0 0 0
          0 0 0 0 0 0
          0 0 0 0 0 0
          0 0 0 0 0 0
          0 0 0 0 0 0
          0 0 0 0 0 0
          0 0 0 0 0 0
          0 0 0 0 0 0
          0 0 0 0 0 0
          0 0 0 0 0 0
          0 0 0 0 0 0
          0 0 0 0 0 0
          0 0 0 0 0 0
          0 0 0 0 0 0
          0 0 0 0 0 0
          0 0 0 0 0 0
          0 0 0 0 0 0
          0 0 0 0 0 0
          0 0 0 0 0 0
          0 0 0 0 0 0
          0 0 0 0 0 0
          0 0 0 0 0 0
          0 0 0 0 0 0
          0 0 0 0 0 0
          0 0 0 0 0 0
          0 0 0 0 0 0
          0 0 0 0 0 0
          0 0 0 0 0 0
          0 0 0 0 0 0
          0 0 0 0 0 0
          0 0 0 0 0 0
          0 0 0 0 0 0
          0 0 0 0 0 0
          0 0 0 0 0 0
          0 0 0 0 0 0
          0 0 0 0 0 0
          0 0 0 0 0 0
          0 0 0 0 0 0
          0 0 0 0 0 0
          0 0 0 0 0 0
          0 0 0 0 0 0
          0 0 0 0 0 0
          0 0 0 0 0 0
          0 0 0 0 0 0
          0 0 0 0 0 0
          0 0 0 0 0 0
          0 0 0 0 0 0
          0 0 0 0 0 0
          0 0 0 0 0 0
          0 0 0 0 0 0
          0 0 0 0 0 0
          0 0 0 0 0 0
          0 0 0 0 0 0
          0 0 0 0 0 0
          0 0 0 0 0 0
          0 0 0 0 0 0
          0 0 0 0 0 0
          0 0 0 0 0 0
          0 0 0 0 0 0
          0 0 0 0 0 0
          0 0 0 0 0 0
          0 0 0 0 0 0
          0 0 0 0 0 0
          0 0 0 0 0 0
          0 0 0 0 0 0
          0 0 0 0 0 0
          0 0 0 0 0 0
          0 0 0 0 0 0
          0 0 0 0 0 0
          0 0 0 0 0 0
          0 0 0 0 0 0
          0 0 0 0 0 0
          0 0 0 0 0 0
          0 0 0 0 0 0
          0 0 0 0 0 0
          0 0 0 0 0 0
          0 0 0 0 0 0
          0 0 0 0 0 0
          0 0 0 0 0 0
          0 0 0 0 0 0
          0 0 0 0 0 0
          0 0 0 0 0 0
          0 0 0 0 0 0
          0 0 0 0 0 0
          0 0 0 0 0 0
          0 0 0 0 0 0
          0 0 0 0 0 0
          0 0 0 0 0 0
          0 0 0 0 0 0
          0 0 0 0 0 0
          0 0 0 0 0 0
          0 0 0 0 0 0
          0 0 0 0 0 0
          0 0 0 0 0 0
          0 0 0 0 0 0
          0 0 0 0 0 0
          0 0 0 0 0 0
          0 0 0 0 0 0
          0 0 0 0 0 0
          0 0 0 0 0 0
          0 0 0 0 0 0
          0 0 0 0 0 0
          0 0 0 0 0 0
          0 0 0 0 0 0
          0 0 0 0 0 0
          0 0 0 0 0 0
          0 0 0 0 0 0
          0 0 0 0 0 0
          0 0 0 0 0 0
          0 0 0 0 0 0
          0 0 0 0 0 0
          0 0 0 0 0 0
          0 0 0 0 0 0
          0 0 0 0 0 0
          0 0 0 0 0 0
          0 0 0 0 0 0
          0 0 0 0 0 0
          0 0 0 0 0 0
          0 0 0 0 0 0
          0 0 0 0 0 0
          0 0 0 0 0 0
          0 0 0 0 0 0
          <InformationKey name="L2_NORM_RANGE" location="vtkDataArray" length="2">
            <Value index="0">
              0
            </Value>
            <Value index="1">
              1
            </Value>
          </InformationKey>
        </DataArray>
        <DataArray type="Float64" Name="nsi_FIXNO" NumberOfComponents="3" format="ascii" RangeMin="1.4142135623730951" RangeMax="1.4142135623730951">
          1 1 0 -1 -1 0
          -1 -1 0 -1 -1 0
          1 1 0 1 1 0
          -1 -1 0 -1 -1 0
          -1 -1 0 -1 -1 0
          -1 -1 0 -1 -1 0
          -1 -1 0 -1 -1 0
          -1 -1 0 1 1 0
          -1 -1 0 -1 -1 0
          -1 -1 0 -1 -1 0
          -1 -1 0 -1 -1 0
          -1 -1 0 -1 -1 0
          -1 -1 0 -1 -1 0
          -1 -1 0 -1 -1 0
          -1 -1 0 -1 -1 0
          -1 -1 0 -1 -1 0
          1 1 0 -1 -1 0
          -1 -1 0 -1 -1 0
          1 1 0 -1 -1 0
          -1 -1 0 -1 -1 0
          -1 -1 0 -1 -1 0
          1 1 0 -1 -1 0
          -1 -1 0 -1 -1 0
          -1 -1 0 -1 -1 0
          -1 -1 0 -1 -1 0
          -1 -1 0 -1 -1 0
          -1 -1 0 -1 -1 0
          -1 -1 0 -1 -1 0
          -1 -1 0 -1 -1 0
          -1 -1 0 -1 -1 0
          1 1 0 -1 -1 0
          -1 -1 0 -1 -1 0
          -1 -1 0 -1 -1 0
          -1 -1 0 -1 -1 0
          -1 -1 0 1 1 0
          -1 -1 0 -1 -1 0
          -1 -1 0 -1 -1 0
          -1 -1 0 -1 -1 0
          -1 -1 0 -1 -1 0
          -1 -1 0 -1 -1 0
          -1 -1 0 -1 -1 0
          -1 -1 0 -1 -1 0
          -1 -1 0 -1 -1 0
          -1 -1 0 -1 -1 0
          1 1 0 -1 -1 0
          -1 -1 0 -1 -1 0
          -1 -1 0 -1 -1 0
          -1 -1 0 -1 -1 0
          -1 -1 0 -1 -1 0
          -1 -1 0 -1 -1 0
          -1 -1 0 -1 -1 0
          -1 -1 0 -1 -1 0
          -1 -1 0 -1 -1 0
          -1 -1 0 -1 -1 0
          -1 -1 0 -1 -1 0
          -1 -1 0 -1 -1 0
          -1 -1 0 -1 -1 0
          -1 -1 0 -1 -1 0
          -1 -1 0 -1 -1 0
          -1 -1 0 -1 -1 0
          -1 -1 0 1 1 0
          -1 -1 0 -1 -1 0
          -1 -1 0 -1 -1 0
          -1 -1 0 -1 -1 0
          -1 -1 0 -1 -1 0
          -1 -1 0 -1 -1 0
          -1 -1 0 -1 -1 0
          -1 -1 0 -1 -1 0
          -1 -1 0 -1 -1 0
          -1 -1 0 -1 -1 0
          -1 -1 0 -1 -1 0
          -1 -1 0 -1 -1 0
          -1 -1 0 -1 -1 0
          -1 -1 0 -1 -1 0
          1 1 0 -1 -1 0
          -1 -1 0 -1 -1 0
          -1 -1 0 -1 -1 0
          -1 -1 0 -1 -1 0
          -1 -1 0 -1 -1 0
          -1 -1 0 1 1 0
          -1 -1 0 -1 -1 0
          1 1 0 -1 -1 0
          1 1 0 -1 -1 0
          -1 -1 0 -1 -1 0
          -1 -1 0 1 1 0
          -1 -1 0 -1 -1 0
          -1 -1 0 -1 -1 0
          1 1 0 -1 -1 0
          1 1 0 -1 -1 0
          -1 -1 0 -1 -1 0
          -1 -1 0 -1 -1 0
          -1 -1 0 -1 -1 0
          1 1 0 -1 -1 0
          -1 -1 0 1 1 0
          1 1 0 -1 -1 0
          -1 -1 0 -1 -1 0
          -1 -1 0 -1 -1 0
          -1 -1 0 1 1 0
          -1 -1 0 -1 -1 0
          -1 -1 0 -1 -1 0
          -1 -1 0 -1 -1 0
          1 1 0 1 1 0
          -1 -1 0 1 1 0
          -1 -1 0 -1 -1 0
          -1 -1 0 -1 -1 0
          1 1 0 -1 -1 0
          -1 -1 0 -1 -1 0
          -1 -1 0 -1 -1 0
          1 1 0 -1 -1 0
          -1 -1 0 -1 -1 0
          1 1 0 -1 -1 0
          -1 -1 0 1 1 0
          1 1 0 -1 -1 0
          -1 -1 0 -1 -1 0
          -1 -1 0 -1 -1 0
          -1 -1 0 -1 -1 0
          -1 -1 0 1 1 0
          1 1 0 -1 -1 0
          1 1 0 1 1 0
          -1 -1 0 -1 -1 0
          1 1 0 -1 -1 0
          -1 -1 0 -1 -1 0
          -1 -1 0 1 1 0
          -1 -1 0 -1 -1 0
          -1 -1 0 1 1 0
          -1 -1 0 1 1 0
          -1 -1 0 -1 -1 0
          -1 -1 0 -1 -1 0
          -1 -1 0 -1 -1 0
          -1 -1 0 1 1 0
          1 1 0 -1 -1 0
          1 1 0 -1 -1 0
          1 1 0 -1 -1 0
          -1 -1 0 -1 -1 0
          1 1 0 -1 -1 0
          -1 -1 0 -1 -1 0
          -1 -1 0 -1 -1 0
          1 1 0 1 1 0
          -1 -1 0 -1 -1 0
          -1 -1 0 -1 -1 0
          -1 -1 0 -1 -1 0
          1 1 0 -1 -1 0
          -1 -1 0 -1 -1 0
          1 1 0 -1 -1 0
          1 1 0 1 1 0
          -1 -1 0 -1 -1 0
          -1 -1 0 -1 -1 0
          -1 -1 0 1 1 0
          1 1 0 -1 -1 0
          -1 -1 0 -1 -1 0
          -1 -1 0 1 1 0
          -1 -1 0 1 1 0
          -1 -1 0 -1 -1 0
          1 1 0 -1 -1 0
          -1 -1 0 1 1 0
          -1 -1 0 -1 -1 0
          1 1 0 -1 -1 0
          1 1 0 -1 -1 0
          -1 -1 0 1 1 0
          -1 -1 0 -1 -1 0
          -1 -1 0 -1 -1 0
          -1 -1 0 1 1 0
          -1 -1 0 -1 -1 0
          -1 -1 0 -1 -1 0
          -1 -1 0 -1 -1 0
          1 1 0 -1 -1 0
          -1 -1 0 -1 -1 0
          -1 -1 0 -1 -1 0
          -1 -1 0 1 1 0
          -1 -1 0 -1 -1 0
          -1 -1 0 -1 -1 0
          1 1 0 -1 -1 0
          -1 -1 0 -1 -1 0
          -1 -1 0 -1 -1 0
          -1 -1 0 1 1 0
          -1 -1 0 -1 -1 0
          -1 -1 0 -1 -1 0
          -1 -1 0 -1 -1 0
          1 1 0 -1 -1 0
          -1 -1 0 -1 -1 0
          -1 -1 0 -1 -1 0
          -1 -1 0 -1 -1 0
          -1 -1 0 -1 -1 0
          1 1 0 -1 -1 0
          -1 -1 0 -1 -1 0
          -1 -1 0 -1 -1 0
          -1 -1 0 -1 -1 0
          1 1 0 -1 -1 0
          -1 -1 0 -1 -1 0
          -1 -1 0 -1 -1 0
          -1 -1 0 -1 -1 0
          -1 -1 0 -1 -1 0
          1 1 0 -1 -1 0
          -1 -1 0 -1 -1 0
          -1 -1 0 -1 -1 0
          -1 -1 0 -1 -1 0
          -1 -1 0 -1 -1 0
          1 1 0 -1 -1 0
          -1 -1 0 -1 -1 0
          1 1 0 -1 -1 0
          -1 -1 0 -1 -1 0
          -1 -1 0 -1 -1 0
          -1 -1 0 -1 -1 0
          1 1 0 -1 -1 0
          -1 -1 0 -1 -1 0
          -1 -1 0 -1 -1 0
          -1 -1 0 -1 -1 0
          1 1 0 -1 -1 0
          -1 -1 0 1 1 0
          <InformationKey name="L2_NORM_RANGE" location="vtkDataArray" length="2">
            <Value index="0">
              1.4142135624
            </Value>
            <Value index="1">
              1.4142135624
            </Value>
          </InformationKey>
        </DataArray>
        <DataArray type="Float64" Name="Velocity" NumberOfComponents="3" format="ascii" RangeMin="0" RangeMax="1.4180347517069674">
          0 0 0 0.3191453663482413 0.02486981515279465 0
          0.7327072765182646 0.10226522123226983 0 0.5180853946010487 0.04113263947287798 0
          0 0 0 0.9999999999999999 0 0
          0.7146288602234964 0.031102582354472014 0 0.37590265351407615 0.025493384635684003 0
          0.6440751735717405 0.04357874658869646 0 0.3205507496041045 0.006012843284125506 0
          0.6654304136998148 0.02579385846187523 0 0.5686939593347582 0.037289019674729154 0
          0.7022395986367519 -0.09606227258002532 0 0.7070817660066986 0.03283381580180432 0
          0.6769757938766373 0.05052289311534833 0 0 0 0
          0.5184208153954729 0.027500344182030897 0 0.7071120136406697 0.05799871679057412 0
          0.6056337223620822 -0.009435388020966237 0 0.6447575838417448 0.03467600186124957 0
          0.6608146602744711 0.05858926094192466 0 0.6715728961401355 0.054013460407160006 0
          0.4357777884970649 0.03625237780415048 0 0.34713115893196766 -0.02831336423982003 0
          0.7120351523105738 0.09589384141283142 0 0.6491878607267968 0.07797067191956154 0
          0.7324172708339345 0.11552095355389702 0 0.6884079084107074 0.0926954681047434 0
          0.32985794158177734 0.011512571505348523 0 0.5706507826274482 0.03786213399791861 0
          0.44901136476614945 -0.004208291826406099 0 0.6109344840637678 0.08826735669398178 0
          0 0 0 0.6112550966879211 0.07367528204184842 0
          0.7044391558671945 0.15135093138745365 0 0.7546220155889097 0.15085537303663088 0
          0 0 0 0.7611339068397109 0.18680169408751912 0
          0.6330921114025311 0.13220100877662214 0 0.3332816468721611 0.005873879400724402 0
          0.5753433409074665 0.08310692885634456 0 0.20651073354745927 0.0039299778483402065 0
          0 0 0 0.476213145634167 0.045428467025455097 0
          0.768058139840722 0.1791528567746983 0 0.7290328108171558 0.22051358790213585 0
          0.8161928232471793 0.24129618789627175 0 0.6524383495287617 0.2060462800963795 0
          0.5204850929209865 0.09215749526816022 0 0.7895672709377504 0.27978346423568057 0
          0.32374506674200254 0.023085131267864396 0 0.467511910653372 0.023727845735215882 0
          0.801245247947439 0.14943685487630826 0 0.872109443847036 0.27157259458685484 0
          0.5474105163753018 0.1664904046298811 0 0.6654036244251692 0.29110343435527286 0
          0.8536655991179309 0.3394803273418882 0 0.3677870949740296 0.04750850182675829 0
          0.7769741992648084 0.370138951287037 0 0.5733178545909199 0.2570174462972433 0
          0 0 0 0.938481255736929 0.3608369673688356 0
          0.6833877022545983 0.3764679386472763 0 0.19849004243157173 0.011040340731937964 0
          0.9867951857181327 0.23265949662077345 0 0.3875739759943204 0.09445282364665879 0
          0.45785562409512853 0.19581672009313872 0 0.8565163717660595 0.4242571279656837 0
          0.5734842430260055 0.3400145091433725 0 0 0 0
          0.7526825508834968 0.0996853664823953 0 0.46249094392112505 0.2768102404210962 0
          0.7228332065564573 0.46877217325050863 0 1.0496227233314201 0.3559709229159234 0
          0.9536390081016654 0.46300059279195704 0 0.34071811439611815 0.13216005227883876 0
          0.23276685526356283 0.03665206314286126 0 0.5512281165740489 0.4234582083671206 0
          0.8351563212868195 0.5169376718767282 0 1.1185860786453472 0.2823316842997413 0
          0.4551850837066022 0.35588121120619315 0 0.7104352102574387 0.521532562984849 0
          0.34816114258544373 0.20074940569822958 0 0.2632096194982029 0.06792165216663588 0
          1.0388762866865922 0.18945491401474018 0 0.5934813468609241 0.506723578542044 0
          0.9507816264546471 0.5257897261400981 0 0.34215460446362495 0.27523027015676793 0
          0 0 0 0.8360123113629309 0.08204783034834373 0
          1.1889020535477135 0.3801450065820542 0 0.7773405788945069 0.5705873323624551 0
          0.4285455274800746 0.4367889375342467 0 0.6290884285597613 0.563423348283895 0
          1.2275856981857383 0.2722698623164268 0 0.24631532854411325 0.12971549563544557 0
          0.3107193581448176 0.3251825828045987 0 0.13683868919230702 0.017502754937289457 0
          0.2510283380904554 0.1990289350799147 0 0.47825324479414794 0.010233467130410992 0
          0.9243935253065398 0.5669455400663024 0 0.4132481267431384 0.4927936877787469 0
          1.1434198679806857 0.4718342114113701 0 0.2473724436171507 0.2647652661465181 0
          0.6871278818713056 0.5941758902209238 0 0.27500645151059555 0.3652026601923105 0
          1.1722930172611064 0.13776196314934594 0 1.2950776529442267 0.3275456726160634 0
          0.15673286648278648 0.048309564613141405 0 0.5131931768037092 0.56795977635392 0
          0.798760242384408 0.5746024802236352 0 0.2016265052156851 0.28665107597510614 0
          0.31938829890615605 0.4676871533680779 0 1.0762836729154055 0.4858036335792235 0
          0.9180923441704172 0.02654915315706141 0 0.15005526183857873 0.07931697559564294 0
          0.5504470416043202 0.5637468047525948 0 0.21348346681993557 0.36363019428019583 0
          1.2694350958809797 0.3553724041737062 0 1.351749070862848 0.1903479519074197 0
          0.1501479192268209 0.1379338047676649 0 0 0 0
          0.15543771296095873 0.20974598275895526 0 0.3217250013644865 0.4892878277694581 0
          1.3580083640086396 0.2550832317826889 0 0.16616068164271144 0.2960446410067888 0
          0.0677391642932317 0.009263562576876062 0 0.6512869684427532 0.5095684809056652 0
          0.15284923887305157 0.3392879847816144 0 0.9831136873823345 0.42315760647631423 0
          0.36022065613052184 0.4598509144222256 0 0.11068826528740554 0.21263828802603807 0
          1.1777137901943426 0.3375424952955984 0 0.09012836552974247 0.035018914448484574 0
          0.10807950287778761 0.14391946221234206 0 1.2517792959556022 0.054105891970891 0
          1.3155838671828604 0.25155782708730845 0 0.16035245731090836 0.34894527122460794 0
          0.08350681464212084 0.20443145887892622 0 1.40544016163945 0.14926149785109058 0
          0.4262168203528123 0.3590951824736292 0 0.09219782433341386 0.10679742917901155 0
          0.0727292236179107 0.24728864698619146 0 0.08100350439207164 0.04975711717416659 0
          0.762005834799566 0.30750373774976547 0 0.0807490197072286 0.14235374048844576 0
          0.06703804569851987 0.21621438742848015 0 0.06996233140323475 0.2154181251933095 0
          0 0 0 0.0837069101560149 0.21910010869421784 0
          0.992395471674338 0.25252614585921257 0 1.4029039965511176 0.07494425206041955 0
          1.193651956362089 0.20802964841723445 0 0.04048793816355869 0.15802855711233935 0
          0.06594435061699042 0.06556025352542662 0 0.047728367532325885 0.1316102076144027 0
          0.9227433650945459 0.004240923041962895 0 0.03201141448649905 0.14589549938196325 0
          0.021307999304013097 0.1250450215281292 0 0 0 0
          0.058011311310039074 0.09639810660291961 0 0.3995740699776192 0.07005521023525087 0
          0 0 0 0.704191738816279 0.11162455730508754 0
          0 0 0 0.017314719017756535 0.0961084061591761 0
          0.029121071271815534 0.11540852144603204 0 0.04560870147214481 0.015718018937635924 0
          1.3313880707268342 0.06460680671539996 0 0 0 0
          0.010993510803677314 0.0726177119290362 0 0.04572460517095111 0.06412754860338872 0
          0.9267130745837523 0.0736565260636634 0 0.033829592165034644 0.08430156472825288 0
          0 0 0 0.018929800557296914 0.08352211552387863 0
          0 0 0 1.418028582676959 0.004182793303009735 0
          0.3528659442259256 0.027625539955016525 0 0.00661837177729381 0.059405654220157506 0
          1.131163604151189 0.025549400754208466 0 0.018422152142534596 0.07421620260470065 0
          0.6727294236537126 0.03865811505189631 0 0.03741875617774869 0.025880391315110954 0
          0 0 0 0.006890670765384295 0.04710165937323753 0
          1.4078069814046934 -0.033510680779704004 0 0 0 0
          0 0 0 0.014217616043892446 0.05260692108593539 0
          0.028716892545064685 0.03071078042433992 0 0.004951032623036869 0.03830389007470019 0
          0.02072949459691069 0.046720818695368434 0 0.3346284234366507 -0.0003898988161563744 0
          0.013332773945540877 0.045591963662867656 0 0 0 0
          1.2509644936175877 -0.05098660711990331 0 0.6592868866103697 -0.024457894937684847 0
          0.9420355330397093 -0.058676104123274606 0 0.004535184826748821 0.03006087906124134 0
          1.1563079572955828 -0.10041530258333174 0 0.02068695323083091 0.0068347511458920285 0
          0 0 0 0 0 0
          0.016555395674598666 0.027909838203144164 0 0 0 0
          1.3175404904692765 -0.12236312376724234 0 0.008953792771926145 0.030469285650200913 0
          0.003899512909883242 0.023277679005006442 0 0.3415589111376688 -0.027361273402780696 0
          0 0 0 1.3951504493721987 -0.13295105131499574 0
          0.008605892499704516 0.023913586023473196 0 0.6755921158584048 -0.12636287392883067 0
          0.014368752648056473 0.011949695568703107 0 0.0031320796676925513 0.01719449711965666 0
          0 0 0 0.9286897369101411 -0.1753918546998849 0
          0.005696550365400049 0.018666646507829385 0 1.3730029898860696 -0.13176294550564221 0
          0 0 0 0.0028259950867603463 0.01272821326715146 0
          1.132527907201279 -0.20578806395557317 0 0 0 0
          0 0 0 0.3921578214332357 -0.1750554559121371 0
          0.0076369123289469045 0.010282496573865634 0 0.00559805853395947 0.012512843447013087 0
          0.9354224869926581 -0.05094142117539195 0 0.0017391744155906845 0.008689262373602487 0
          1.2824854202317728 -0.21738562291630215 0 1.2031319049032128 -0.10104144163602448 0
          0.007773264871492961 0.002595907412602644 0 0 0 0
          0 0 0 0.6723745897323483 -0.24531745504952027 0
          0 0 0 0 0 0
          0.001086441086579134 0.0061667253344485 0 0.04662702906148632 -0.081520018518551 0
          0 0 0 0.0033344059850067887 0.007225360189477174 0
          1.3565926035920237 -0.21859585288182562 0 0.9017410061414718 -0.28279041413520495 0
          0.004611187197885581 0.003468647468141715 0 0 0 0
          0.026128392289397055 -0.04026873391407933 0 0.0012453883676295794 0.003789980388190098 0
          0.002881630664365353 0.004510400095806123 0 0 0 0
          0.014997434784655874 -0.014862456851508327 0 0 0 0
          0.3111005747980657 -0.22317441406050004 0 1.3172736422908378 -0.1897832629846318 0
          0.0014996579986129035 0.0026741527177366786 0 1.0593405958394355 -0.319843357639921 0
          0.006332208721222721 0.0023889668985310375 0 0.0025674562229148225 0.0007024768686678107 0
          0.0009775463338193655 0.0022534784125544218 0 0 0 0
          0 0 0 0.10238919583554855 -0.1221689330383996 0
          0 0 0 0.0021921293004113747 0.008105338651761843 0
          0 0 0 1.2261288395429093 -0.3118414365043638 0
          0.0645098078283945 -0.07286702926318918 0 0.001478104765288575 0.001163113836816152 0
          0 0 0 0.0004925421696697276 0.000989030753213185 0
          0.25264055049443895 -0.00781670543740373 0 0.54025792766823 -0.30382575863152794 0
          0.001348417122409466 0.011489517455998625 0 1.1498005434548508 -0.15103421518593424 0
          0 0 0 0 0 0
          0.0012004299089545326 0.012953221909271185 0 0.0003284732924433518 0.0004282437494697029 0
          0.2912509518067691 -0.23423136359452854 0 0.017187876251458085 -0.017797799926930022 0
          0.05233140465257843 -0.05541843373098265 0 0.7727362840868541 -0.3526715174537554 0
          0 0 0 1.285708443999095 -0.2812103069346546 0
          0.13938329764041363 -0.1420161004846417 0 0.0003293544783183608 0.014376651601757778 0
          0 0 0 0.010575920039623835 -0.002646792869436348 0
          0 0 0 0 0 0
          0.0050305019831539755 0.008865598474748266 0 0.00017704087876873868 -0.00010705444176617232 0
          -0.00029252299219669435 0.014415666753525512 0 0.004613254706680679 0.01386631338241678 0
          0.7803251185926449 -0.09511391856385719 0 0 0 0
          0 0 0 0.48077339978428735 -0.31469836050343025 0
          -0.0000959957735259149 0.01429159292032774 0 0.9383615125258131 -0.3748609731395225 0
          1.2332678247492326 -0.2417837300147818 0 0 0 0
          0.035083169456908446 -0.035730154254005504 0 0 0 0
          0.30688720498768407 -0.24896269210554606 0 0.0011471884653498085 0.018072797720882182 0
          0 0 0 -0.000329509981220234 0.013773557622680533 0
          0.01442811288598019 0.0012385390096393111 0 0 0 0
          0.0007401372102481583 0.020451335955131832 0 0.15919642586972196 -0.15206147017364072 0
          0 0 0 -0.0007196457777861203 0.012892871423693594 0
          0 0 0 -0.00024754576462065895 0.019903835004853508 0
          0.6568910263326181 -0.3656306507591647 0 0 0 0
          -0.0010223144924669703 0.011314352360654253 0 -0.0010561482144853924 0.019468046358712632 0
          1.0715758081459812 -0.17061510546764225 0 0.4672493669436958 -0.3179143075229785 0
          0.006864768890811795 0.01301109763337668 0 0 0 0
          -0.0010401085993056603 0.009685672145254719 0 1.1991144109166196 -0.32675069883004354 0
          0.054083655625953464 -0.051444741737309355 0 -0.003030684714933501 0.019172919663842884 0
          1.034184883182295 -0.3976588036289828 0 0.2999833894269584 -0.2445418678590686 0
          0 0 0 -0.0009747980170644396 0.008103190715742697 0
          -0.00024178356298170306 0.020485715839601872 0 0.13878090869402424 -0.13489704293271007 0
          -0.0031999091304634937 0.01709981049478097 0 0.034089277802714875 -0.025323523160221642 0
          0.811784993831369 -0.39935602523595226 0 0 0 0
          -0.0010947636911811784 0.00624329401546804 0 -0.002848744116493565 0.0139265415361516 0
          0.6220353341332073 -0.36018739240855235 0 0.6941296322727498 -0.08334626632786425 0
          0 0 0 -0.0011399420866293796 0.004345196300278168 0
          -0.005394458160385217 0.019271664940477953 0 -0.0037081351372460734 0.012010110835830156 0
          0.01252159189604658 0.0009789587572898537 0 0.4524777105177329 -0.3071797973185268 0
          0.08194755399472138 -0.08435723596278331 0 0 0 0
          -0.0011077677323492756 0.002433474596922345 0 1.0908680648065774 -0.37985470535195515 0
          -0.003797837757964506 0.009025734120174808 0 -0.00639242102431964 0.01636409787875177 0
          0.3003647389633924 -0.23902492792991048 0 1.130640391380125 -0.3106013107655663 0
          0 0 0 0.9419707638980687 -0.39640520311879424 0
          -0.0038227107133756498 0.006099483993787785 0 -0.0004917099914005399 0.0006702396269510241 0
          0.05445387179698706 -0.04594561162190708 0 -0.007610173331119373 0.01216089620990796 0
          0.1631167546541527 -0.1521391743502061 0 -0.0030248819513013243 0.003313416131256603 0
          0.6665368935321178 -0.36227956855249704 0 0.0010792288601234768 0.00031382781967065023 0
          0 0 0 0.9885219841619908 -0.20929918318798524 0
          0.3103073438120294 -0.017344381321725225 0 -0.007099583103323373 0.006264166125725419 0
          -0.007600436810826098 0.006753736935988429 0 -0.009318137684653241 0.00907900839213917 0
          0.11526403406480963 -0.10623251623759793 0 0.4276170100747461 -0.2933195046322997 0
          0 0 0 -0.00346019740344723 0.0015599426269049133 0
          1.0206922512083294 -0.34438421380777856 0 0.021865142760636464 -0.03754374361015661 0
          -0.01212567647685163 0.006048526650640983 0 -0.0006209444885884719 -0.011555610591281656 0
          0.8085856764544751 -0.35809518878008106 0 0.21571437661832107 -0.1835480973190163 0
          0.5395461664505826 -0.0724409552171674 0 -0.009375857808995212 -0.0007603712356259463 0
          0 0 0 -0.008082621520126756 0.0019327268358829617 0
          0.5601626366519514 -0.32022893393954477 0 1.05873879615495 -0.2756060645974131 0
          0.07561162027993241 -0.08663338959858648 0 0.35639511475522523 -0.2540511814589064 0
          0.02326526087844054 -0.040981526592594096 0 0.0007869346197041416 -0.01579331286247657 0
          -0.012327799838165546 0.0008591227574239962 0 0.9508291653473353 -0.3267376716141114 0
          0 0 0 -0.008818267252002675 -0.0037256510352551065 0
          0.7318297097608494 -0.34672175254498505 0 0.48849025854190015 -0.3008136456658776 0
          0 0 0 0.16669637411139687 -0.1488413186579025 0
          0.06847666467928597 -0.07904113394529903 0 0.9376268930378914 -0.09431038661949656 0
          0.027753201171821864 -0.03989420804073709 0 -0.0090996350492068 -0.0016033642311166847 0
          0.0037463022605124688 -0.014651514973365067 0 0.3059604003971008 -0.23485937552061723 0
          0 0 0 0.9598998742558171 -0.3796663805154673 0
          -0.002302049945465971 -0.0011355833894278998 0 0.146111971641781 -0.14478844978770952 0
          0.06807940700370163 -0.06726880938037132 0 0.5639197610405116 -0.4137589607537617 0
          0.019700345142170176 -0.018790178113456173 0 0.2867371602464453 -0.28335817256591317 0
          0 0 0 0.06310831852746861 -0.03887031504338661 0
          0.1469892105247748 -0.11929462275827916 0 0 0 0
          <InformationKey name="L2_NORM_RANGE" location="vtkDataArray" length="2">
            <Value index="0">
              0
            </Value>
            <Value index="1">
              1.4180347517
            </Value>
          </InformationKey>
        </DataArray>
        <DataArray type="Float64" Name="Pressure" format="ascii" RangeMin="-8.700020860855203" RangeMax="36.96651331777285">
          36.29721172552551 36.478115294121004 36.787364551054 36.25352882332513 36.10286493237714 36.824003688855136
          36.10133930274558 35.59087861097046 35.41584760198732 34.678436453064435 36.15318611877475 34.453536630209875
          36.96651331777285 35.340991327667496 34.43969184828731 33.67086508439908 33.51326685447749 34.53988187323622
          36.541852404454694 35.59423242046883 33.35454590423914 34.79268730335995 32.400013171397624 36.94302800342987
          33.51720371081069 32.223807948652016 32.32667828482333 33.93273086763884 31.420535852345743 34.98002705211611
          36.002397309012984 30.85108963170301 36.74604177424911 34.2115544402213 33.06388401882892 31.140572182447368
          30.28621475600632 31.540232076523406 33.514271166499924 35.27625040251637 29.426712927063704 35.71610482298389
          36.81341246176588 34.41217137351581 29.605031740243202 32.103087414087845 30.105078922231666 32.76141725445588
          33.86469767722226 30.705793167037847 34.556639396693015 27.409052159284673 27.76447348480278 28.44158029557435
          33.37658693780233 32.003157249372975 29.272576008909038 34.02612176202863 30.124157490304235 32.72120985831723
          34.823235056710296 27.43563770708181 31.07302768493041 34.14291970576225 25.73883051613268 33.76911654504902