<?xml version="1.0"?>
<VTKFile type="UnstructuredGrid" version="0.1" byte_order="LittleEndian" header_type="UInt32" compressor="vtkZLibDataCompressor">
  <UnstructuredGrid>
    <Piece NumberOfPoints="418" NumberOfCells="757">
      <PointData>
        <DataArray type="Float64" Name="nsi_BC" NumberOfComponents="3" format="ascii" RangeMin="0" RangeMax="1">
          0 0 0 0 0 0
          0 0 0 0 0 0
          0 0 0 1 0 0
          0 0 0 0 0 0
          0 0 0 0 0 0
          0 0 0 0 0 0
          0 0 0 0 0 0
          0 0 0 0 0 0
          0 0 0 0 0 0
          0 0 0 0 0 0
          0 0 0 0 0 0
          0 0 0 0 0 0
          0 0 0 0 0 0
          0 0 0 0 0 0
          0 0 0 0 0 0
          0 0 0 0 0 0
          0 0 0 0 0 0
          0 0 0 0 0 0
          0 0 0 0 0 0
          0 0 0 0 0 0
          0 0 0 0 0 0
          0 0 0 0 0 0
          0 0 0 0 0 0
          0 0 0 0 0 0
          0 0 0 0 0 0
          0 0 0 0 0 0
          0 0 0 0 0 0
          0 0 0 0 0 0
          0 0 0 0 0 0
          0 0 0 0 0 0
          0 0 0 0 0 0
          0 0 0 0 0 0
          0 0 0 0 0 0
          0 0 0 0 0 0
          0 0 0 0 0 0
          0 0 0 0 0 0
          0 0 0 0 0 0
          0 0 0 0 0 0
          0 0 0 0 0 0
          0 0 0 0 0 0
          0 0 0 0 0 0
          0 0 0 0 0 0
          0 0 0 0 0 0
          0 0 0 0 0 0
          0 0 0 0 0 0
          0 0 0 0 0 0
          0 0 0 0 0 0
          0 0 0 0 0 0
          0 0 0 0 0 0
          0 0 0 0 0 0
          0 0 0 0 0 0
          0 0 0 0 0 0
          0 0 0 0 0 0
          0 0 0 0 0 0
          0 0 0 0 0 0
          0 0 0 0 0 0
          0 0 0 0 0 0
          0 0 0 0 0 0
          0 0 0 0 0 0
          0 0 0 0 0 0
          0 0 0 0 0 0
          0 0 0 0 0 0
          0 0 0 0 0 0
          0 0 0 0 0 0
          0 0 0 0 0 0
          0 0 0 0 0 0
          0 0 0 0 0 0
          0 0 0 0 0 0
          0 0 0 0 0 0
          0 0 0 0 0 0
          0 0 0 0 0 0
          0 0 0 0 0 0
          0 0 0 0 0 0
          0 0 0 0 0 0
          0 0 0 0 0 0
          0 0 0 0 0 0
          0 0 0 0 0 0
          0 0 0 0 0 0
          0 0 0 0 0 0
          0 0 0 0 0 0
          0 0 0 0 0 0
          0 0 0 0 0 0
          0 0 0 0 0 0
          0 0 0 0 0 0
          0 0 0 0 0 0
          0 0 0 0 0 0
          0 0 0 0 0 0
          0 0 0 0 0 0
          0 0 0 0 0 0
          0 0 0 0 0 0
          0 0 0 0 0 0
          0 0 0 0 0 0
          0 0 0 0 0 0
          0 0 0 0 0 0
          0 0 0 0 0 0
          0 0 0 0 0 0
          0 0 0 0 0 0
          0 0 0 0 0 0
          0 0 0 0 0 0
          0 0 0 0 0 0
          0 0 0 0 0 0
          0 0 0 0 0 0
          0 0 0 0 0 0
          0 0 0 0 0 0
          0 0 0 0 0 0
          0 0 0 0 0 0
          0 0 0 0 0 0
          0 0 0 0 0 0
          0 0 0 0 0 0
          0 0 0 0 0 0
          0 0 0 0 0 0
          0 0 0 0 0 0
          0 0 0 0 0 0
          0 0 0 0 0 0
          0 0 0 0 0 0
          0 0 0 0 0 0
          0 0 0 0 0 0
          0 0 0 0 0 0
          0 0 0 0 0 0
          0 0 0 0 0 0
          0 0 0 0 0 0
          0 0 0 0 0 0
          0 0 0 0 0 0
          0 0 0 0 0 0
          0 0 0 0 0 0
          0 0 0 0 0 0
          0 0 0 0 0 0
          0 0 0 0 0 0
          0 0 0 0 0 0
          0 0 0 0 0 0
          0 0 0 0 0 0
          0 0 0 0 0 0
          0 0 0 0 0 0
          0 0 0 0 0 0
          0 0 0 0 0 0
          0 0 0 0 0 0
          0 0 0 0 0 0
          0 0 0 0 0 0
          0 0 0 0 0 0
          0 0 0 0 0 0
          0 0 0 0 0 0
          0 0 0 0 0 0
          0 0 0 0 0 0
          0 0 0 0 0 0
          0 0 0 0 0 0
          0 0 0 0 0 0
          0 0 0 0 0 0
          0 0 0 0 0 0
          0 0 0 0 0 0
          0 0 0 0 0 0
          0 0 0 0 0 0
          0 0 0 0 0 0
          0 0 0 0 0 0
          0 0 0 0 0 0
          0 0 0 0 0 0
          0 0 0 0 0 0
          0 0 0 0 0 0
          0 0 0 0 0 0
          0 0 0 0 0 0
          0 0 0 0 0 0
          0 0 0 0 0 0
          0 0 0 0 0 0
          0 0 0 0 0 0
          0 0 0 0 0 0
          0 0 0 0 0 0
          0 0 0 0 0 0
          0 0 0 0 0 0
          0 0 0 0 0 0
          0 0 0 0 0 0
          0 0 0 0 0 0
          0 0 0 0 0 0
          0 0 0 0 0 0
          0 0 0 0 0 0
          0 0 0 0 0 0
          0 0 0 0 0 0
          0 0 0 0 0 0
          0 0 0 0 0 0
          0 0 0 0 0 0
          0 0 0 0 0 0
          0 0 0 0 0 0
          0 0 0 0 0 0
          0 0 0 0 0 0
          0 0 0 0 0 0
          0 0 0 0 0 0
          0 0 0 0 0 0
          0 0 0 0 0 0
          0 0 0 0 0 0
          0 0 0 0 0 0
          0 0 0 0 0 0
          0 0 0 0 0 0
          0 0 0 0 0 0
          0 0 0 0 0 0
          0 0 0 0 0 0
          0 0 0 0 0 0
          0 0 0 0 0 0
          0 0 0 0 0 0
          0 0 0 0 0 0
          0 0 0 0 0 0
          0 0 0 0 0 0
          0 0 0 0 0 0
          0 0 0 0 0 0
          0 0 0 0 0 0
          0 0 0 0 0 0
          0 0 0 0 0 0
          0 0 0 0 0 0
          0 0 0 0 0 0
          0 0 0 0 0 0
          0 0 0 0 0 0
          0 0 0 0 0 0
          <InformationKey name="L2_NORM_RANGE" location="vtkDataArray" length="2">
            <Value index="0">
              0
            </Value>
            <Value index="1">
              1
            </Value>
          </InformationKey>
        </DataArray>
        <DataArray type="Float64" Name="nsi_FIXNO" NumberOfComponents="3" format="ascii" RangeMin="1.4142135623730951" RangeMax="1.4142135623730951">
          1 1 0 -1 -1 0
          -1 -1 0 -1 -1 0
          1 1 0 1 1 0
          -1 -1 0 -1 -1 0
          -1 -1 0 -1 -1 0
          -1 -1 0 -1 -1 0
          -1 -1 0 -1 -1 0
          -1 -1 0 1 1 0
          -1 -1 0 -1 -1 0
          -1 -1 0 -1 -1 0
          -1 -1 0 -1 -1 0
          -1 -1 0 -1 -1 0
          -1 -1 0 -1 -1 0
          -1 -1 0 -1 -1 0
          -1 -1 0 -1 -1 0
          -1 -1 0 -1 -1 0
          1 1 0 -1 -1 0
          -1 -1 0 -1 -1 0
          1 1 0 -1 -1 0
          -1 -1 0 -1 -1 0
          -1 -1 0 -1 -1 0
          1 1 0 -1 -1 0
          -1 -1 0 -1 -1 0
          -1 -1 0 -1 -1 0
          -1 -1 0 -1 -1 0
          -1 -1 0 -1 -1 0
          -1 -1 0 -1 -1 0
          -1 -1 0 -1 -1 0
          -1 -1 0 -1 -1 0
          -1 -1 0 -1 -1 0
          1 1 0 -1 -1 0
          -1 -1 0 -1 -1 0
          -1 -1 0 -1 -1 0
          -1 -1 0 -1 -1 0
          -1 -1 0 1 1 0
          -1 -1 0 -1 -1 0
          -1 -1 0 -1 -1 0
          -1 -1 0 -1 -1 0
          -1 -1 0 -1 -1 0
          -1 -1 0 -1 -1 0
          -1 -1 0 -1 -1 0
          -1 -1 0 -1 -1 0
          -1 -1 0 -1 -1 0
          -1 -1 0 -1 -1 0
          1 1 0 -1 -1 0
          -1 -1 0 -1 -1 0
          -1 -1 0 -1 -1 0
          -1 -1 0 -1 -1 0
          -1 -1 0 -1 -1 0
          -1 -1 0 -1 -1 0
          -1 -1 0 -1 -1 0
          -1 -1 0 -1 -1 0
          -1 -1 0 -1 -1 0
          -1 -1 0 -1 -1 0
          -1 -1 0 -1 -1 0
          -1 -1 0 -1 -1 0
          -1 -1 0 -1 -1 0
          -1 -1 0 -1 -1 0
          -1 -1 0 -1 -1 0
          -1 -1 0 -1 -1 0
          -1 -1 0 1 1 0
          -1 -1 0 -1 -1 0
          -1 -1 0 -1 -1 0
          -1 -1 0 -1 -1 0
          -1 -1 0 -1 -1 0
          -1 -1 0 -1 -1 0
          -1 -1 0 -1 -1 0
          -1 -1 0 -1 -1 0
          -1 -1 0 -1 -1 0
          -1 -1 0 -1 -1 0
          -1 -1 0 -1 -1 0
          -1 -1 0 -1 -1 0
          -1 -1 0 -1 -1 0
          -1 -1 0 -1 -1 0
          1 1 0 -1 -1 0
          -1 -1 0 -1 -1 0
          -1 -1 0 -1 -1 0
          -1 -1 0 -1 -1 0
          -1 -1 0 -1 -1 0
          -1 -1 0 1 1 0
          -1 -1 0 -1 -1 0
          1 1 0 -1 -1 0
          1 1 0 -1 -1 0
          -1 -1 0 -1 -1 0
          -1 -1 0 1 1 0
          -1 -1 0 -1 -1 0
          -1 -1 0 -1 -1 0
          1 1 0 -1 -1 0
          1 1 0 -1 -1 0
          -1 -1 0 -1 -1 0
          -1 -1 0 -1 -1 0
          -1 -1 0 -1 -1 0
          1 1 0 -1 -1 0
          -1 -1 0 1 1 0
          1 1 0 -1 -1 0
          -1 -1 0 -1 -1 0
          -1 -1 0 -1 -1 0
          -1 -1 0 1 1 0
          -1 -1 0 -1 -1 0
          -1 -1 0 -1 -1 0
          -1 -1 0 -1 -1 0
          1 1 0 1 1 0
          -1 -1 0 1 1 0
          -1 -1 0 -1 -1 0
          -1 -1 0 -1 -1 0
          1 1 0 -1 -1 0
          -1 -1 0 -1 -1 0
          -1 -1 0 -1 -1 0
          1 1 0 -1 -1 0
          -1 -1 0 -1 -1 0
          1 1 0 -1 -1 0
          -1 -1 0 1 1 0
          1 1 0 -1 -1 0
          -1 -1 0 -1 -1 0
          -1 -1 0 -1 -1 0
          -1 -1 0 -1 -1 0
          -1 -1 0 1 1 0
          1 1 0 -1 -1 0
          1 1 0 1 1 0
          -1 -1 0 -1 -1 0
          1 1 0 -1 -1 0
          -1 -1 0 -1 -1 0
          -1 -1 0 1 1 0
          -1 -1 0 -1 -1 0
          -1 -1 0 1 1 0
          -1 -1 0 1 1 0
          -1 -1 0 -1 -1 0
          -1 -1 0 -1 -1 0
          -1 -1 0 -1 -1 0
          -1 -1 0 1 1 0
          1 1 0 -1 -1 0
          1 1 0 -1 -1 0
          1 1 0 -1 -1 0
          -1 -1 0 -1 -1 0
          1 1 0 -1 -1 0
          -1 -1 0 -1 -1 0
          -1 -1 0 -1 -1 0
          1 1 0 1 1 0
          -1 -1 0 -1 -1 0
          -1 -1 0 -1 -1 0
          -1 -1 0 -1 -1 0
          1 1 0 -1 -1 0
          -1 -1 0 -1 -1 0
          1 1 0 -1 -1 0
          1 1 0 1 1 0
          -1 -1 0 -1 -1 0
          -1 -1 0 -1 -1 0
          -1 -1 0 1 1 0
          1 1 0 -1 -1 0
          -1 -1 0 -1 -1 0
          -1 -1 0 1 1 0
          -1 -1 0 1 1 0
          -1 -1 0 -1 -1 0
          1 1 0 -1 -1 0
          -1 -1 0 1 1 0
          -1 -1 0 -1 -1 0
          1 1 0 -1 -1 0
          1 1 0 -1 -1 0
          -1 -1 0 1 1 0
          -1 -1 0 -1 -1 0
          -1 -1 0 -1 -1 0
          -1 -1 0 1 1 0
          -1 -1 0 -1 -1 0
          -1 -1 0 -1 -1 0
          -1 -1 0 -1 -1 0
          1 1 0 -1 -1 0
          -1 -1 0 -1 -1 0
          -1 -1 0 -1 -1 0
          -1 -1 0 1 1 0
          -1 -1 0 -1 -1 0
          -1 -1 0 -1 -1 0
          1 1 0 -1 -1 0
          -1 -1 0 -1 -1 0
          -1 -1 0 -1 -1 0
          -1 -1 0 1 1 0
          -1 -1 0 -1 -1 0
          -1 -1 0 -1 -1 0
          -1 -1 0 -1 -1 0
          1 1 0 -1 -1 0
          -1 -1 0 -1 -1 0
          -1 -1 0 -1 -1 0
          -1 -1 0 -1 -1 0
          -1 -1 0 -1 -1 0
          1 1 0 -1 -1 0
          -1 -1 0 -1 -1 0
          -1 -1 0 -1 -1 0
          -1 -1 0 -1 -1 0
          1 1 0 -1 -1 0
          -1 -1 0 -1 -1 0
          -1 -1 0 -1 -1 0
          -1 -1 0 -1 -1 0
          -1 -1 0 -1 -1 0
          1 1 0 -1 -1 0
          -1 -1 0 -1 -1 0
          -1 -1 0 -1 -1 0
          -1 -1 0 -1 -1 0
          -1 -1 0 -1 -1 0
          1 1 0 -1 -1 0
          -1 -1 0 -1 -1 0
          1 1 0 -1 -1 0
          -1 -1 0 -1 -1 0
          -1 -1 0 -1 -1 0
          -1 -1 0 -1 -1 0
          1 1 0 -1 -1 0
          -1 -1 0 -1 -1 0
          -1 -1 0 -1 -1 0
          -1 -1 0 -1 -1 0
          1 1 0 -1 -1 0
          -1 -1 0 1 1 0
          <InformationKey name="L2_NORM_RANGE" location="vtkDataArray" length="2">
            <Value index="0">
              1.4142135624
            </Value>
            <Value index="1">
              1.4142135624
            </Value>
          </InformationKey>
        </DataArray>
        <DataArray type="Float64" Name="Velocity" NumberOfComponents="3" format="ascii" RangeMin="0" RangeMax="1.4147061578613165">
          0 0 0 0.31846799157577127 0.024469020540458568 0
          0.7324871610827626 0.10044231923001429 0 0.5149956041930779 0.03723182995422966 0
          0 0 0 1 0 0
          0.7173843284960131 0.026922766975499616 0 0.370140814621804 0.02239387352737582 0
          0.6433317794986256 0.0389178445747012 0 0.31283699448507307 0.005137809946356266 0
          0.6667130347998638 0.028445039181763106 0 0.562350135453336 0.03390023346830613 0
          0.702305978263197 -0.09712787194936882 0 0.7183317567698461 0.032298650126224286 0
          0.6834742970429627 0.04779722532532693 0 0 0 0
          0.5071368814976108 0.027164131736269206 0 0.7230003014844901 0.058798793484456616 0
          0.6050823202355597 -0.005283920350448617 0 0.6485398073537338 0.04113220927200347 0
          0.6593556037286538 0.05793849681749994 0 0.6845079329494249 0.059287427227598506 0
          0.4256455441998755 0.03656120644454163 0 0.34828214839934807 -0.028458910308032027 0
          0.7272930994762744 0.09728483099077635 0 0.6423959782287801 0.07978118830189598 0
          0.738651034243234 0.11818207184697252 0 0.7085260573784271 0.09633609185443152 0
          0.322346900831976 0.012011714850099008 0 0.5702985189961987 0.04480150428195067 0
          0.44511477683589695 0.0016980701093512317 0 0.6020474479926002 0.09002571002600646 0
          0 0 0 0.6187527137091363 0.0782532227521042 0
          0.7267605354996763 0.15481907569331865 0 0.7550678184265633 0.15439844984591972 0
          0 0 0 0.7722950482815248 0.19038604404901832 0
          0.6481368433472042 0.13534956890006458 0 0.32412750454199746 0.008569382895026921 0
          0.5665713813680339 0.0849627432905944 0 0.20166271403643776 0.0049741440400740775 0
          0 0 0 0.4681527992933381 0.049005991104776166 0
          0.7646437357776785 0.18275469781287254 0 0.7490331185196214 0.22479918611892274 0
          0.8229401533084987 0.2458582260790698 0 0.6716299104693443 0.20869502973559345 0
          0.5182219973940076 0.09417558957705316 0 0.8052316848618054 0.2842157045174746 0
          0.31167168425439834 0.024331876336825767 0 0.4621969094450278 0.024560279337025124 0
          0.7956112721044611 0.15301326410345226 0 0.8745346084160165 0.2759576905698722 0
          0.5532077407321774 0.16702445899275406 0 0.6843374071940187 0.2923346572804257 0
          0.8649671526234335 0.34352612906945024 0 0.3536670438056823 0.047964321363083394 0
          0.7924541223841073 0.3723550534555651 0 0.5853699321312598 0.256240876483365 0
          0 0 0 0.9449669620062714 0.3648510912568557 0
          0.6997032135611666 0.37580240559635564 0 0.18851083814642247 0.011006946315307579 0
          0.9838510860578599 0.23726345332717935 0 0.375374709852514 0.09343948323681703 0
          0.45753125845958365 0.19307196982723332 0 0.8684123894257333 0.42580632265361135 0
          0.5865016967317692 0.33664947454775074 0 0 0 0
          0.7492977777097103 0.10247376240408805 0 0.46697598658172546 0.27148048590433216 0
          0.7368452729005284 0.4666851352888457 0 1.051951875773445 0.3594361030745967 0
          0.9612127233452948 0.4643818796979657 0 0.33024281501260044 0.12837258175673336 0
          0.21926909374275963 0.036349665292409274 0 0.5622084698999626 0.41717248351995234 0
          0.8456228798103647 0.5153491262851235 0 1.1166536082680947 0.28655247051668997 0
          0.46176654256865884 0.347784062824933 0 0.7216589029340761 0.5173458709687989 0
          0.3430119769167529 0.19401946021331176 0 0.24970827717885583 0.06578265860151261 0
          1.0361233132699716 0.19312288441634876 0 0.6034268829911723 0.500102811713006 0
          0.9577233224005827 0.5248484118751741 0 0.3416658225228616 0.2658358777208107 0
          0 0 0 0.8344864673440838 0.08424977527768122 0
          1.1893496629816271 0.3829127520305775 0 0.7857180723821504 0.5669060912916767 0
          0.43523749978391557 0.4271125020460917 0 0.6372936756672423 0.557509417761234 0
          1.2249100176185883 0.2759441427574324 0 0.23597706729655507 0.12364026494079017 0
          0.3122281096499794 0.3137228845528496 0 0.12659346801975987 0.01675340056310552 0
          0.24484598611475272 0.1895450910560759 0 0.47839390094236917 0.010857162740165188 0
          0.9298166965904457 0.5651531187187939 0 0.4191092318075499 0.4837702781838708 0
          1.1458767291553154 0.4727363491758785 0 0.245410236243587 0.25301883727941654 0
          0.6933318585758116 0.5898459454450655 0 0.27751231945521726 0.35364583823727913 0
          1.1702178769049711 0.14138315066336302 0 1.293838090042943 0.3305956794630941 0
          0.14514446088685745 0.04559685238700324 0 0.5187018013630298 0.5619333579567066 0
          0.8033500455097481 0.5725983027871745 0 0.2014452411954272 0.27462509951356284 0
          0.323369581295894 0.45985873070715483 0 1.0793435630013615 0.48591356789667917 0
          0.9191421588709494 0.028376844466084274 0 0.1397488514104631 0.07417222946905642 0
          0.5547204270448258 0.5602101575735152 0 0.21559342432559486 0.3535480868449761 0
          1.2694906035850577 0.35743875150072096 0 1.348533129422554 0.19451012920473554 0
          0.14344105257314155 0.12879090065041232 0 0 0 0
          0.15301169104218737 0.1983735348093921 0 0.32497028757589214 0.48414724788555247 0
          1.3557625271299434 0.2584440384636759 0 0.16703515173015776 0.28536289727922187 0
          0.06176308827779094 0.008595254057550992 0 0.6547455431303375 0.5083052590678035 0
          0.1546030683442761 0.332262647186001 0 0.9861717677030807 0.4236683607502555 0
          0.362699800694577 0.4574592408064585 0 0.10993284519905941 0.20206654187474113 0
          1.1791938540309999 0.33928347856204355 0 0.08188642004311544 0.03237309605944468 0
          0.10373558780331646 0.13424722712507292 0 1.250950011008713 0.05800403872716026 0
          1.314692227499763 0.2546055523998269 0 0.16185364771107058 0.34536360271325006 0
          0.08366056860857558 0.19561563574623198 0 1.4024117133275382 0.15413568991319768 0
          0.42828735177717286 0.3587417396688659 0 0.08733214490537075 0.09872644153914605 0
          0.07350907010581045 0.24312607563254937 0 0.07359072044419634 0.04578213742428269 0
          0.764899725309267 0.3082176878713055 0 0.07848709609015235 0.13279836875815715 0
          0.06757326855242544 0.2096480935091351 0 0.07060496915168372 0.21029772147853099 0
          0 0 0 0.08433077517621101 0.21766661688850217 0
          0.9947674904153673 0.254073573126832 0 1.4001006805555054 0.08043600395647599 0
          1.194364529758782 0.21082895281279845 0 0.040850330919054025 0.155952660902662 0
          0.06076172251322884 0.059613621192433346 0 0.04707619303165766 0.12360473780923523 0
          0.9259087104947762 0.006636313868491297 0 0.03213724978650371 0.14020586658558068 0
          0.02152070803215742 0.12258784903315964 0 0 0 0
          0.05508923090329225 0.08861281140556646 0 0.4014368131612862 0.07054068698505152 0
          0 0 0 0.7065213999815493 0.11268296575284788 0
          0 0 0 0.017463824962226385 0.09337328386848208 0
          0.02907490819871474 0.109664435853308 0 0.04077326728554466 0.014345549861475761 0
          1.3293603322531642 0.07017358513182867 0 0 0 0
          0.011047476660041616 0.06969880545486608 0 0.04237662051554435 0.05804130580815841 0
          0.9280995825032404 0.07590720176816998 0 0.03257182835698227 0.07756926071861495 0
          0 0 0 0.018658437445871413 0.07839933993155397 0
          0 0 0 1.4146586225913207 0.01159718150051733 0
          0.3543005864991443 0.027948908878982884 0 0.006620210736059625 0.05644803091806423 0
          1.130730862669996 0.029958869126137874 0 0.018071124889234 0.06890028901953806 0
          0.6742415491288491 0.03990171223386653 0 0.033219396365665184 0.023330587914751476 0
          0 0 0 0.006842764175607394 0.044182621776053706 0
          1.4061583858991729 -0.025789641024493427 0 0 0 0
          0 0 0 0.01367392433163966 0.04816057087028994 0
          0.025722198763505903 0.027284718175071946 0 0.0048594490693315735 0.03552572848705529 0
          0.019228682844138673 0.04186398112067656 0 0.33554566705720923 0.00011562421864230867 0
          0.01272452211760093 0.04123159735659718 0 0 0 0
          1.2535293638812661 -0.04496443778208569 0 0.6597680466703785 -0.022364567269258614 0
          0.9414431195894495 -0.05403503375003241 0 0.004410578560115877 0.027461755669228243 0
          1.1540798759505508 -0.09239910114204508 0 0.018131056423730096 0.006083852989991911 0
          0 0 0 0 0 0
          0.014969480712485692 0.02447249040930211 0 0 0 0
          1.3145762759276696 -0.11227858974362555 0 0.008302850898013043 0.027116925208539266 0
          0.003727192960556054 0.02095225587947621 0 0.34163771665017956 -0.026356420152546346 0
          0 0 0 1.3926628418875007 -0.12200774790778103 0
          0.007923356265110624 0.0210237778038578 0 0.6743927813765869 -0.1214892312764007 0
          0.012377358024549893 0.01048032953214042 0 0.002947932167453551 0.015168342482176482 0
          0 0 0 0.9266094956104242 -0.16686786369364712 0
          0.005079153435352026 0.016165016003478926 0 1.373752904857746 -0.12186604478711183 0
          0 0 0 0.0025979688279926453 0.011041734182644663 0
          1.1297254775567356 -0.19410331053547308 0 0 0 0
          0 0 0 0.39022323021709077 -0.1694128816113591 0
          0.006608037783218666 0.008665049742425804 0 0.005000937418875312 0.010617763971817426 0
          0.94305712982814 -0.04743996777381479 0 0.0015583644737059425 0.007349090027028287 0
          1.2799341209377073 -0.20362952083381525 0 1.2087982728100435 -0.09419531127900563 0
          0.006640870039402949 0.002219455589446257 0 0 0 0
          0 0 0 0.6698334170281484 -0.2352276008248457 0
          0 0 0 0 0 0
          0.0009468664187815291 0.0051204789485768685 0 0.04605624039131744 -0.07517231574638139 0
          0 0 0 0.0028777560297613297 0.005978830888984413 0
          1.3558638697727163 -0.20480640618432086 0 0.8989370224942083 -0.26865832994844363 0
          0.0038008661652170345 0.0028746202156861456 0 0 0 0
          0.025901139150082915 -0.0343199005780563 0 0.0010948451856064086 0.0030223846511945574 0
          0.002457887020945378 0.00363831815797439 0 0 0 0
          0.014879911883656227 -0.009145981558185244 0 0 0 0
          0.3090873586136905 -0.21037134452458564 0 1.3212709220580072 -0.17879653002798157 0
          0.0011852918488510793 0.002096915520333913 0 1.057058543397516 -0.30200008150468977 0
          0.00625964471119536 0.007941597186811724 0 0.002121953071923417 0.0005431781995141794 0
          0.0008314026101547052 0.001717468194809124 0 0 0 0
          0 0 0 0.1015904892344495 -0.10950314938640256 0
          0 0 0 0.0021500842128438858 0.013545022912435967 0
          0 0 0 1.2257403889523595 -0.29385423539352945 0
          0.06403755514195618 -0.06045933768012031 0 0.0011693349243766477 0.0008796420565076017 0
          0 0 0 0.00039594154865966395 0.0006635283144913877 0
          0.2556432152784773 -0.007697235922516325 0 0.537875960713563 -0.28512035141222103 0
          0.0012746398894701045 0.016819749575249173 0 1.159214954219549 -0.14508647833679994 0
          0 0 0 0 0 0
          0.0010494452419944117 0.018080635393899473 0 0.00024297613544712785 0.0002487709298994233 0
          0.28972624589146345 -0.2148324749917151 0 0.016911784085498302 -0.005879502745346308 0
          0.051920795925676215 -0.04074744194005326 0 0.7708068905861112 -0.3305398783351314 0
          0 0 0 1.288996912212889 -0.26588695258015804 0
          0.13861577830407457 -0.12311063804342645 0 0.00012566797834648384 0.01924121576114157 0
          0 0 0 0.010312775522853687 0.008964048605253893 0
          0 0 0 0 0 0
          0.004583080760187087 0.018817128862759287 0 0.0001294040232695928 -0.00013414626515498003 0
          -0.0005145237903375262 0.018870942593269564 0 0.004070804718677632 0.023584621530260808 0
          0.7911694131090937 -0.09309462960735918 0 0 0 0
          0 0 0 0.4794151131948448 -0.2891039948783602 0
          -0.0003943694219858038 0.018271365329162268 0 0.9385331394763264 -0.35022847195648577 0
          1.2428865295427236 -0.2318811983977032 0 0 0 0
          0.03431257474533955 -0.017023536023217087 0 0 0 0
          0.3059075242840397 -0.22255721769696832 0 0.0002272771557740048 0.02801419686608162 0
          0 0 0 -0.0007034378484171771 0.017180418044720216 0
          0.013231018888160967 0.0171728101725515 0 0 0 0
          -0.0002985081830443222 0.029416252664615398 0 0.15827189738369815 -0.12608108863186618 0
          0 0 0 -0.0010462721433593474 0.01573736999470537 0
          0 0 0 -0.001415592637655579 0.027012163984070994 0
          0.6574349897996581 -0.33630753482249687 0 0 0 0
          -0.0013372998454988724 0.013563304132938573 0 -0.002170537152793668 0.025506549700381246 0
          1.0852152635983436 -0.16689326612899755 0 0.4671691100134872 -0.2865766692960394 0
          0.004282585069433656 0.02803684939602328 0 0 0 0
          -0.0014678071078026629 0.011253786684318711 0 1.2089778481420423 -0.3126265244431858 0
          0.051743612225506795 -0.027200256640239687 0 -0.004311990032049874 0.02467217128998395 0
          1.0403375922188387 -0.3744794617228539 0 0.2992956927108787 -0.21248522527858194 0
          0 0 0 -0.0012977046880874637 0.00904890894969153 0
          -0.003047350671782707 0.031724852109079556 0 0.13635138334209232 -0.10446805361231026 0
          -0.004689160341990893 0.021204675026817808 0 0.029946798887755963 -0.002905891344830856 0
          0.8161404024879079 -0.37062060096418636 0 0 0 0
          -0.0013007605310829526 0.006735052239053279 0 -0.004139128318623706 0.01652197356763493 0
          0.6250646108969259 -0.3284371815991626 0 0.7066730467605447 -0.08323552579725416 0
          0 0 0 -0.0013010934223706776 0.00452383236446622 0
          -0.009054591055449998 0.02661648725386413 0 -0.004703313464162992 0.013757682101470232 0
          0.006669286839302954 0.01922075640787429 0 0.4532844886239159 -0.27311567487913707 0
          0.0761661557191023 -0.056168243899698225 0 0 0 0
          -0.0011657558916341724 0.0024405900312178173 0 1.1041490505561269 -0.36474261809407893 0
          -0.004526994450374471 0.009974014155874091 0 -0.009614670089259918 0.020934015915363445 0
          0.29838584604896823 -0.2045734489260602 0 1.1477498558174053 -0.3041554002541787 0
          0 0 0 0.9527239423870872 -0.3749113664742345 0
          -0.004262782398628808 0.00660663620832062 0 -0.00048741698712821284 0.0006327255709066285 0
          0.04582721064807363 -0.021672612577391805 0 -0.009761489931134858 0.014682880928333197 0
          0.15629969798953464 -0.12034273574843547 0 -0.0031970620968622544 0.003496131632613448 0
          0.6725985740145534 -0.3335469509522812 0 -0.00824933603639738 0.01485045210906048 0
          0 0 0 1.0061257352560673 -0.20975289801451863 0
          0.3172491171338257 -0.017650037472419573 0 -0.007990245461132512 0.007122334985102057 0
          -0.015234469757836138 0.015774459561296788 0 -0.01447135505559637 0.014367881541339295 0
          0.10449888948492217 -0.07768671799240079 0 0.4273926988044858 -0.26313276004004577 0
          0 0 0 -0.0037106182978259546 0.0016950569279450033 0
          1.0388200967104804 -0.3356975158943909 0 0.006623873416805913 -0.018351052947078297 0
          -0.014999781491291516 0.008274921606929688 0 -0.013496741720208963 0.0007849272305298969 0
          0.8215429700853696 -0.3425685943603808 0 0.20462885132105424 -0.1555002841201395 0
          0.5511760651857333 -0.0738871916162454 0 -0.01876266126898588 0.006383429349343112 0
          0 0 0 -0.009212826950900975 0.002466019764847359 0
          0.5648000942052072 -0.3023182167841465 0 1.0816437712138671 -0.27818772864159913 0
          0.054902904930544984 -0.06756301412434337 0 0.3486556969208488 -0.23355606602651738 0
          0.0035212699822056094 -0.027076313444018653 0 -0.014199123630483089 -0.007458593002054561 0
          -0.015471000936640672 0.001759282762937253 0 0.9721906695948525 -0.32641134404589905 0
          0 0 0 -0.01773038709771606 0.0004076964348852367 0
          0.7446944479285171 -0.34510893334975656 0 0.48770213918411637 -0.29429295222911106 0
          0 0 0 0.1423392181598057 -0.1358832602421243 0
          0.04233699835196537 -0.06811450622908657 0 0.956009709023906 -0.09877723587140855 0
          0.006028153993452441 -0.032642625256412164 0 -0.013976144599376981 -0.00004660088163716226 0
          -0.009895544901607932 -0.01079619940202181 0 0.2867511255384635 -0.23012866053162415 0
          0 0 0 0.9848736203699067 -0.38772389024794884 0
          -0.00916698922437606 -0.0004963223741413676 0 0.11563273848984817 -0.14091720640062533 0
          0.041262129030882506 -0.06390810992950244 0 0.5661319855314562 -0.42628224489037253 0
          0.007589565840119257 -0.01827030652472799 0 0.260222956258601 -0.2915897108349567 0
          0 0 0 0.04279369871645136 -0.03835228833675191 0
          0.1187844435407973 -0.11772470380448839 0 0 0 0
          <InformationKey name="L2_NORM_RANGE" location="vtkDataArray" length="2">
            <Value index="0">
              0
            </Value>
            <Value index="1">
              1.4147061579
            </Value>
          </InformationKey>
        </DataArray>
        <DataArray type="Float64" Name="Pressure" format="ascii" RangeMin="-8.514306350517971" RangeMax="36.91593897829047">
          36.253915399342475 36.41478200949811 36.73773092328111 36.18937162743251 36.01164408193301 36.779897613565375
          36.0472618598379 35.50002656376733 35.353324164378854 34.59212896533402 36.09901806728024 34.375774437743935
          36.91593897829047 35.298640015313886 34.3809556803031 33.58518614612564 33.431874972935454 34.48808149914543
          36.48827408057846 35.535706457754166 33.29219146565165 34.745608028047435 32.35528474122283 36.88344645030788
          33.48038882872349 32.187589527535835 32.30032804305766 33.9057834173875 31.41514684601729 34.9177641896723
          35.90607581130927 30.855519851113097 36.703832311883744 34.179183850651626 33.061529928905664 31.13770111165618
          30.319186994607854 31.545265486909695 33.51568797616939 35.18915373503608 29.466898702993536 35.609463070492296
          36.72828179714382 34.357471361437305 29.631981935821656 32.11732982445699 30.123655883362453 32.78494202344482
          33.85190821691814 30.74129250421089 34.48335064225724 27.494668986253167 27.82870363637445 28.481200404140413
          33.39383782297025 32.04678990143866 29.315522175038527 33.9918550872975 30.186168550650525 32.76344391859127
          34.72454185669312 27.482931649161152 31.13794036564789 34.09009917868204 25.809943290627732 33.757262091616525