<?xml version="1.0"?>
<VTKFile type="UnstructuredGrid" version="0.1" byte_order="LittleEndian" header_type="UInt32" compressor="vtkZLibDataCompressor">
  <UnstructuredGrid>
    <Piece NumberOfPoints="418" NumberOfCells="757">
      <PointData>
        <DataArray type="Float64" Name="nsi_BC" NumberOfComponents="3" format="ascii" RangeMin="0" RangeMax="1">
          0 0 0 0 0 0
          0 0 0 0 0 0
          0 0 0 1 0 0
          0 0 0 0 0 0
          0 0 0 0 0 0
          0 0 0 0 0 0
          0 0 0 0 0 0
          0 0 0 0 0 0
          0 0 0 0 0 0
          0 0 0 0 0 0
          0 0 0 0 0 0
          0 0 0 0 0 0
          0 0 0 0 0 0
          0 0 0 0 0 0
          0 0 0 0 0 0
          0 0 0 0 0 0
          0 0 0 0 0 0
          0 0 0 0 0 0
          0 0 0 0 0 0
          0 0 0 0 0 0
          0 0 0 0 0 0
          0 0 0 0 0 0
          0 0 0 0 0 0
          0 0 0 0 0 0
          0 0 0 0 0 0
          0 0 0 0 0 0
          0 0 0 0 0 0
          0 0 0 0 0 0
          0 0 0 0 0 0
          0 0 0 0 0 0
          0 0 0 0 0 0
          0 0 0 0 0 0
          0 0 0 0 0 0
          0 0 0 0 0 0
          0 0 0 0 0 0
          0 0 0 0 0 0
          0 0 0 0 0 0
          0 0 0 0 0 0
          0 0 0 0 0 0
          0 0 0 0 0 0
          0 0 0 0 0 0
          0 0 0 0 0 0
          0 0 0 0 0 0
          0 0 0 0 0 0
          0 0 0 0 0 0
          0 0 0 0 0 0
          0 0 0 0 0 0
          0 0 0 0 0 0
          0 0 0 0 0 0
          0 0 0 0 0 0
          0 0 0 0 0 0
          0 0 0 0 0 0
          0 0 0 0 0 0
          0 0 0 0 0 0
          0 0 0 0 0 0
          0 0 0 0 0 0
          0 0 0 0 0 0
          0 0 0 0 0 0
          0 0 0 0 0 0
          0 0 0 0 0 0
          0 0 0 0 0 0
          0 0 0 0 0 0
          0 0 0 0 0 0
          0 0 0 0 0 0
          0 0 0 0 0 0
          0 0 0 0 0 0
          0 0 0 0 0 0
          0 0 0 0 0 0
          0 0 0 0 0 0
          0 0 0 0 0 0
          0 0 0 0 0 0
          0 0 0 0 0 0
          0 0 0 0 0 0
          0 0 0 0 0 0
          0 0 0 0 0 0
          0 0 0 0 0 0
          0 0 0 0 0 0
          0 0 0 0 0 0
          0 0 0 0 0 0
          0 0 0 0 0 0
          0 0 0 0 0 0
          0 0 0 0 0 0
          0 0 0 0 0 0
          0 0 0 0 0 0
          0 0 0 0 0 0
          0 0 0 0 0 0
          0 0 0 0 0 0
          0 0 0 0 0 0
          0 0 0 0 0 0
          0 0 0 0 0 0
          0 0 0 0 0 0
          0 0 0 0 0 0
          0 0 0 0 0 0
          0 0 0 0 0 0
          0 0 0 0 0 0
          0 0 0 0 0 0
          0 0 0 0 0 0
          0 0 0 0 0 0
          0 0 0 0 0 0
          0 0 0 0 0 0
          0 0 0 0 0 0
          0 0 0 0 0 0
          0 0 0 0 0 0
          0 0 0 0 0 0
          0 0 0 0 0 0
          0 0 0 0 0 0
          0 0 0 0 0 0
          0 0 0 0 0 0
          0 0 0 0 0 0
          0 0 0 0 0 0
          0 0 0 0 0 0
          0 0 0 0 0 0
          0 0 0 0 0 0
          0 0 0 0 0 0
          0 0 0 0 0 0
          0 0 0 0 0 0
          0 0 0 0 0 0
          0 0 0 0 0 0
          0 0 0 0 0 0
          0 0 0 0 0 0
          0 0 0 0 0 0
          0 0 0 0 0 0
          0 0 0 0 0 0
          0 0 0 0 0 0
          0 0 0 0 0 0
          0 0 0 0 0 0
          0 0 0 0 0 0
          0 0 0 0 0 0
          0 0 0 0 0 0
          0 0 0 0 0 0
          0 0 0 0 0 0
          0 0 0 0 0 0
          0 0 0 0 0 0
          0 0 0 0 0 0
          0 0 0 0 0 0
          0 0 0 0 0 0
          0 0 0 0 0 0
          0 0 0 0 0 0
          0 0 0 0 0 0
          0 0 0 0 0 0
          0 0 0 0 0 0
          0 0 0 0 0 0
          0 0 0 0 0 0
          0 0 0 0 0 0
          0 0 0 0 0 0
          0 0 0 0 0 0
          0 0 0 0 0 0
          0 0 0 0 0 0
          0 0 0 0 0 0
          0 0 0 0 0 0
          0 0 0 0 0 0
          0 0 0 0 0 0
          0 0 0 0 0 0
          0 0 0 0 0 0
          0 0 0 0 0 0
          0 0 0 0 0 0
          0 0 0 0 0 0
          0 0 0 0 0 0
          0 0 0 0 0 0
          0 0 0 0 0 0
          0 0 0 0 0 0
          0 0 0 0 0 0
          0 0 0 0 0 0
          0 0 0 0 0 0
          0 0 0 0 0 0
          0 0 0 0 0 0
          0 0 0 0 0 0
          0 0 0 0 0 0
          0 0 0 0 0 0
          0 0 0 0 0 0
          0 0 0 0 0 0
          0 0 0 0 0 0
          0 0 0 0 0 0
          0 0 0 0 0 0
          0 0 0 0 0 0
          0 0 0 0 0 0
          0 0 0 0 0 0
          0 0 0 0 0 0
          0 0 0 0 0 0
          0 0 0 0 0 0
          0 0 0 0 0 0
          0 0 0 0 0 0
          0 0 0 0 0 0
          0 0 0 0 0 0
          0 0 0 0 0 0
          0 0 0 0 0 0
          0 0 0 0 0 0
          0 0 0 0 0 0
          0 0 0 0 0 0
          0 0 0 0 0 0
          0 0 0 0 0 0
          0 0 0 0 0 0
          0 0 0 0 0 0
          0 0 0 0 0 0
          0 0 0 0 0 0
          0 0 0 0 0 0
          0 0 0 0 0 0
          0 0 0 0 0 0
          0 0 0 0 0 0
          0 0 0 0 0 0
          0 0 0 0 0 0
          0 0 0 0 0 0
          0 0 0 0 0 0
          0 0 0 0 0 0
          0 0 0 0 0 0
          0 0 0 0 0 0
          0 0 0 0 0 0
          0 0 0 0 0 0
          0 0 0 0 0 0
          <InformationKey name="L2_NORM_RANGE" location="vtkDataArray" length="2">
            <Value index="0">
              0
            </Value>
            <Value index="1">
              1
            </Value>
          </InformationKey>
        </DataArray>
        <DataArray type="Float64" Name="nsi_FIXNO" NumberOfComponents="3" format="ascii" RangeMin="1.4142135623730951" RangeMax="1.4142135623730951">
          1 1 0 -1 -1 0
          -1 -1 0 -1 -1 0
          1 1 0 1 1 0
          -1 -1 0 -1 -1 0
          -1 -1 0 -1 -1 0
          -1 -1 0 -1 -1 0
          -1 -1 0 -1 -1 0
          -1 -1 0 1 1 0
          -1 -1 0 -1 -1 0
          -1 -1 0 -1 -1 0
          -1 -1 0 -1 -1 0
          -1 -1 0 -1 -1 0
          -1 -1 0 -1 -1 0
          -1 -1 0 -1 -1 0
          -1 -1 0 -1 -1 0
          -1 -1 0 -1 -1 0
          1 1 0 -1 -1 0
          -1 -1 0 -1 -1 0
          1 1 0 -1 -1 0
          -1 -1 0 -1 -1 0
          -1 -1 0 -1 -1 0
          1 1 0 -1 -1 0
          -1 -1 0 -1 -1 0
          -1 -1 0 -1 -1 0
          -1 -1 0 -1 -1 0
          -1 -1 0 -1 -1 0
          -1 -1 0 -1 -1 0
          -1 -1 0 -1 -1 0
          -1 -1 0 -1 -1 0
          -1 -1 0 -1 -1 0
          1 1 0 -1 -1 0
          -1 -1 0 -1 -1 0
          -1 -1 0 -1 -1 0
          -1 -1 0 -1 -1 0
          -1 -1 0 1 1 0
          -1 -1 0 -1 -1 0
          -1 -1 0 -1 -1 0
          -1 -1 0 -1 -1 0
          -1 -1 0 -1 -1 0
          -1 -1 0 -1 -1 0
          -1 -1 0 -1 -1 0
          -1 -1 0 -1 -1 0
          -1 -1 0 -1 -1 0
          -1 -1 0 -1 -1 0
          1 1 0 -1 -1 0
          -1 -1 0 -1 -1 0
          -1 -1 0 -1 -1 0
          -1 -1 0 -1 -1 0
          -1 -1 0 -1 -1 0
          -1 -1 0 -1 -1 0
          -1 -1 0 -1 -1 0
          -1 -1 0 -1 -1 0
          -1 -1 0 -1 -1 0
          -1 -1 0 -1 -1 0
          -1 -1 0 -1 -1 0
          -1 -1 0 -1 -1 0
          -1 -1 0 -1 -1 0
          -1 -1 0 -1 -1 0
          -1 -1 0 -1 -1 0
          -1 -1 0 -1 -1 0
          -1 -1 0 1 1 0
          -1 -1 0 -1 -1 0
          -1 -1 0 -1 -1 0
          -1 -1 0 -1 -1 0
          -1 -1 0 -1 -1 0
          -1 -1 0 -1 -1 0
          -1 -1 0 -1 -1 0
          -1 -1 0 -1 -1 0
          -1 -1 0 -1 -1 0
          -1 -1 0 -1 -1 0
          -1 -1 0 -1 -1 0
          -1 -1 0 -1 -1 0
          -1 -1 0 -1 -1 0
          -1 -1 0 -1 -1 0
          1 1 0 -1 -1 0
          -1 -1 0 -1 -1 0
          -1 -1 0 -1 -1 0
          -1 -1 0 -1 -1 0
          -1 -1 0 -1 -1 0
          -1 -1 0 1 1 0
          -1 -1 0 -1 -1 0
          1 1 0 -1 -1 0
          1 1 0 -1 -1 0
          -1 -1 0 -1 -1 0
          -1 -1 0 1 1 0
          -1 -1 0 -1 -1 0
          -1 -1 0 -1 -1 0
          1 1 0 -1 -1 0
          1 1 0 -1 -1 0
          -1 -1 0 -1 -1 0
          -1 -1 0 -1 -1 0
          -1 -1 0 -1 -1 0
          1 1 0 -1 -1 0
          -1 -1 0 1 1 0
          1 1 0 -1 -1 0
          -1 -1 0 -1 -1 0
          -1 -1 0 -1 -1 0
          -1 -1 0 1 1 0
          -1 -1 0 -1 -1 0
          -1 -1 0 -1 -1 0
          -1 -1 0 -1 -1 0
          1 1 0 1 1 0
          -1 -1 0 1 1 0
          -1 -1 0 -1 -1 0
          -1 -1 0 -1 -1 0
          1 1 0 -1 -1 0
          -1 -1 0 -1 -1 0
          -1 -1 0 -1 -1 0
          1 1 0 -1 -1 0
          -1 -1 0 -1 -1 0
          1 1 0 -1 -1 0
          -1 -1 0 1 1 0
          1 1 0 -1 -1 0
          -1 -1 0 -1 -1 0
          -1 -1 0 -1 -1 0
          -1 -1 0 -1 -1 0
          -1 -1 0 1 1 0
          1 1 0 -1 -1 0
          1 1 0 1 1 0
          -1 -1 0 -1 -1 0
          1 1 0 -1 -1 0
          -1 -1 0 -1 -1 0
          -1 -1 0 1 1 0
          -1 -1 0 -1 -1 0
          -1 -1 0 1 1 0
          -1 -1 0 1 1 0
          -1 -1 0 -1 -1 0
          -1 -1 0 -1 -1 0
          -1 -1 0 -1 -1 0
          -1 -1 0 1 1 0
          1 1 0 -1 -1 0
          1 1 0 -1 -1 0
          1 1 0 -1 -1 0
          -1 -1 0 -1 -1 0
          1 1 0 -1 -1 0
          -1 -1 0 -1 -1 0
          -1 -1 0 -1 -1 0
          1 1 0 1 1 0
          -1 -1 0 -1 -1 0
          -1 -1 0 -1 -1 0
          -1 -1 0 -1 -1 0
          1 1 0 -1 -1 0
          -1 -1 0 -1 -1 0
          1 1 0 -1 -1 0
          1 1 0 1 1 0
          -1 -1 0 -1 -1 0
          -1 -1 0 -1 -1 0
          -1 -1 0 1 1 0
          1 1 0 -1 -1 0
          -1 -1 0 -1 -1 0
          -1 -1 0 1 1 0
          -1 -1 0 1 1 0
          -1 -1 0 -1 -1 0
          1 1 0 -1 -1 0
          -1 -1 0 1 1 0
          -1 -1 0 -1 -1 0
          1 1 0 -1 -1 0
          1 1 0 -1 -1 0
          -1 -1 0 1 1 0
          -1 -1 0 -1 -1 0
          -1 -1 0 -1 -1 0
          -1 -1 0 1 1 0
          -1 -1 0 -1 -1 0
          -1 -1 0 -1 -1 0
          -1 -1 0 -1 -1 0
          1 1 0 -1 -1 0
          -1 -1 0 -1 -1 0
          -1 -1 0 -1 -1 0
          -1 -1 0 1 1 0
          -1 -1 0 -1 -1 0
          -1 -1 0 -1 -1 0
          1 1 0 -1 -1 0
          -1 -1 0 -1 -1 0
          -1 -1 0 -1 -1 0
          -1 -1 0 1 1 0
          -1 -1 0 -1 -1 0
          -1 -1 0 -1 -1 0
          -1 -1 0 -1 -1 0
          1 1 0 -1 -1 0
          -1 -1 0 -1 -1 0
          -1 -1 0 -1 -1 0
          -1 -1 0 -1 -1 0
          -1 -1 0 -1 -1 0
          1 1 0 -1 -1 0
          -1 -1 0 -1 -1 0
          -1 -1 0 -1 -1 0
          -1 -1 0 -1 -1 0
          1 1 0 -1 -1 0
          -1 -1 0 -1 -1 0
          -1 -1 0 -1 -1 0
          -1 -1 0 -1 -1 0
          -1 -1 0 -1 -1 0
          1 1 0 -1 -1 0
          -1 -1 0 -1 -1 0
          -1 -1 0 -1 -1 0
          -1 -1 0 -1 -1 0
          -1 -1 0 -1 -1 0
          1 1 0 -1 -1 0
          -1 -1 0 -1 -1 0
          1 1 0 -1 -1 0
          -1 -1 0 -1 -1 0
          -1 -1 0 -1 -1 0
          -1 -1 0 -1 -1 0
          1 1 0 -1 -1 0
          -1 -1 0 -1 -1 0
          -1 -1 0 -1 -1 0
          -1 -1 0 -1 -1 0
          1 1 0 -1 -1 0
          -1 -1 0 1 1 0
          <InformationKey name="L2_NORM_RANGE" location="vtkDataArray" length="2">
            <Value index="0">
              1.4142135624
            </Value>
            <Value index="1">
              1.4142135624
            </Value>
          </InformationKey>
        </DataArray>
        <DataArray type="Float64" Name="Velocity" NumberOfComponents="3" format="ascii" RangeMin="0" RangeMax="1.4107043247886548">
          0 0 0 0.3261395971987568 0.029009530213765313 0
          0.728944942761055 0.11923351129475367 0 0.5349544696542916 0.057422607460123905 0
          0 0 0 1 0 0
          0.6959785050973727 0.044012859352918106 0 0.4011172654968648 0.034504600324599656 0
          0.6411983446883425 0.05230237473118982 0 0.3522118032036269 0.005896649473367262 0
          0.6436375489118257 0.016911736208345338 0 0.5849080805910442 0.042202238480456906 0
          0.6991321416443574 -0.10254956343509938 0 0.661287651615626 0.03328770839310974 0
          0.6521825799399141 0.05247405781293189 0 0 0 0
          0.5558965247939308 0.02369158115364331 0 0.6591304619946617 0.05749564393486618 0
          0.6122774014268227 -0.024739009319404235 0 0.6234811182552584 0.024772629124194246 0
          0.6585972980731133 0.05619725776055948 0 0.6313036890934425 0.05114888586293219 0
          0.4686308021474314 0.03658458259883839 0 0.3475983120069297 -0.03151461326309633 0
          0.6712444344599886 0.09087713784203433 0 0.6673271153505015 0.07328278786421975 0
          0.7105024093367109 0.10885434448822978 0 0.6385246305849569 0.08839048630094133 0
          0.3561614775068431 0.01042291119172938 0 0.5658156365247685 0.03382723438266058 0
          0.46884145978021935 -0.01591853162798439 0 0.6386513419816103 0.08520004116452111 0
          0 0 0 0.5863785454046446 0.0705357086691758 0
          0.6531128482515226 0.14335318905289562 0 0.7480249278812844 0.141103744364212 0
          0 0 0 0.7283441012801971 0.17555692639317555 0
          0.5950610270637134 0.12710848559612123 0 0.36650351250141 0.004771000130675202 0
          0.6066307549409928 0.07924878075213468 0 0.2269173916508968 0.0047715365593160785 0
          0 0 0 0.4906244236262557 0.04268198689708385 0
          0.772980240634435 0.16799248114626825 0 0.68147948774486 0.20645743490069113 0
          0.7898976439324601 0.22428636938688312 0 0.6092296744321143 0.19647406339821744 0
          0.5168216459569029 0.090110722103405 0 0.7468251724174835 0.2610122107751838 0
          0.3581688444895891 0.022320388657735155 0 0.4898522123239294 0.02083789095894174 0
          0.8145490772664192 0.13727120007872745 0 0.8539036318166394 0.25186808551139567 0
          0.5274097659709412 0.16298388568698904 0 0.6237112583955836 0.27859322072843795 0
          0.8156295700529117 0.31715899534802133 0 0.3994244057541458 0.04744639422887662 0
          0.736152559132656 0.3505636762282313 0 0.5446880452109629 0.2504322407529194 0
          0 0 0 0.9068454888091111 0.33806016934793554 0
          0.6473064122963943 0.3646959187782091 0 0.22554609963920982 0.011081561782277448 0
          0.9812377033908068 0.21252781113552632 0 0.4097017654582837 0.09642668445886105 0
          0.45258572319356116 0.19658736051664125 0 0.8199152280580687 0.4059552012843597 0
          0.5460302522171514 0.3352048392561568 0 0 0 0
          0.7671197820464029 0.08913233724571909 0 0.4505528250739378 0.2788977177004038 0
          0.6915633843743204 0.4597481931042271 0 1.025480797620117 0.33447283022494523 0
          0.9229751224610667 0.4458461017209257 0 0.36052172825014 0.1372208499387347 0
          0.26778375784311803 0.037437950326530293 0 0.5302233145770479 0.42633687016530036 0
          0.8075544623193569 0.5089325791794028 0 1.1035345917081973 0.26214169873873705 0
          0.44239782808763284 0.36370541256505773 0 0.6883508222049265 0.5225350932724556 0
          0.35626101397312593 0.2091253860037806 0 0.2951416791861609 0.07242847391511263 0
          1.0357141198778357 0.17412379819850973 0 0.5759416919380049 0.5160200633491556 0
          0.9308210665333976 0.520722529422436 0 0.3425764580270345 0.2886789837612286 0
          0 0 0 0.8435402988451112 0.07478978245388507 0
          1.168256698642878 0.36309009097040307 0 0.7631476648772404 0.5778929957150393 0
          0.4190352656329463 0.4557306984206439 0 0.6183545254986448 0.5792050969018826 0
          1.2118751427260586 0.25428293564005033 0 0.2707381666169885 0.14032637817304747 0
          0.3093653679975486 0.3475811295869652 0 0.16447446203111535 0.01927741283785316 0
          0.2653759016628138 0.21664570850615736 0 0.4797909668927559 0.008295227658222444 0
          0.9200165905697338 0.5747323876375859 0 0.4067744341331621 0.5193699003519223 0
          1.1332113106614157 0.4658481670970251 0 0.2529337321351243 0.28947021309097754 0
          0.6844893127606284 0.6137983309818587 0 0.27353156284529795 0.3949163118938219 0
          1.162912507034728 0.12391738445435957 0 1.2801437279347876 0.31233160883646555 0
          0.1877794715411421 0.05388214985938754 0 0.5106664758167289 0.5941495339760003 0
          0.8040241732698926 0.59169539271509 0 0.20450243318997688 0.3184252152541872 0
          0.3170183889826476 0.4983724023745942 0 1.0820126327860582 0.4908569493470959 0
          0.9167053982362043 0.02053091140047038 0 0.17824187838475644 0.09019381416915652 0
          0.5540113736706831 0.5880560487642197 0 0.21288690628978282 0.39736138137040855 0
          1.2687051820459494 0.3488110551417135 0 1.3357573216022438 0.17496979724998088 0
          0.168798154839873 0.15974753184880003 0 0 0 0
          0.163448407863185 0.24037712430163893 0 0.32200601723810657 0.5171618638995155 0
          1.3472460278640825 0.24276393697007892 0 0.16728628534902198 0.33009907192534327 0
          0.08451776401394624 0.010674712719009197 0 0.661018172131062 0.5276851804004251 0
          0.15211687644552366 0.3681798242314246 0 0.9983396553918992 0.43150754608774905 0
          0.3644982866301091 0.4808182389175518 0 0.11457808334549693 0.24591983883832538 0
          1.1917946647592255 0.3373628388328902 0 0.11429463061730691 0.04099698735505808 0
          0.120937186883554 0.17087354752976366 0 1.2377240249295678 0.043419508639775416 0
          1.320459566845422 0.24309662224114184 0 0.16086328512971232 0.37000575238064537 0
          0.08510126582536932 0.23462061126866438 0 1.3978805838426296 0.13324042425392305 0
          0.43404127635505335 0.3712745545959315 0 0.10678221241454171 0.1297324513166066 0
          0.07254348626601596 0.26704941457630943 0 0.10370101822594434 0.05986435969661363 0
          0.7775674675403267 0.31467553018411204 0 0.08798434893197672 0.17233923567823928 0
          0.06739754541477606 0.24206765506334332 0 0.07040853573566208 0.23696954848695279 0
          0 0 0 0.08449610877583252 0.22989668291190357 0
          1.0126751388561697 0.25358087513075506 0 1.3850041438579537 0.05917541145697677 0
          1.2125196946032517 0.20185463175983046 0 0.04064980971602292 0.16878119624781623 0
          0.08279929828793908 0.08253282875924042 0 0.05038242072778311 0.15877845746264072 0
          0.9163201514195793 0.0005919355268278165 0 0.032166781380217536 0.1671510421010074 0
          0.02132307580575411 0.13593942998104266 0 0 0 0
          0.06708058021501458 0.1214744681774777 0 0.4073769461153887 0.07087457180054303 0
          0 0 0 0.7209794777501817 0.11123749408811728 0
          0 0 0 0.01743501144932469 0.10684601920909467 0
          0.0301071792039868 0.13596366005562324 0 0.06093968466888392 0.0192978204862358 0
          1.3437996216202461 0.047147280220711026 0 0 0 0
          0.011074578597695062 0.08321522831199424 0 0.056727694074449796 0.08394823019646096 0
          0.9509293945624574 0.06689767043935108 0 0.03781173453808897 0.10738501551065359 0
          0 0 0 0.02000415169788277 0.10146830404241976 0
          0 0 0 1.4106313810289874 -0.014345690421376399 0
          0.36079805417102456 0.027197300338070968 0 0.006712040640293556 0.06989868882990359 0
          1.1556875257073584 0.010158164712489827 0 0.019777111232414206 0.09263237545106875 0
          0.6917873194120642 0.03479403495222049 0 0.051547027912563326 0.03349275409724487 0
          0 0 0 0.007218034117853652 0.05712777161069267 0
          1.3844015314146287 -0.04766299900985598 0 0 0 0
          0 0 0 0.015918392968266186 0.06806349026517307 0
          0.039374130986577674 0.04185802284137732 0 0.0052615324482369 0.0477895231265951 0
          0.025600881091582012 0.06393631576823214 0 0.3441316933548171 -0.0024423646425889745 0
          0.015293654887167637 0.06087468192667508 0 0 0 0
          1.2292244531055019 -0.05826916410298128 0 0.681976950499617 -0.033281033180428514 0
          0.9725080698513853 -0.07691449794373255 0 0.004970415665791327 0.03888433438049939 0
          1.1817008089717917 -0.12719294758084707 0 0.02919522987972588 0.009122138846578283 0
          0 0 0 0 0 0
          0.02221109899163505 0.04014642940452471 0 0 0 0
          1.3243870222967675 -0.14962207830442975 0 0.01103814639794103 0.04235197988885877 0
          0.004422693036825562 0.031253039570582376 0 0.35452056808100796 -0.032237225698990554 0
          0 0 0 1.3791588921255162 -0.15504437806277516 0
          0.010830068638268043 0.034296459053910745 0 0.7044004014454136 -0.14864164263106233 0
          0.021414236016825985 0.01681112689902689 0 0.003717645354505786 0.02421565730956426 0
          0 0 0 0.9609463798090584 -0.20889929741468768 0
          0.007861147479548572 0.02778947131179495 0 1.3422834370590424 -0.14513012347134294 0
          0 0 0 0.003551627911625934 0.018668012395275206 0
          1.1544418369092375 -0.24311243909994748 0 0 0 0
          0 0 0 0.41410772421759895 -0.20244018438355327 0
          0.011515161722511578 0.016133421932282357 0 0.0077958645226362455 0.019455400217293604 0
          0.9220760911295097 -0.054126620851394566 0 0.002345150983398917 0.013498987329783678 0
          1.282284978274694 -0.249803664302209 0 1.1777365844108962 -0.10699975772371562 0
          0.011606983375371579 0.0038734677894558334 0 0 0 0
          0 0 0 0.7032076524497933 -0.28836509160126717 0
          0 0 0 0 0 0
          0.0015897990047366243 0.009947106113496572 0 0.05074346504323172 -0.10739271365018327 0
          0 0 0 0.005056823851754233 0.011746491463233921 0
          1.3322278567716364 -0.23993114913668923 0 0.9298008044553953 -0.33244264755537395 0
          0.007484437912559687 0.00558397640589258 0 0 0 0
          0.028116375999182295 -0.06309691700495434 0 0.0018064540686657366 0.006541012848020657 0
          0.004478170354220632 0.007617612937251839 0 0 0 0
          0.016129107468566266 -0.03564299570414437 0 0 0 0
          0.3303323845349748 -0.2750909877383685 0 1.2800199787042186 -0.19818276439741395 0
          0.002618260839699705 0.0046803935440807585 0 1.0713559037112002 -0.36824974424704765 0
          0.006898865192145387 -0.01688178294509457 0 0.004047922016299589 0.0012776725377537902 0
          0.0015308633476567653 0.004128535850714455 0 0 0 0
          0 0 0 0.109341070111143 -0.17019886738421683 0
          0 0 0 0.002442239935081164 -0.01048855141618962 0
          0 0 0 1.2112618001398712 -0.3439938793253993 0
          0.06922394640363619 -0.11817939446118476 0 0.002512442077715455 0.0021137520932452327 0
          0 0 0 0.0008449513692271248 0.0020718247100917804 0
          0.24796853231318347 -0.007447023402365434 0 0.5648352080334029 -0.3705523986732247 0
          0.0018102091038807086 -0.0063197983668591105 0 1.1218159143881816 -0.15052723047016225 0
          0 0 0 0 0 0
          0.0018814466232858521 -0.0039003385026404524 0 0.000609102957413757 0.0009945155323485351 0
          0.3072081700250979 -0.30315882900757746 0 0.018794273789937335 -0.058607775344368514 0
          0.05637507531980264 -0.10693037788209184 0 0.7915653113386542 -0.41801273275413703 0
          0 0 0 1.2488246402519103 -0.29333728229902256 0
          0.1474401804212037 -0.2068693840364258 0 0.0010715350064021962 -0.0012840452279289636 0
          0 0 0 0.012403287296238163 -0.041386337670019854 0
          0 0 0 0 0 0
          0.007054594509657537 -0.023721383101943563 0 0.0003271594296381017 -0.000038584842101065706 0
          0.0004887399379503592 0.00018612028200507415 0 0.007062445406561372 -0.017335836619187393 0
          0.7686537755740416 -0.09125349919062455 0 0 0 0
          0 0 0 0.498554391553729 -0.3926698974877353 0
          0.0009024965130707293 0.0017372598738253477 0 0.9365151804663345 -0.42503432089449694 0
          1.1894633758976858 -0.2390429877075335 0 0 0 0
          0.03980122997565967 -0.09518067827383553 0 0 0 0
          0.3202792172747969 -0.3298518820305097 0 0.0042952689921494655 -0.013152944367799593 0
          0 0 0 0.0007708677416058316 0.0029250849039805142 0
          0.019820954159259187 -0.04828556631447239 0 0 0 0
          0.004395492383625853 -0.0073982692285375325 0 0.1687684160195269 -0.23010074395129806 0
          0 0 0 0.00024204727257755114 0.0037188886097037355 0
          0 0 0 0.003178941728240897 -0.0022458058149008634 0
          0.6631377644214326 -0.4339785310712926 0 0 0 0
          -0.0000797702187722828 0.003887045595207374 0 0.0022637614918158432 0.0004620482628364741 0
          1.0448816949357749 -0.16117442707666854 0 0.4776306180186837 -0.39571192360505486 0
          0.015680964984889148 -0.03150505925047626 0 0 0 0
          0.00019725010022506216 0.004224117435895242 0 1.1484350553003608 -0.3245349813456731 0
          0.0647528796934257 -0.11906352146137925 0 0.0007459358158767814 0.0016891451552789563 0
          1.000026316924181 -0.41940166190047456 0 0.31098797525079447 -0.3263055845390435 0
          0 0 0 -0.00000756057272208173 0.004449211875257299 0
          0.007965068630781636 -0.01302095713624834 0 0.1525798230700625 -0.21501527961219188 0
          0.0011119317007278863 0.00355956449461452 0 0.04872323629372913 -0.08647022291400902 0
          0.7950650657012859 -0.4414615066422023 0 0 0 0
          -0.0004159415671047336 0.004025180359077538 0 0.0008876787675529921 0.004847485044649708 0
          0.6177029057362639 -0.4153241653522427 0 0.6864203535060035 -0.07606942247202074 0
          0 0 0 -0.0005433721351763007 0.003223914500338005 0
          0.005018227460473455 -0.003569735853109703 0 -0.0005810593420815061 0.005355779114347175 0
          0.030112608032474935 -0.048436396191990395 0 0.4571843482601416 -0.3724454923100079 0
          0.10226537375578065 -0.15388159099186205 0 0 0 0
          -0.000785025523049209 0.002075116099383003 0 1.0356028805005908 -0.37050914552287184 0
          -0.0013145998146369554 0.004973791275237691 0 0.0029327839664480644 0.0012207851913973308 0
          0.31369933507654135 -0.3083250457320988 0 1.0768982899961779 -0.2892975590473137 0
          0 0 0 0.898177361145944 -0.40105917092952287 0
          -0.002011198924444107 0.003721978405341696 0 -0.0004408486132885961 0.0006883565920964479 0
          0.08078755191946488 -0.10391265852337002 0 -0.0007197278849713435 0.0031345965531732376 0
          0.18619126683955622 -0.21760612987449576 0 -0.002097590610458893 0.002292067365670143 0
          0.6492255755542794 -0.39203073184694626 0 0.02616614681971343 -0.03798826895300919 0
          0 0 0 0.9682654480711302 -0.19281572721158374 0
          0.3120781409272889 -0.01749053870458239 0 -0.0034836653756900164 0.0028082708958865102 0
          0.013401507817704545 -0.018201083985405847 0 0.005649489478455332 -0.006644859684616482 0
          0.146937741381515 -0.16220780640357677 0 0.4323247583173782 -0.3301243724348446 0
          0 0 0 -0.002244001278018899 0.0009151358393960825 0
          0.958808948308661 -0.31513887966664295 0 0.05971258640335743 -0.07877945391106718 0
          -0.0022781894089214847 -0.0010128945876483517 0 0.03290049673001249 -0.040370525423198265 0
          0.7642708070277419 -0.34232259789795216 0 0.24609296158202135 -0.222703706046612 0
          0.5416608037809738 -0.07304489433443781 0 0.01663905847280839 -0.01860934456329439 0
          0 0 0 -0.0036719864634914374 0.00012509245255191664 0
          0.5471117284177378 -0.3139521594370116 0 1.0029945622126644 -0.2338829977916021 0
          0.12314833640694016 -0.11607760708571611 0 0.37444418504237204 -0.2609760900051779 0
          0.07005339438979029 -0.06577135336225105 0 0.038872893589197446 -0.03235919898053146 0
          -0.001904568188406645 -0.001408267492130297 0 0.8860680763733384 -0.28246845785803365 0
          0 0 0 0.015714855863475635 -0.012805157353589452 0
          0.6908615953755326 -0.3009931859378235 0 0.4868278202948906 -0.2703102018188535 0
          0 0 0 0.21583943587845156 -0.15162834199138664 0
          0.12425838161820402 -0.08861785931610502 0 0.9464012220543884 -0.08818177607161183 0
          0.07681289471898246 -0.04811479387310113 0 0.004697957188028254 -0.004838417098829817 0
          0.03718964192085032 -0.020205353217231516 0 0.33926669641892193 -0.20859738950358736 0
          0 0 0 0.8933568302848595 -0.32588145727673123 0
          0.014571994049895816 -0.002302085451330966 0 0.20140253810849174 -0.1298150877209712 0
          0.12164655097314803 -0.06246231051150691 0 0.5505788546393143 -0.3404453407747173 0
          0.04485199985430853 -0.01651984079838689 0 0.3240389710697957 -0.23504032154877413 0
          0 0 0 0.09955567045718682 -0.034500688560620475 0
          0.18801301252740762 -0.10679561408037487 0 0 0 0
          <InformationKey name="L2_NORM_RANGE" location="vtkDataArray" length="2">
            <Value index="0">
              0
            </Value>
            <Value index="1">
              1.4107043248
            </Value>
          </InformationKey>
        </DataArray>
        <DataArray type="Float64" Name="Pressure" format="ascii" RangeMin="-9.260306580439623" RangeMax="37.17849996803809">
          36.65079639408467 36.872379923295796 36.83467446441834 36.63683546233947 36.6661034397182 36.543415161466385
          36.39501197543165 36.137260989511205 35.84291339272761 35.209276027717394 36.38019754339639 34.942186649354745
          36.90816606891403 35.682673011467706 34.882821054841294 34.21661208939446 34.10895370856771 34.963870215625874
          36.71589863758373 35.92523475521583 33.869710498730605 35.1901546997262 32.924620844920184 37.14999783639812
          33.985466726837004 32.733311509018726 32.82035463294534 34.37205720180531 31.886730434868856 35.37574125546204
          36.36667484667904 31.30681094987173 36.90393900619016 34.643385265236866 33.51954514362448 31.628489351650433
          30.70922958006528 32.01398271234435 33.96018591131111 35.60445378729768 29.856327885851876 36.06417670017417
          37.17849996803809 34.85977026163112 30.068486039613635 32.5746936434674 30.606059696113586 33.222636033570055
          34.33136605773108 31.17879787823077 35.040033666224836 27.7666438489591 28.179675022017708 28.948348616366637
          33.8512168722151 32.49333566285416 29.778148117013867 34.54599208254598 30.602011045811924 33.20416889619763
          35.17086337716296 27.96362224448193 31.579800292603185 34.66077345807775 26.197718126993312 34.322465639592764