<?xml version="1.0"?>
<VTKFile type="UnstructuredGrid" version="0.1" byte_order="LittleEndian" header_type="UInt32" compressor="vtkZLibDataCompressor">
  <UnstructuredGrid>
    <Piece NumberOfPoints="418" NumberOfCells="757">
      <PointData>
        <DataArray type="Float64" Name="nsi_BC" NumberOfComponents="3" format="ascii" RangeMin="0" RangeMax="1">
          0 0 0 0 0 0
          0 0 0 0 0 0
          0 0 0 1 0 0
          0 0 0 0 0 0
          0 0 0 0 0 0
          0 0 0 0 0 0
          0 0 0 0 0 0
          0 0 0 0 0 0
          0 0 0 0 0 0
          0 0 0 0 0 0
          0 0 0 0 0 0
          0 0 0 0 0 0
          0 0 0 0 0 0
          0 0 0 0 0 0
          0 0 0 0 0 0
          0 0 0 0 0 0
          0 0 0 0 0 0
          0 0 0 0 0 0
          0 0 0 0 0 0
          0 0 0 0 0 0
          0 0 0 0 0 0
          0 0 0 0 0 0
          0 0 0 0 0 0
          0 0 0 0 0 0
          0 0 0 0 0 0
          0 0 0 0 0 0
          0 0 0 0 0 0
          0 0 0 0 0 0
          0 0 0 0 0 0
          0 0 0 0 0 0
          0 0 0 0 0 0
          0 0 0 0 0 0
          0 0 0 0 0 0
          0 0 0 0 0 0
          0 0 0 0 0 0
          0 0 0 0 0 0
          0 0 0 0 0 0
          0 0 0 0 0 0
          0 0 0 0 0 0
          0 0 0 0 0 0
          0 0 0 0 0 0
          0 0 0 0 0 0
          0 0 0 0 0 0
          0 0 0 0 0 0
          0 0 0 0 0 0
          0 0 0 0 0 0
          0 0 0 0 0 0
          0 0 0 0 0 0
          0 0 0 0 0 0
          0 0 0 0 0 0
          0 0 0 0 0 0
          0 0 0 0 0 0
          0 0 0 0 0 0
          0 0 0 0 0 0
          0 0 0 0 0 0
          0 0 0 0 0 0
          0 0 0 0 0 0
          0 0 0 0 0 0
          0 0 0 0 0 0
          0 0 0 0 0 0
          0 0 0 0 0 0
          0 0 0 0 0 0
          0 0 0 0 0 0
          0 0 0 0 0 0
          0 0 0 0 0 0
          0 0 0 0 0 0
          0 0 0 0 0 0
          0 0 0 0 0 0
          0 0 0 0 0 0
          0 0 0 0 0 0
          0 0 0 0 0 0
          0 0 0 0 0 0
          0 0 0 0 0 0
          0 0 0 0 0 0
          0 0 0 0 0 0
          0 0 0 0 0 0
          0 0 0 0 0 0
          0 0 0 0 0 0
          0 0 0 0 0 0
          0 0 0 0 0 0
          0 0 0 0 0 0
          0 0 0 0 0 0
          0 0 0 0 0 0
          0 0 0 0 0 0
          0 0 0 0 0 0
          0 0 0 0 0 0
          0 0 0 0 0 0
          0 0 0 0 0 0
          0 0 0 0 0 0
          0 0 0 0 0 0
          0 0 0 0 0 0
          0 0 0 0 0 0
          0 0 0 0 0 0
          0 0 0 0 0 0
          0 0 0 0 0 0
          0 0 0 0 0 0
          0 0 0 0 0 0
          0 0 0 0 0 0
          0 0 0 0 0 0
          0 0 0 0 0 0
          0 0 0 0 0 0
          0 0 0 0 0 0
          0 0 0 0 0 0
          0 0 0 0 0 0
          0 0 0 0 0 0
          0 0 0 0 0 0
          0 0 0 0 0 0
          0 0 0 0 0 0
          0 0 0 0 0 0
          0 0 0 0 0 0
          0 0 0 0 0 0
          0 0 0 0 0 0
          0 0 0 0 0 0
          0 0 0 0 0 0
          0 0 0 0 0 0
          0 0 0 0 0 0
          0 0 0 0 0 0
          0 0 0 0 0 0
          0 0 0 0 0 0
          0 0 0 0 0 0
          0 0 0 0 0 0
          0 0 0 0 0 0
          0 0 0 0 0 0
          0 0 0 0 0 0
          0 0 0 0 0 0
          0 0 0 0 0 0
          0 0 0 0 0 0
          0 0 0 0 0 0
          0 0 0 0 0 0
          0 0 0 0 0 0
          0 0 0 0 0 0
          0 0 0 0 0 0
          0 0 0 0 0 0
          0 0 0 0 0 0
          0 0 0 0 0 0
          0 0 0 0 0 0
          0 0 0 0 0 0
          0 0 0 0 0 0
          0 0 0 0 0 0
          0 0 0 0 0 0
          0 0 0 0 0 0
          0 0 0 0 0 0
          0 0 0 0 0 0
          0 0 0 0 0 0
          0 0 0 0 0 0
          0 0 0 0 0 0
          0 0 0 0 0 0
          0 0 0 0 0 0
          0 0 0 0 0 0
          0 0 0 0 0 0
          0 0 0 0 0 0
          0 0 0 0 0 0
          0 0 0 0 0 0
          0 0 0 0 0 0
          0 0 0 0 0 0
          0 0 0 0 0 0
          0 0 0 0 0 0
          0 0 0 0 0 0
          0 0 0 0 0 0
          0 0 0 0 0 0
          0 0 0 0 0 0
          0 0 0 0 0 0
          0 0 0 0 0 0
          0 0 0 0 0 0
          0 0 0 0 0 0
          0 0 0 0 0 0
          0 0 0 0 0 0
          0 0 0 0 0 0
          0 0 0 0 0 0
          0 0 0 0 0 0
          0 0 0 0 0 0
          0 0 0 0 0 0
          0 0 0 0 0 0
          0 0 0 0 0 0
          0 0 0 0 0 0
          0 0 0 0 0 0
          0 0 0 0 0 0
          0 0 0 0 0 0
          0 0 0 0 0 0
          0 0 0 0 0 0
          0 0 0 0 0 0
          0 0 0 0 0 0
          0 0 0 0 0 0
          0 0 0 0 0 0
          0 0 0 0 0 0
          0 0 0 0 0 0
          0 0 0 0 0 0
          0 0 0 0 0 0
          0 0 0 0 0 0
          0 0 0 0 0 0
          0 0 0 0 0 0
          0 0 0 0 0 0
          0 0 0 0 0 0
          0 0 0 0 0 0
          0 0 0 0 0 0
          0 0 0 0 0 0
          0 0 0 0 0 0
          0 0 0 0 0 0
          0 0 0 0 0 0
          0 0 0 0 0 0
          0 0 0 0 0 0
          0 0 0 0 0 0
          0 0 0 0 0 0
          0 0 0 0 0 0
          0 0 0 0 0 0
          0 0 0 0 0 0
          0 0 0 0 0 0
          0 0 0 0 0 0
          0 0 0 0 0 0
          <InformationKey name="L2_NORM_RANGE" location="vtkDataArray" length="2">
            <Value index="0">
              0
            </Value>
            <Value index="1">
              1
            </Value>
          </InformationKey>
        </DataArray>
        <DataArray type="Float64" Name="nsi_FIXNO" NumberOfComponents="3" format="ascii" RangeMin="1.4142135623730951" RangeMax="1.4142135623730951">
          1 1 0 -1 -1 0
          -1 -1 0 -1 -1 0
          1 1 0 1 1 0
          -1 -1 0 -1 -1 0
          -1 -1 0 -1 -1 0
          -1 -1 0 -1 -1 0
          -1 -1 0 -1 -1 0
          -1 -1 0 1 1 0
          -1 -1 0 -1 -1 0
          -1 -1 0 -1 -1 0
          -1 -1 0 -1 -1 0
          -1 -1 0 -1 -1 0
          -1 -1 0 -1 -1 0
          -1 -1 0 -1 -1 0
          -1 -1 0 -1 -1 0
          -1 -1 0 -1 -1 0
          1 1 0 -1 -1 0
          -1 -1 0 -1 -1 0
          1 1 0 -1 -1 0
          -1 -1 0 -1 -1 0
          -1 -1 0 -1 -1 0
          1 1 0 -1 -1 0
          -1 -1 0 -1 -1 0
          -1 -1 0 -1 -1 0
          -1 -1 0 -1 -1 0
          -1 -1 0 -1 -1 0
          -1 -1 0 -1 -1 0
          -1 -1 0 -1 -1 0
          -1 -1 0 -1 -1 0
          -1 -1 0 -1 -1 0
          1 1 0 -1 -1 0
          -1 -1 0 -1 -1 0
          -1 -1 0 -1 -1 0
          -1 -1 0 -1 -1 0
          -1 -1 0 1 1 0
          -1 -1 0 -1 -1 0
          -1 -1 0 -1 -1 0
          -1 -1 0 -1 -1 0
          -1 -1 0 -1 -1 0
          -1 -1 0 -1 -1 0
          -1 -1 0 -1 -1 0
          -1 -1 0 -1 -1 0
          -1 -1 0 -1 -1 0
          -1 -1 0 -1 -1 0
          1 1 0 -1 -1 0
          -1 -1 0 -1 -1 0
          -1 -1 0 -1 -1 0
          -1 -1 0 -1 -1 0
          -1 -1 0 -1 -1 0
          -1 -1 0 -1 -1 0
          -1 -1 0 -1 -1 0
          -1 -1 0 -1 -1 0
          -1 -1 0 -1 -1 0
          -1 -1 0 -1 -1 0
          -1 -1 0 -1 -1 0
          -1 -1 0 -1 -1 0
          -1 -1 0 -1 -1 0
          -1 -1 0 -1 -1 0
          -1 -1 0 -1 -1 0
          -1 -1 0 -1 -1 0
          -1 -1 0 1 1 0
          -1 -1 0 -1 -1 0
          -1 -1 0 -1 -1 0
          -1 -1 0 -1 -1 0
          -1 -1 0 -1 -1 0
          -1 -1 0 -1 -1 0
          -1 -1 0 -1 -1 0
          -1 -1 0 -1 -1 0
          -1 -1 0 -1 -1 0
          -1 -1 0 -1 -1 0
          -1 -1 0 -1 -1 0
          -1 -1 0 -1 -1 0
          -1 -1 0 -1 -1 0
          -1 -1 0 -1 -1 0
          1 1 0 -1 -1 0
          -1 -1 0 -1 -1 0
          -1 -1 0 -1 -1 0
          -1 -1 0 -1 -1 0
          -1 -1 0 -1 -1 0
          -1 -1 0 1 1 0
          -1 -1 0 -1 -1 0
          1 1 0 -1 -1 0
          1 1 0 -1 -1 0
          -1 -1 0 -1 -1 0
          -1 -1 0 1 1 0
          -1 -1 0 -1 -1 0
          -1 -1 0 -1 -1 0
          1 1 0 -1 -1 0
          1 1 0 -1 -1 0
          -1 -1 0 -1 -1 0
          -1 -1 0 -1 -1 0
          -1 -1 0 -1 -1 0
          1 1 0 -1 -1 0
          -1 -1 0 1 1 0
          1 1 0 -1 -1 0
          -1 -1 0 -1 -1 0
          -1 -1 0 -1 -1 0
          -1 -1 0 1 1 0
          -1 -1 0 -1 -1 0
          -1 -1 0 -1 -1 0
          -1 -1 0 -1 -1 0
          1 1 0 1 1 0
          -1 -1 0 1 1 0
          -1 -1 0 -1 -1 0
          -1 -1 0 -1 -1 0
          1 1 0 -1 -1 0
          -1 -1 0 -1 -1 0
          -1 -1 0 -1 -1 0
          1 1 0 -1 -1 0
          -1 -1 0 -1 -1 0
          1 1 0 -1 -1 0
          -1 -1 0 1 1 0
          1 1 0 -1 -1 0
          -1 -1 0 -1 -1 0
          -1 -1 0 -1 -1 0
          -1 -1 0 -1 -1 0
          -1 -1 0 1 1 0
          1 1 0 -1 -1 0
          1 1 0 1 1 0
          -1 -1 0 -1 -1 0
          1 1 0 -1 -1 0
          -1 -1 0 -1 -1 0
          -1 -1 0 1 1 0
          -1 -1 0 -1 -1 0
          -1 -1 0 1 1 0
          -1 -1 0 1 1 0
          -1 -1 0 -1 -1 0
          -1 -1 0 -1 -1 0
          -1 -1 0 -1 -1 0
          -1 -1 0 1 1 0
          1 1 0 -1 -1 0
          1 1 0 -1 -1 0
          1 1 0 -1 -1 0
          -1 -1 0 -1 -1 0
          1 1 0 -1 -1 0
          -1 -1 0 -1 -1 0
          -1 -1 0 -1 -1 0
          1 1 0 1 1 0
          -1 -1 0 -1 -1 0
          -1 -1 0 -1 -1 0
          -1 -1 0 -1 -1 0
          1 1 0 -1 -1 0
          -1 -1 0 -1 -1 0
          1 1 0 -1 -1 0
          1 1 0 1 1 0
          -1 -1 0 -1 -1 0
          -1 -1 0 -1 -1 0
          -1 -1 0 1 1 0
          1 1 0 -1 -1 0
          -1 -1 0 -1 -1 0
          -1 -1 0 1 1 0
          -1 -1 0 1 1 0
          -1 -1 0 -1 -1 0
          1 1 0 -1 -1 0
          -1 -1 0 1 1 0
          -1 -1 0 -1 -1 0
          1 1 0 -1 -1 0
          1 1 0 -1 -1 0
          -1 -1 0 1 1 0
          -1 -1 0 -1 -1 0
          -1 -1 0 -1 -1 0
          -1 -1 0 1 1 0
          -1 -1 0 -1 -1 0
          -1 -1 0 -1 -1 0
          -1 -1 0 -1 -1 0
          1 1 0 -1 -1 0
          -1 -1 0 -1 -1 0
          -1 -1 0 -1 -1 0
          -1 -1 0 1 1 0
          -1 -1 0 -1 -1 0
          -1 -1 0 -1 -1 0
          1 1 0 -1 -1 0
          -1 -1 0 -1 -1 0
          -1 -1 0 -1 -1 0
          -1 -1 0 1 1 0
          -1 -1 0 -1 -1 0
          -1 -1 0 -1 -1 0
          -1 -1 0 -1 -1 0
          1 1 0 -1 -1 0
          -1 -1 0 -1 -1 0
          -1 -1 0 -1 -1 0
          -1 -1 0 -1 -1 0
          -1 -1 0 -1 -1 0
          1 1 0 -1 -1 0
          -1 -1 0 -1 -1 0
          -1 -1 0 -1 -1 0
          -1 -1 0 -1 -1 0
          1 1 0 -1 -1 0
          -1 -1 0 -1 -1 0
          -1 -1 0 -1 -1 0
          -1 -1 0 -1 -1 0
          -1 -1 0 -1 -1 0
          1 1 0 -1 -1 0
          -1 -1 0 -1 -1 0
          -1 -1 0 -1 -1 0
          -1 -1 0 -1 -1 0
          -1 -1 0 -1 -1 0
          1 1 0 -1 -1 0
          -1 -1 0 -1 -1 0
          1 1 0 -1 -1 0
          -1 -1 0 -1 -1 0
          -1 -1 0 -1 -1 0
          -1 -1 0 -1 -1 0
          1 1 0 -1 -1 0
          -1 -1 0 -1 -1 0
          -1 -1 0 -1 -1 0
          -1 -1 0 -1 -1 0
          1 1 0 -1 -1 0
          -1 -1 0 1 1 0
          <InformationKey name="L2_NORM_RANGE" location="vtkDataArray" length="2">
            <Value index="0">
              1.4142135624
            </Value>
            <Value index="1">
              1.4142135624
            </Value>
          </InformationKey>
        </DataArray>
        <DataArray type="Float64" Name="Velocity" NumberOfComponents="3" format="ascii" RangeMin="0" RangeMax="1.414632007038393">
          0 0 0 0.31851267719578125 0.024340945553044342 0
          0.7323009481727156 0.10034497383465615 0 0.5147991401178553 0.036629018717367574 0
          0 0 0 1 0 0
          0.7174845946600396 0.02630281984617494 0 0.36939296305965114 0.021643881710503646 0
          0.6434895594046516 0.03785757866972986 0 0.3113961885888095 0.004839045360884815 0
          0.666492538748946 0.02875663631473057 0 0.5614772709294356 0.03267570670380653 0
          0.7022618567527862 -0.09756626374296981 0 0.7198063309939271 0.032595232820624966 0
          0.6853419588963789 0.04691397866422263 0 0 0 0
          0.5046528934575406 0.026615209848760757 0 0.7266573909474603 0.05974675663756819 0
          0.6053534219726715 -0.004625652428571175 0 0.6492658385086904 0.04307754789182747 0
          0.6598302768648164 0.057264326799201945 0 0.6873149237825903 0.06238126725176044 0
          0.42309476043117294 0.03642602050386848 0 0.34866152981106685 -0.0284628441226848 0
          0.7322820609586109 0.09793012264707687 0 0.6413543758776662 0.07994526494816204 0
          0.7417377674946815 0.11872543834867776 0 0.714287814776697 0.0988970061035827 0
          0.32018328574649435 0.012137475590353632 0 0.5701544974557768 0.04836340450379244 0
          0.44467170299985825 0.003355816728101588 0 0.5999784959877323 0.09039637925636419 0
          0 0 0 0.6205497717423767 0.08170332441400195 0
          0.7343423478528038 0.15645193841414248 0 0.7564460519099832 0.1552002633001587 0
          0 0 0 0.7771639066431638 0.1912032659766225 0
          0.6527722979399698 0.13750000452949543 0 0.32171581740054384 0.00981770945841514 0
          0.5641099228213121 0.08541150686429867 0 0.2006231583215608 0.005276391480672317 0
          0 0 0 0.4651495951098913 0.05172029286146513 0
          0.7644618301117249 0.18350557381246163 0 0.7562867239522421 0.22588003100116014 0
          0.8262606156039182 0.24663786461006657 0 0.6782873090880636 0.20949603703792036 0
          0.5166916552822579 0.09605222380871728 0 0.8113492581809136 0.28475700018559474 0
          0.30747489907087955 0.025609234899255172 0 0.4604735676381441 0.024770853295758826 0
          0.794207595820326 0.1536977520474665 0 0.876102304552167 0.27651205994866407 0
          0.554659608336897 0.16738065213098666 0 0.6911554276070044 0.29177907712378043 0
          0.8694803170041203 0.3436173229174269 0 0.3480072220709383 0.048789498537103834 0
          0.7983805900323419 0.3717075389879464 0 0.589487276031602 0.25514951695130517 0
          0 0 0 0.9476520472263723 0.36496729080064266 0
          0.7057755329061095 0.37422746337982987 0 0.18445616698307754 0.011227472709922533 0
          0.9830933067327209 0.23792563006657347 0 0.3701108575357342 0.09322668331663256 0
          0.4567914978797125 0.1914659628515832 0 0.8730525294565528 0.42499896010143057 0
          0.5912253172241084 0.33421457510236285 0 0 0 0
          0.7477224885006428 0.10295452497595348 0 0.4683081509826638 0.2685018769581084 0
          0.7422739159552292 0.46467895184691144 0 1.053070025017962 0.3595987325697917 0
          0.9642993107833402 0.4638217595818008 0 0.3257695331178081 0.12649281718528452 0
          0.21346825714029793 0.036275456133405784 0 0.5663680211837826 0.4138103330904473 0
          0.8498401268899136 0.5138207343957831 0 1.1161773180176076 0.2871285093501939 0
          0.4641176146631071 0.34381037972385453 0 0.726160360334862 0.5149678246480107 0
          0.3406760191703639 0.19073781978191875 0 0.2438882768248823 0.06476367803159455 0
          1.0349181430842445 0.19369465052742801 0 0.607401309588966 0.4969133345024746 0
          0.9607607680363656 0.5238929686512053 0 0.3412473297361964 0.26153698229716504 0
          0 0 0 0.8331889408143917 0.08459257256149808 0
          1.1899792201060575 0.38328818895556055 0 0.7892782109359984 0.5650717174196564 0
          0.43784635804526695 0.4229048472751532 0 0.640715754016429 0.5548917864376677 0
          1.2242294434829368 0.2766571342233929 0 0.23171559607451458 0.12078789710594254 0
          0.31269984900045306 0.3088637189423388 0 0.12214066799866437 0.01638993712613668 0
          0.24228821472647594 0.18539992762909283 0 0.477790578880579 0.010979837018857618 0
          0.9323922761072324 0.5643038218718153 0 0.42150655639201734 0.4800280623424217 0
          1.1474744195520794 0.47288614205363905 0 0.24452228415595678 0.2481243045034603 0
          0.696054696049239 0.58802956690425 0 0.278462785235429 0.3489209157030934 0
          1.1691752608901596 0.14224694703839885 0 1.2940980506737088 0.33144973246592513 0
          0.14021437786786406 0.04433836643356667 0 0.5210647718298006 0.5594448538832998 0
          0.8054925041922412 0.5717870846393702 0 0.20130078935378523 0.26976103129450774 0
          0.3250187301286464 0.45663221142387994 0 1.081138958696518 0.48601326388938226 0
          0.9184337556574003 0.028896795812175743 0 0.1355333027362665 0.07187648142084131 0
          0.5565863989550616 0.5587313815459342 0 0.21642933987197646 0.3494232372462918 0
          1.270410910864992 0.35826223818575725 0 1.3479359828110917 0.1958130688951098 0
          0.14074809935069454 0.125003879168085 0 0 0 0
          0.15199081914332807 0.19378656249988746 0 0.3263491339251278 0.4819713246962497 0
          1.355846309352864 0.25963061206895083 0 0.16734762388425453 0.2810160616415108 0
          0.0591922708037839 0.008282072370438898 0 0.6562688064518268 0.5077724766115701 0
          0.15531830136007627 0.32929762525455486 0 0.9877633170894522 0.4239597592948595 0
          0.3637503485125375 0.45639510595975147 0 0.10957634629342122 0.19777568850345348 0
          1.1804825936797851 0.34009225117268616 0 0.07840117769626127 0.031209021915253467 0
          0.1019761055603954 0.1303358012303304 0 1.2503506874112635 0.05932634287559834 0
          1.3153604558758931 0.25586331158608905 0 0.16249144237799462 0.3437867148582319 0
          0.08368986581395874 0.19195200922266736 0 1.4023656660558568 0.1559678759501122 0
          0.4291387589987979 0.35855586347753526 0 0.0853740394063184 0.09544702959726935 0
          0.07382943683279848 0.24130360887551922 0 0.07054935556170885 0.04410069470108095 0
          0.7661671717371433 0.30853498096591464 0 0.07754769496139027 0.12891993722822379 0
          0.06777710053990509 0.20684391980113045 0 0.07085692603753464 0.2080837043207222 0
          0 0 0 0.08459355731333121 0.2170101498228934 0
          0.9960428224884342 0.25478049299574185 0 1.3998235195177013 0.08247604284621327 0
          1.195371170872509 0.21203571232159554 0 0.04100183147861875 0.15501901552092506 0
          0.0586535383340582 0.05718083724633604 0 0.04677853623481952 0.12028125374394087 0
          0.9259318045889198 0.007463034660654135 0 0.032178779617512 0.13777242847750956 0
          0.021606834070140152 0.1214953017995986 0 0 0 0
          0.05390157835288678 0.08543698280286241 0 0.40217384529392874 0.07074642159545957 0
          0 0 0 0.7075135918247442 0.11314560983185044 0
          0 0 0 0.01752229539731125 0.09217107466143136 0
          0.029037217798274957 0.10722064802230827 0 0.03873297364692247 0.013769683294512856 0
          1.3296713545585075 0.07234151293329062 0 0 0 0
          0.011064258490046816 0.06842784641025947 0 0.04101724083681603 0.055543548331581434 0
          0.9289148673842106 0.0768370334611015 0 0.032048496750949104 0.07476972682110651 0
          0 0 0 0.01853282888408655 0.0762239547647185 0
          0 0 0 1.4145583545237057 0.014435268776818689 0
          0.3548409975805524 0.028088801698225172 0 0.006617064591049998 0.055167540179343014 0
          1.13120793757338 0.031673421912033616 0 0.017910350933077936 0.0666566867771111 0
          0.6748889167309785 0.04041490455838076 0 0.03147028842205255 0.022273764073147344 0
          0 0 0 0.006816501660315119 0.042927684499359325 0
          1.4062116816424417 -0.02274047124743068 0 0 0 0
          0 0 0 0.01344605894293203 0.04628029041739609 0
          0.024475577672586117 0.025860860786310294 0 0.0048177313144973435 0.03433684209436625 0
          0.01861480909779268 0.039823619044745864 0 0.3358671979641511 0.0003131989813444238 0
          0.012468956276161963 0.039388790713029836 0 0 0 0
          1.254328565129313 -0.04249643536616553 0 0.6600011651343884 -0.021567495303915822 0
          0.9415308335726216 -0.05229842013335052 0 0.004354514523359054 0.02635470718081963 0
          1.1539577148600493 -0.08942884972296136 0 0.017037616168481838 0.005773359637662314 0
          0 0 0 0 0 0
          0.01430932087333929 0.023014738762922943 0 0 0 0
          1.3145058327876107 -0.108496679041758 0 0.008036355073145287 0.02569059139590158 0
          0.0036554236745298674 0.019960911786569422 0 0.3416370314260062 -0.025985244307109166 0
          0 0 0 1.3927777196121771 -0.11773138643547164 0
          0.007642282108066434 0.01978643775914482 0 0.6739990438983727 -0.119715576906771 0
          0.01152420438219544 0.009859340772010828 0 0.0028707389016549892 0.01430288440793357 0
          0 0 0 0.9261359434636548 -0.16378040549305778 0
          0.004820226858906735 0.01508612176502593 0 1.3746120043593903 -0.11771959959972388 0
          0 0 0 0.0025045612993790044 0.01031598903863329 0
          1.1293410121526977 -0.1898428790103556 0 0 0 0
          0 0 0 0.38948984966944755 -0.16737411400615154 0
          0.006165521347551847 0.007958940340569211 0 0.004747831343029659 0.009791193878223735 0
          0.9451268042901385 -0.04583739279086534 0 0.001483077804789451 0.006766409327739246 0
          1.2798732171655505 -0.19841216123745217 0 1.210957878118662 -0.091041263122764 0
          0.0061459635857651585 0.002059006935225976 0 0 0 0
          0 0 0 0.6689567173159374 -0.23159657448041018 0
          0 0 0 0 0 0
          0.0008871217320079371 0.004661349560378314 0 0.04583092221851957 -0.07292193194250547 0
          0 0 0 0.002681011154023718 0.00542916526215016 0
          1.3564778764828807 -0.19915641900280417 0 0.8981742913796203 -0.2635526463648368 0
          0.003443720452503873 0.002610633293106481 0 0 0 0
          0.02580454678534502 -0.03224685831027192 0 0.0010302925159567692 0.00268189705541542 0
          0.0022740297561325727 0.0032499546858634227 0 0 0 0
          0.014824390904185037 -0.007180004789348777 0 0 0 0
          0.30829760849968235 -0.2057548454492662 0 1.323274774084638 -0.17356920402083398 0
          0.0010443727348677444 0.0018374227493571564 0 1.0566585681095786 -0.29534881189048884 0
          0.0062186981046747575 0.009825106694132777 0 0.0019243067369228682 0.0004706830426406325 0
          0.000768014044748693 0.0014773174297316141 0 0 0 0
          0 0 0 0.1012351522408779 -0.10500140393739865 0
          0 0 0 0.00211919603977958 0.01536148051097364 0
          0 0 0 1.226157588588499 -0.2866062994974053 0
          0.06381828630022611 -0.05610709684837773 0 0.0010315729443667325 0.0007506660429740154 0
          0 0 0 0.0003530139242058111 0.000515498855587938 0
          0.2562635780664984 -0.007598006911588506 0 0.5369794194105341 -0.27825774009666876 0
          0.0012383183173464592 0.018576632470438448 0 1.1631327747442 -0.14138788361792545 0
          0 0 0 0 0 0
          0.0009891467215936236 0.01975402670108845 0 0.00020425937302523376 0.00016684465817274623 0
          0.28904602648653777 -0.20777784101250557 0 0.01675195694773647 -0.001779374684561241 0
          0.05171196313868212 -0.03563173783134784 0 0.7702042478978514 -0.3221789725591812 0
          0 0 0 1.290825194482347 -0.25854611388091786 0
          0.1382093378920921 -0.11631475604008962 0 0.000049534475946348485 0.020814711890014815 0
          0 0 0 0.010173539412293254 0.012914175820044805 0
          0 0 0 0 0 0
          0.0044015541631484125 0.02215740445122046 0 0.00010835423170205549 -0.00014718557113853703 0
          -0.0005924526071571136 0.020297753139047473 0 0.003863484090945413 0.026829423688401723 0
          0.7952050579869188 -0.09121152901657699 0 0 0 0
          0 0 0 0.4787660149228853 -0.27949232536470253 0
          -0.0004956022952531126 0.01953636308898537 0 0.9386987251544715 -0.3400475033985798 0
          1.247027553028996 -0.22567650935307565 0 0 0 0
          0.03392660023550138 -0.010474279333771664 0 0 0 0
          0.3053244166256669 -0.2127473750170566 0 -0.00010509108782824324 0.0313241621856474 0
          0 0 0 -0.0008313950569595592 0.018248023030406558 0
          0.012766499102102657 0.022643257036802172 0 0 0 0
          -0.0006546848644194757 0.03238583280005811 0 0.15774058043360778 -0.1165588264051229 0
          0 0 0 -0.001154971954690162 0.016615602572892005 0
          0 0 0 -0.0018226873378580169 0.02933773450478556 0
          0.6573855814616915 -0.32443183442182005 0 0 0 0
          -0.0014383610357245888 0.014244922536205061 0 -0.002549657795820626 0.02746065746876699 0
          1.0918012241211112 -0.1629887756060677 0 0.46676476283282425 -0.274169253099737 0
          0.003373887470300582 0.03323005070755583 0 0 0 0
          -0.0016100070150277372 0.011709169563000164 0 1.2130916410129609 -0.3036503571620401 0
          0.05076819153916954 -0.01839253815418241 0 -0.004737254873352506 0.026444791179162572 0
          1.04235033363324 -0.36275709559037433 0 0.2986755493982785 -0.20002136441549923 0
          0 0 0 -0.0014050622670319758 0.009294331669981058 0
          -0.00402422398346444 0.035556017583545096 0 0.13524016385651527 -0.09301017247105829 0
          -0.005186305930085985 0.02249906634478454 0 0.028430623230416077 0.005226240200368781 0
          0.8172971037946537 -0.3571590555261952 0 0 0 0
          -0.0013638752116240831 0.0068352946458472685 0 -0.004579501453747033 0.017300682420696465 0
          0.6255192530575775 -0.3141396653452499 0 0.7124956414998868 -0.08190078477979851 0
          0 0 0 -0.0013474708108458327 0.004530299735706866 0
          -0.010307030657794394 0.02907685366352153 0 -0.005026036894661072 0.01424561973276068 0
          0.0046003040537594235 0.02583320220474148 0 0.45293066914553975 -0.2582546046437317 0
          0.0739377457152773 -0.04533300493025337 0 0 0 0
          -0.0011728130302231608 0.002408050822767203 0 1.1090844065447962 -0.35389403104246203 0
          -0.004753543923687445 0.010200501723825245 0 -0.0107253751593787 0.02240571006529797 0
          0.2971793616949666 -0.1899052595098944 0 1.1554802509666313 -0.2964988584309894 0
          0 0 0 0.9560801185082216 -0.36136339538846796 0
          -0.004377794436830262 0.006706520268120912 0 -0.0004799993174605804 0.000607792165639862 0
          0.04272892157410014 -0.012190746473535791 0 -0.010471405135619422 0.015439567191981697 0
          0.15345371082641823 -0.10697535726017349 0 -0.0032209247810765047 0.003512465987941638 0
          0.6737857813100097 -0.31809495607233135 0 -0.011586430528391006 0.020259748112790334 0
          0 0 0 1.0167235252254183 -0.20643116426375413 0
          0.32111852031814797 -0.01762831980951829 0 -0.008230201018588576 0.007339129669612011 0
          -0.01795843608653681 0.01905372483981986 0 -0.016294423899795657 0.01619867680276559 0
          0.10040862268283544 -0.06533755115015148 0 0.4263530457901253 -0.247317627769089 0
          0 0 0 -0.0037514749852287114 0.001719021133538693 0
          1.0457226958171544 -0.32427169310359377 0 0.0008791089862353319 -0.01035248179690261 0
          -0.015916176793126218 0.008986102314375011 0 -0.018242922846783177 0.005744398163060162 0
          0.8249109563309786 -0.3285470420434361 0 0.19993586967019136 -0.14115657008261356 0
          0.5590570755795374 -0.07357193776198556 0 -0.022197350883680897 0.009142819983482276 0
          0 0 0 -0.009507671189606472 0.002620156922811628 0
          0.5649657358894475 -0.28768489196490066 0 1.093044542217525 -0.27056220532897385 0
          0.04665297485620193 -0.05784301422097593 0 0.34450661920027553 -0.21908861670983534 0
          -0.004162058151645343 -0.020440509684093167 0 -0.02000372820465001 -0.0037016327153860467 0
          -0.01645984501618013 0.0020960479765000564 0 0.9801059314920121 -0.3166528061356751 0
          0 0 0 -0.021067939164458774 0.0021376138878392657 0
          0.7475871949274273 -0.33415126958728747 0 0.4854487387490088 -0.28260766489688416 0
          0 0 0 0.13167669274796748 -0.1255805570229458 0
          0.03139731494621794 -0.0607741023211961 0 0.9730231551307309 -0.09629082749806205 0
          -0.0031278918152112226 -0.028207712019877536 0 -0.01574682712492558 0.0006579794364266581 0
          -0.015476519774477867 -0.008609929507297257 0 0.2771595985787126 -0.2202199911479342 0
          0 0 0 0.9952686899995051 -0.38203212400724673 0
          -0.012043772787164411 -0.00021140642101907244 0 0.10126209580056976 -0.13388223797971432 0
          0.02861937044916393 -0.059692939809010796 0 0.5641138283232914 -0.42044602672580517 0
          0.0016841161057476986 -0.017393622770022092 0 0.24566523213703623 -0.2872404251347654 0
          0 0 0 0.031811728617269164 -0.03702374250558861 0
          0.10141812065197305 -0.11354215620810079 0 0 0 0
          <InformationKey name="L2_NORM_RANGE" location="vtkDataArray" length="2">
            <Value index="0">
              0
            </Value>
            <Value index="1">
              1.414632007
            </Value>
          </InformationKey>
        </DataArray>
        <DataArray type="Float64" Name="Pressure" format="ascii" RangeMin="-8.4046078914442" RangeMax="36.907924592245834">
          36.246007695088494 36.404622270482825 36.73099541625366 36.18140082567231 35.99893156583897 36.77306328014401
          36.04344978816013 35.491700426609825 35.35143647359402 34.5870618201067 36.09510620171911 34.37386859330556
          36.907924592245834 35.3018757841702 34.383939539784656 33.583919815575385 33.43199983134951 34.49433222386417
          36.48282930800201 35.536928156405345 33.29710358927866 34.752617187826054 32.36732462891232 36.873934549261584
          33.493614788493595 32.20196491802499 32.318892862903525 33.920879437028795 31.440122860827813 34.92227623573762
          35.89969890093048 30.88386978139446 36.69395328372064 34.19181809656297 33.08637771029616 31.164772522826976
          30.357843261678873 31.576980302621646 33.54001583381246 35.1842911280801 29.507229265979063 35.59673491219987
          36.71600513934467 34.362144527118694 29.669315200330978 32.149661020802085 30.160121327835093 32.819361666447236
          33.86916510969781 30.783113721944773 34.481442960441115 27.551222462781684 27.87898438748271 28.525510830673447
          33.42294667126083 32.09144016973436 29.362302904490093 34.00164248599812 30.239277767574272 32.804493824090564
          34.714493341273055 27.53400533803171 31.192713591749147 34.09279136658511 25.86624661285485 33.775253141027264