<?xml version="1.0"?>
<VTKFile type="UnstructuredGrid" version="0.1" byte_order="LittleEndian" header_type="UInt32" compressor="vtkZLibDataCompressor">
  <UnstructuredGrid>
    <Piece NumberOfPoints="27" NumberOfCells="16">
      <PointData>
        <DataArray type="Float64" Name="Displacement" NumberOfComponents="3" format="ascii" RangeMin="0" RangeMax="2.0218574195368074e-9">
          0 0 0 -8.246087774550791e-14 -2.2622800681725425e-14 0
          0 0 0 -3.3175475838896425e-11 -7.813110342618386e-12 0
          -3.3579885882735504e-11 -1.0335900824099609e-11 0 -3.396813968919368e-11 -1.2942863140480149e-11 0
          -1.1198789760910857e-10 1.691505370236958e-10 0 -1.0458020627696808e-10 1.6796330850615945e-10 0
          -9.664816886071493e-11 1.6698511489823033e-10 0 -1.2514571968277312e-10 2.2144024094101436e-10 0
          -1.2749462744382278e-10 2.2539154144259267e-10 0 -1.319100433306423e-10 2.2879067703185482e-10 0
          1.1407876622717151e-10 -2.0658274088076757e-10 0 8.114124483421445e-11 -2.063935481804831e-10 0
          5.0198000704999394e-11 -2.0549028218995787e-10 0 5.910826821618435e-11 -6.716834801983222e-10 0
          8.355923002582313e-11 -6.736167323776721e-10 0 1.063526450817227e-10 -6.756770261608756e-10 0
          3.17618200137261e-11 8.266080976371765e-10 0 8.891812435016271e-11 8.258489817206526e-10 0
          1.5030009835671585e-10 8.248801076082639e-10 0 -2.205516237450379e-10 9.220035383235607e-10 0
          -2.838561541368474e-10 9.227007279443299e-10 0 -3.519851357961839e-10 9.225219809642126e-10 0
          -6.491936105546402e-11 -1.987422437146804e-9 0 -2.1294615824663294e-10 -1.9880436381999873e-9 0
          -3.576637011094581e-10 -1.989970879647419e-9 0
          <InformationKey name="L2_NORM_RANGE" location="vtkDataArray" length="2">
            <Value index="0">
              0
            </Value>
            <Value index="1">
              2.0218574195e-09
            </Value>
          </InformationKey>
        </DataArray>
        <DataArray type="Float64" Name="Velocity" NumberOfComponents="3" format="ascii" RangeMin="0" RangeMax="6.0769996282333025e-9">
          0 0 0 1.3926031984416874e-12 -7.818195604393901e-13 0
          0 0 0 -4.746484125251547e-10 -1.7263650198959693e-10 0
          -4.5660943585509284e-10 -2.2279476678782714e-10 0 -4.3151595808328606e-10 -2.736586508204873e-10 0
          -1.6175787664709288e-9 2.831480643312211e-9 0 -1.4979719608939082e-9 2.841003938279897e-9 0
          -1.3866225430091404e-9 2.8489763575833663e-9 0 -1.115390552707031e-9 2.8614404893142027e-9 0
          -1.252351559020705e-9 2.870583360841356e-9 0 -1.3841822131512665e-9 2.8854780916114622e-9 0
          -1.508606684061363e-10 -6.059934166670839e-9 0 -2.938991786511973e-10 -6.054016374140275e-9 0
          -4.693193923419873e-10 -6.058850038540271e-9 0 2.7893177084413568e-9 5.822724829259634e-10 0
          3.003489317224243e-9 5.834067550998612e-10 0 3.279223992502033e-9 5.957423665214849e-10 0
          -1.2928619464441797e-9 4.144490978739311e-9 0 -1.1794593368564522e-9 4.126684981795556e-9 0
          -1.0876632225108236e-9 4.105636111088426e-9 0 -2.3377334575520277e-9 -5.768082633941941e-10 0
          -2.589551404741666e-9 -5.851735541385449e-10 0 -2.8932909427084214e-9 -6.023835185680318e-10 0
          2.1685748694865165e-9 -2.5087522027311915e-9 0 2.013369899890118e-9 -2.4494656584379814e-9 0
          1.947026185239285e-9 -2.377813859445965e-9 0
          <InformationKey name="L2_NORM_RANGE" location="vtkDataArray" length="2">
            <Value index="0">
              0
            </Value>
            <Value index="1">
              6.0769996282e-09
            </Value>
          </InformationKey>
        </DataArray>
        <DataArray type="Float64" Name="Acceleration" NumberOfComponents="3" format="ascii" RangeMin="0" RangeMax="4.5412248727958216e-8">
          0 0 0 1.2460199631461626e-11 -5.892591672607514e-12 0
          0 0 0 -3.2663796867788943e-9 -1.2560822504348813e-9 0
          -3.115597312716975e-9 -1.6169837211170234e-9 0 -2.9086374296391895e-9 -1.982183396316216e-9 0
          -1.1148823770021694e-8 1.9945436554118556e-8 0 -1.0310492386719777e-8 2.0040618570140628e-8 0
          -9.546609642301685e-9 2.0120049022295247e-8 0 -6.9207929067318784e-9 1.934848005945739e-8 0
          -7.978898433064476e-9 1.9358402223649365e-8 0 -8.962897011919855e-9 1.942317390038202e-8 0
          -3.0321456068838347e-9 -4.517414947927443e-8 0 -3.6494533465570095e-9 -4.512983422223447e-8 0
          -4.557723150015889e-9 -4.518295579328284e-8 0 2.1368809376071905e-8 1.5405115546580863e-8 0
          2.2690966857380775e-8 1.5445121758841643e-8 0 2.45321496187087e-8 1.557677135074589e-8 0
          -1.0851084691773055e-8 1.9930198267719663e-8 0 -1.0858364684454221e-8 1.979989614683401e-8 0
          -1.1106107353794043e-8 1.964700716697518e-8 0 -1.5173041680495615e-8 -1.9366522720330524e-8 0
          -1.617471277174377e-8 -1.9444600080217638e-8 0 -1.7514565368928428e-8 -1.9579419843971655e-8 0
          1.8387308732779555e-8 1.1728741372499334e-8 0 1.9514097731067072e-8 1.2212972943695946e-8 0
          2.1298828699665608e-8 1.2817023198790982e-8 0
          <InformationKey name="L2_NORM_RANGE" location="vtkDataArray" length="2">
            <Value index="0">
              0
            </Value>
            <Value index="1">
              4.5412248728e-08
            </Value>
          </InformationKey>
        </DataArray>
      </PointData>
      <CellData>
        <DataArray type="UInt8" Name="vtkGhostType" format="ascii" RangeMin="0" RangeMax="0">
          0 0 0 0 0 0
          0 0 0 0 0 0
          0 0 0 0
        </DataArray>
        <DataArray type="Float64" Name="Stress" NumberOfComponents="6" format="ascii" RangeMin="7.32014072618867" RangeMax="97.36625858506426">
          -5.4347126118251605 5.043889907272654 0 -0.6192919516382933 0 0
          -11.871472109266126 5.8456252270313875 0 6.729226994663611 0 0
          -8.025427502037992 -8.211655910620568 0 1.2423771318766237 0 0
          39.1359478628896 -0.3989114160984102 0 0.7101005629187558 0 0
          7.160573118681938 4.808419614278495 0 -29.104034424950985 0 0
          7.503696412989219 9.600054675372988 0 35.52944612597605 0 0
          -93.73911740774304 -22.03663472283513 0 14.406696656878083 0 0
          8.561656383941315 7.563437216417943 0 -19.91698963111201 0 0
          -5.37700841587044 4.961496012252581 0 -0.23621614522762147 0 0
          -13.525147893895372 5.7195371031306985 0 7.1476690722792195 0 0
          -5.883173565074171 -8.503700351730002 0 -0.6645283598982283 0 0
          45.42450979938211 1.6792386998358788 0 0.8867169929192311 0 0
          -4.426583949302519 3.2021631399204056 0 -28.568327956806538 0 0
          -0.44255122042912887 6.642150030227301 0 37.9864716007359 0 0
          -67.50561717427678 -17.78905140710962 0 13.72374897742641 0 0
          24.42671305833706 6.302391189349449 0 -21.298002697983318 0 0
          <InformationKey name="L2_NORM_RANGE" location="vtkDataArray" length="2">
            <Value index="0">
              7.3201407262
            </Value>
            <Value index="1">
              97.366258585
            </Value>
          </InformationKey>
        </DataArray>
        <DataArray type="Float64" Name="Strain" NumberOfComponents="6" format="ascii" RangeMin="3.1892026083014966e-11" RangeMax="3.840760517422545e-10">
          -2.698622587726589e-11 2.5843395157445703e-11 0 -6.244527178755423e-12 0 0
          -5.3472139814603846e-11 3.585155924778258e-11 0 6.785303885880914e-11 0 0
          -2.327051825330016e-11 -2.4209419809558906e-11 0 1.2527302733350528e-11 0 0
          1.5629756659771057e-10 -4.3024015722604176e-11 0 7.1601806925599194e-12 0 0
          2.3429051897983484e-11 1.157027797844408e-11 0 -2.934656805365168e-10 0 0
          1.972253975997829e-11 3.0291679335493425e-11 0 3.582552485422075e-10 0 0
          -3.5002380499123213e-10 1.1476211206964424e-11 0 1.452675243369607e-10 0 0
          2.609257494408037e-11 2.1059886638707922e-11 0 -2.0082964547428017e-10 0 0
          -2.666916033717249e-11 2.5454132822071186e-11 0 -2.381846130883e-12 0 0
          -5.992509685388378e-11 3.710018999436317e-11 0 7.207232980508399e-11 0 0
          -1.4428897295137311e-11 -2.7640719836731255e-11 0 -6.7006609698907715e-12 0 0
          1.7914414335040597e-10 -4.1404931939683525e-11 0 8.9410630395779e-12 0 0
          -2.102100505790427e-11 1.7440594849372143e-11 0 -2.8806397358100274e-10 0 0
          -8.79502083225633e-12 2.6923681309937313e-11 0 3.8303025535223725e-10 0 0
          -2.5003508886370705e-10 6.192632013186347e-13 0 1.3838113530242843e-10 0 0
          9.06169061461631e-11 -7.598833231544677e-13 0 -2.1475486062281742e-10 0 0
          <InformationKey name="L2_NORM_RANGE" location="vtkDataArray" length="2">
            <Value index="0">
              3.1892026083e-11
            </Value>
            <Value index="1">
              3.8407605174e-10
            </Value>
          </InformationKey>
        </DataArray>
      </CellData>
      <Points>
        <DataArray type="Float32" Name="Points" NumberOfComponents="3" format="ascii" RangeMin="0" RangeMax="10.000499987515525">
          0 0.10000000149011612 0 0 0.05000000074505806 0
          0 0 0 1.25 0.10000000149011612 0
          1.25 0.05000000074505806 0 1.25 0 0
          2.5 0.10000000149011612 0 2.5 0.05000000074505806 0
          2.5 0 0 3.75 0.10000000149011612 0
          3.75 0.05000000074505806 0 3.75 0 0
          5 0.10000000149011612 0 5 0.05000000074505806 0
          5 0 0 6.25 0.10000000149011612 0
          6.25 0.05000000074505806 0 6.25 0 0
          7.5 0.10000000149011612 0 7.5 0.05000000074505806 0
          7.5 0 0 8.75 0.10000000149011612 0
          8.75 0.05000000074505806 0 8.75 0 0
          10 0.10000000149011612 0 10 0.05000000074505806 0
          10 0 0
          <InformationKey name="L2_NORM_RANGE" location="vtkDataArray" length="2">
            <Value index="0">
              0
            </Value>
            <Value index="1">
              10.000499988
            </Value>
          </InformationKey>
        </DataArray>
      </Points>
      <Cells>
        <DataArray type="Int64" Name="connectivity" format="ascii" RangeMin="0" RangeMax="26">
          5 4 1 2 8 7
          4 5 11 10 7 8
          14 13 10 11 17 16
          13 14 20 19 16 17
          23 22 19 20 26 25
          22 23 4 3 0 1
          7 6 3 4 10 9
          6 7 13 12 9 10
          16 15 12 13 19 18
          15 16 22 21 18 19
          25 24 21 22
        </DataArray>
        <DataArray type="Int64" Name="offsets" format="ascii" RangeMin="4" RangeMax="64">
          4 8 12 16 20 24
          28 32 36 40 44 48
          52 56 60 64
        </DataArray>
        <DataArray type="UInt8" Name="types" format="ascii" RangeMin="9" RangeMax="9">
          9 9 9 9 9 9
          9 9 9 9 9 9
          9 9 9 9
        </DataArray>
      </Cells>
    </Piece>
  </UnstructuredGrid>
</VTKFile>
