<?xml version="1.0"?>
<VTKFile type="UnstructuredGrid" version="0.1" byte_order="LittleEndian" header_type="UInt32" compressor="vtkZLibDataCompressor">
  <UnstructuredGrid>
    <Piece NumberOfPoints="27" NumberOfCells="16">
      <PointData>
        <DataArray type="Float64" Name="Displacement" NumberOfComponents="3" format="ascii" RangeMin="0" RangeMax="8.155541688358958e-10">
          0 0 0 -2.1530583867796488e-13 8.641604471406106e-14 0
          0 0 0 4.274331364619612e-11 1.7673007577390423e-11 0
          4.028623654051886e-11 2.268139543642859e-11 0 3.6955424915813916e-11 2.7735899782320838e-11 0
          1.4620339700431182e-10 -2.693598119021785e-10 0 1.349563919732545e-10 -2.7114383803190747e-10 0
          1.250037334457851e-10 -2.726294872488057e-10 0 7.685095924699232e-11 -2.4695994069376815e-10 0
          9.279663115567674e-11 -2.4612714938387315e-10 0 1.0706775497858716e-10 -2.4628942293550537e-10 0
          7.58969666643528e-11 6.542004003934711e-10 0 7.730801974850689e-11 6.535552726772928e-10 0
          8.376392439524811e-11 6.546111137225549e-10 0 -3.191105794470774e-10 -4.0862580046490654e-10 0
          -3.3365654964011884e-10 -4.097342105763187e-10 0 -3.5672667652189274e-10 -4.123063088956234e-10 0
          1.774886533123855e-10 -1.047573235238256e-10 0 1.918914792821379e-10 -1.0291113186411827e-10 0
          2.111079519922109e-10 -1.0076446008192121e-10 0 1.819408703214845e-10 5.331028020860546e-10 0
          1.8176584852428456e-10 5.344970582394831e-10 0 1.856687999404607e-10 5.365589303031103e-10 0
          -3.035315392135465e-10 -6.801171932320031e-10 0 -3.5814431660958124e-10 -6.87838611795246e-10 0
          -4.222101237096396e-10 -6.977587073929638e-10 0
          <InformationKey name="L2_NORM_RANGE" location="vtkDataArray" length="2">
            <Value index="0">
              0
            </Value>
            <Value index="1">
              8.1555416884e-10
            </Value>
          </InformationKey>
        </DataArray>
        <DataArray type="Float64" Name="Velocity" NumberOfComponents="3" format="ascii" RangeMin="0" RangeMax="3.2622166753435832e-9">
          0 0 0 -8.612233547118595e-13 3.456641788562442e-13 0
          0 0 0 1.7097325458478447e-10 7.069203030956169e-11 0
          1.6114494616207544e-10 9.072558174571435e-11 0 1.4782169966325566e-10 1.1094359912928335e-10 0
          5.848135880172473e-10 -1.077439247608714e-9 0 5.39825567893018e-10 -1.0845753521276299e-9 0
          5.000149337831404e-10 -1.0905179489952227e-9 0 3.074038369879693e-10 -9.878397627750726e-10 0
          3.7118652462270696e-10 -9.845085975354926e-10 0 4.2827101991434866e-10 -9.851576917420215e-10 0
          3.035878666574112e-10 2.6168016015738844e-9 0 3.0923207899402754e-10 2.614221090709171e-9 0
          3.3505569758099245e-10 2.6184444548902195e-9 0 -1.2764423177883097e-9 -1.6345032018596262e-9 0
          -1.3346261985604754e-9 -1.6389368423052747e-9 0 -1.426906706087571e-9 -1.6492252355824936e-9 0
          7.09954613249542e-10 -4.190292940953024e-10 0 7.675659171285516e-10 -4.116445274564731e-10 0
          8.444318079688436e-10 -4.0305784032768486e-10 0 7.27763481285938e-10 2.1324112083442184e-9 0
          7.270633940971383e-10 2.1379882329579323e-9 0 7.426751997618428e-10 2.146235721212441e-9 0
          -1.214126156854186e-9 -2.7204687729280125e-9 0 -1.432577266438325e-9 -2.751354447180984e-9 0
          -1.6888404948385585e-9 -2.7910348295718553e-9 0
          <InformationKey name="L2_NORM_RANGE" location="vtkDataArray" length="2">
            <Value index="0">
              0
            </Value>
            <Value index="1">
              3.2622166753e-09
            </Value>
          </InformationKey>
        </DataArray>
        <DataArray type="Float64" Name="Acceleration" NumberOfComponents="3" format="ascii" RangeMin="0" RangeMax="1.3048866701374333e-8">
          0 0 0 -3.444893418847438e-12 1.3826567154249769e-12 0
          0 0 0 6.838930183391379e-10 2.8276812123824677e-10 0
          6.445797846483018e-10 3.629023269828574e-10 0 5.912867986530227e-10 4.437743965171334e-10 0
          2.339254352068989e-9 -4.309756990434856e-9 0 2.159302271572072e-9 -4.3383014085105195e-9 0
          2.0000597351325615e-9 -4.362071795980891e-9 0 1.2296153479518771e-9 -3.9513590511002904e-9 0
          1.4847460984908279e-9 -3.9380343901419705e-9 0 1.7130840796573946e-9 -3.940630766968086e-9 0
          1.2143514666296447e-9 1.0467206406295538e-8 0 1.2369283159761102e-9 1.0456884362836684e-8 0
          1.3402227903239698e-9 1.0473777819560878e-8 0 -5.105769271153239e-9 -6.538012807438505e-9 0
          -5.3385047942419015e-9 -6.555747369221099e-9 0 -5.707626824350284e-9 -6.5969009423299745e-9 0
          2.839818452998168e-9 -1.6761171763812096e-9 0 3.0702636685142063e-9 -1.6465781098258923e-9 0
          3.3777272318753743e-9 -1.6122313613107394e-9 0 2.911053925143752e-9 8.529644833376874e-9 0
          2.908253576388553e-9 8.551952931831729e-9 0 2.970700799047371e-9 8.584942884849764e-9 0
          -4.856504627416744e-9 -1.088187509171205e-8 0 -5.7303090657533e-9 -1.1005417788723936e-8 0
          -6.755361979354234e-9 -1.1164139318287421e-8 0
          <InformationKey name="L2_NORM_RANGE" location="vtkDataArray" length="2">
            <Value index="0">
              0
            </Value>
            <Value index="1">
              1.3048866701e-08
            </Value>
          </InformationKey>
        </DataArray>
      </PointData>
      <CellData>
        <DataArray type="UInt8" Name="vtkGhostType" format="ascii" RangeMin="0" RangeMax="0">
          0 0 0 0 0 0
          0 0 0 0 0 0
          0 0 0 0
        </DataArray>
        <DataArray type="Float64" Name="Stress" NumberOfComponents="6" format="ascii" RangeMin="6.3777995770543" RangeMax="126.08361528297343">
          4.802536185063772 -11.196869423091043 0 5.086354664964286 0 0
          17.18248122204444 -4.392911217088709 0 -10.397508758317299 0 0
          -5.3107834078863085 2.725750161256851 0 -2.2454828206872897 0 0
          -4.833822766513972 -3.5284406262952777 0 50.87235360575459 0 0
          -90.92357731839078 -20.362656769840022 0 -68.02716112101167 0 0
          118.46189163365631 32.55799808119837 0 28.351984663254253 0 0
          -6.8656871145802665 -12.391543400490699 0 27.63950985124564 0 0
          -118.39239090801567 -11.741573396676753 0 -37.78837364083151 0 0
          5.337003009944109 -11.372943725670044 0 4.247704883046866 0 0
          19.095353373165512 -3.0194987539225053 0 -9.451477664123855 0 0
          -11.367430601773632 -0.6334350348296238 0 -2.778847423112504 0 0
          -1.9116408460541057 -0.9793290276495288 0 54.225109621690166 0 0
          -85.83804828041976 -18.415061574970018 0 -71.31541525377446 0 0
          109.92847860926919 27.369129317537453 0 24.367741878344194 0 0
          -2.9402356772192366 -8.917448124183672 0 36.47893731688766 0 0
          -106.26407051225323 -12.361659704256985 0 -42.28207689829472 0 0
          <InformationKey name="L2_NORM_RANGE" location="vtkDataArray" length="2">
            <Value index="0">
              6.3777995771
            </Value>
            <Value index="1">
              126.08361528
            </Value>
          </InformationKey>
        </DataArray>
        <DataArray type="Float64" Name="Strain" NumberOfComponents="6" format="ascii" RangeMin="3.690613209419619e-11" RangeMax="7.882529418694906e-10">
          3.0982786918687964e-11 -4.96808830094124e-11 0 5.128740952984904e-11 0 0
          7.308738561600092e-11 -3.568855127903743e-11 0 -1.0484154665985081e-10 0 0
          -2.4038295713394655e-11 1.6479227696181e-11 0 -2.26419517684998e-11 0 0
          -1.551697653671359e-11 -8.935674913736072e-12 0 5.129628987879544e-10 0 0
          -3.405820677012624e-10 1.516257276909156e-11 0 -6.859405400678937e-10 0 0
          4.373530631008214e-10 4.254265402001872e-12 0 2.8588251274527634e-10 0 0
          -1.4225912993738716e-11 -4.208543842672336e-11 0 2.7869839091479175e-10 0 0
          -4.5911563492525405e-10 7.858223560436115e-11 0 -3.810327666069354e-10 0 0
          3.329794241084205e-11 -5.094803903537982e-11 0 4.283102423126342e-11 0 0
          7.925209554647594e-11 -3.224361728112546e-11 0 -9.530239979346364e-11 0 0
          -4.460487942876433e-11 9.51234821192692e-12 0 -2.8020044831416847e-11 0 0
          -6.5770413364536585e-12 -1.876635918545114e-12 0 5.467698553307668e-10 0 0
          -3.2238884578641884e-10 1.7535378288933008e-11 0 -7.190971026131806e-10 0 0
          4.088589047861288e-10 -7.377815468811052e-12 0 2.4570806449298563e-10 0 0
          -2.2693653693887365e-12 -3.2404478117166165e-11 0 3.678292845436614e-10 0 0
          -4.101530293088102e-10 6.32716243010061e-11 0 -4.263442744951226e-10 0 0
          <InformationKey name="L2_NORM_RANGE" location="vtkDataArray" length="2">
            <Value index="0">
              3.6906132094e-11
            </Value>
            <Value index="1">
              7.8825294187e-10
            </Value>
          </InformationKey>
        </DataArray>
      </CellData>
      <Points>
        <DataArray type="Float32" Name="Points" NumberOfComponents="3" format="ascii" RangeMin="0" RangeMax="10.000499987515525">
          0 0.10000000149011612 0 0 0.05000000074505806 0
          0 0 0 1.25 0.10000000149011612 0
          1.25 0.05000000074505806 0 1.25 0 0
          2.5 0.10000000149011612 0 2.5 0.05000000074505806 0
          2.5 0 0 3.75 0.10000000149011612 0
          3.75 0.05000000074505806 0 3.75 0 0
          5 0.10000000149011612 0 5 0.05000000074505806 0
          5 0 0 6.25 0.10000000149011612 0
          6.25 0.05000000074505806 0 6.25 0 0
          7.5 0.10000000149011612 0 7.5 0.05000000074505806 0
          7.5 0 0 8.75 0.10000000149011612 0
          8.75 0.05000000074505806 0 8.75 0 0
          10 0.10000000149011612 0 10 0.05000000074505806 0
          10 0 0
          <InformationKey name="L2_NORM_RANGE" location="vtkDataArray" length="2">
            <Value index="0">
              0
            </Value>
            <Value index="1">
              10.000499988
            </Value>
          </InformationKey>
        </DataArray>
      </Points>
      <Cells>
        <DataArray type="Int64" Name="connectivity" format="ascii" RangeMin="0" RangeMax="26">
          5 4 1 2 8 7
          4 5 11 10 7 8
          14 13 10 11 17 16
          13 14 20 19 16 17
          23 22 19 20 26 25
          22 23 4 3 0 1
          7 6 3 4 10 9
          6 7 13 12 9 10
          16 15 12 13 19 18
          15 16 22 21 18 19
          25 24 21 22
        </DataArray>
        <DataArray type="Int64" Name="offsets" format="ascii" RangeMin="4" RangeMax="64">
          4 8 12 16 20 24
          28 32 36 40 44 48
          52 56 60 64
        </DataArray>
        <DataArray type="UInt8" Name="types" format="ascii" RangeMin="9" RangeMax="9">
          9 9 9 9 9 9
          9 9 9 9 9 9
          9 9 9 9
        </DataArray>
      </Cells>
    </Piece>
  </UnstructuredGrid>
</VTKFile>
