<?xml version="1.0"?>
<VTKFile type="UnstructuredGrid" version="0.1" byte_order="LittleEndian" header_type="UInt32" compressor="vtkZLibDataCompressor">
  <UnstructuredGrid>
    <Piece NumberOfPoints="307" NumberOfCells="134">
      <PointData>
        <DataArray type="Float64" Name="Velocity" NumberOfComponents="3" format="ascii" RangeMin="0.2516487929858459" RangeMax="1.0969741407837144">
          0.9202458369623331 0.0000038250586995972194 0 0.9203361109338408 0 0
          0.9199603264633789 0.00005679088470689107 0 0.9199668739572593 0.000060654625585277265 0
          0.9204369125970129 0 0 0.9198853933350473 0.0000072757058640415204 0
          0.9200400213738866 0.00006239567875384645 0 0.9198955645607017 0.00010805092172355909 0
          0.9205540296485721 0 0 0.9202802246099913 0.00015840652171644567 0
          0.9200672462608853 0.00011540612735968241 0 0.9199470285099531 0.0000823356806843699 0
          0.920337109544209 0.0001474828808591189 0 0.9207278760025794 0 0
          0.9204104730098437 0.0002018818629600655 0 0.9200964798771466 0.0002790275892979093 0
          0.9201665906773856 0.00009303653104048034 0 0.919320217346404 0.00009238181030547096 0
          0.9191880502599483 0.00012186051362238192 0 0.9204731309957381 0.00033322685810739726 0
          0.9209409071251196 0 0 0.919071954995738 0.0001904797440575847 0
          0.920274763319449 0.0001053915672139786 0 0.9201906583788062 0.00021811633730597105 0
          0.9189293930693478 0.00021072799996337587 0 0.9205040266861894 0.000390062481320972 0
          0.9212650832219135 0 0 0.9201895551889971 0.000030225259639941833 0
          0.9202428528861889 0.00009417691449036137 0 0.9186959508567439 0.00030410140304339085 0
          0.9204411541048506 0.0005073791573688159 0 0.9202458868219288 0.0001972028755003817 0
          0.9206638659425125 0.000633875561859102 0 0.920398801488697 0.00019443080260736744 0
          0.9203099504338829 0.00013294871019598536 0 0.9183327637993982 0.00037636612107895594 0
          0.9216638965051066 0 0 0.9201384571503243 0.00018726009558418861 0
          0.9206585959636094 0.00018598161156574425 0 0.9201000755030818 0.00008378581237150703 0
          0.9207751565742508 0.000695279060493774 0 0.9202847715199982 0.0002926497719345246 0
          0.9204390966626025 0.00031835796981664123 0 0.9178308071226189 0.0005221693048546297 0
          0.9200379189324944 0.0003184301332516155 0 0.9221803873534562 0 0
          0.9204626570675957 0.0002340060442879112 0 0.9201135419433825 0.0001786397225313435 0
          0.9210189527549024 0.0011149574417693257 0 0.9211195918330598 0.0009154137669992855 0
          0.919396146446983 -0.000025885700237306057 0 0.9192756261590992 0.00006533124818893399 0
          0.9172342816615404 0.0006441244499962395 0 0.9207893907850743 0.00032295896025074386 0
          0.9191920562721617 0.00013710804126457942 0 0.9202076704165089 0.0006901024600861857 0
          0.9204375684755709 0.0005178103584281706 0 0.9228065168455973 0 0
          0.9190145027829257 0.00004774739133946792 0 0.9210732739172922 0.001249814876729526 0
          0.9216527237552267 0.00038241901499881756 0 0.9163693207967005 0.0008513601309936386 0
          0.9201511570966213 0.00019984668525853183 0 0.9188416126193818 0.0002323660595078006 0
          0.9208902219058247 0.0005352614615850656 0 0.9207655411538321 -0.000006860214341527853 0
          0.9208469219522765 0 0 0.9207372516590324 0.0003490457472240628 0
          0.9208816963479708 0 0 0.9236271140929893 0 0
          0.9184750783689509 0.00014999211949679164 0 0.9209179350017481 0 0
          0.9200966408580763 0.0012339605897737278 0 0.9214363917057857 0.0018994400983159095 0
          0.915262378966923 0.0010695600756041375 0 0.922540949432594 0.0016057180522148697 0
          0.9210457358091902 0 0 0.920626615226328 0.000750813038929295 0
          0.9214969606962072 0.0005084891786711811 0 0.9183032146643078 0.00037875988262276404 0
          0.9211346638566055 0 0 0.9202492686362477 0.0003445492741205992 0
          0.9245938409568524 0 0 0.9213829458357694 0.002166166863395312 0
          0.913739069570186 0.0013322664962714197 0 0.9235806607069961 0.0006956906889704843 0
          0.9176264636889704 0.0002601997338001573 0 0.9213139269401521 0 0
          0.9210894172580788 0.0004890540459204724 0 0.9217018470914793 0.0009416828958986406 0
          0.9204422720950626 0.0019920738411971345 0 0.9215123904978026 0 0
          0.9259235088794455 0 0 0.9173117734779043 0.0006461999981051045 0
          0.9116621308752685 0.001679311223460282 0 0.921893479564249 0.00316242896489298 0
          0.9208652836983701 0.001040819245275403 0 0.925506390987121 0.002679177141366395 0
          0.9209083732220429 0.0005651339804072874 0 0.921842758709654 0 0
          0.9226351242675614 0.001025029292713727 0 0.9162521063729335 0.0004743649143507726 0
          0.9275644687033876 0 0 0.9089013849223505 0.0018708880679425782 0
          0.9216143921331087 0.0004935337696873794 0 0.9206888937394416 0.003976692296722722 0
          0.9220372386649762 0 0 0.9215055317037658 0.0031475367701109943 0
          0.9276405876453755 0.0013919977004630164 0 0.9157702090760869 0.0011195262205196243 0
          0.9230765043026367 0.0020642512629621412 0 0.9224257498199776 0 0
          0.9206585354023119 0.0008306177209752828 0 0.9044344138174693 0.002359990947983865 0
          0.9235622808628413 0.0013047721006437076 0 0.9299401487825215 0 0
          0.9212993567294531 0.005040370069569916 0 0.930413084194718 0.0043096803868098825 0
          0.914169625535871 0.0006705428263995462 0 0.92441076503635 0.0025028968455033675 0
          0.9225454032554724 0 0 0.9220323460622583 0.00012917910241801208 0
          0.9260718124648444 0.0049250702939816135 0 0.8991313973302381 0.0022377377210380405 0
          0.9170194629101736 0.006603010569368626 0 0.9134322303725586 0.0018839355832038602 0
          0.9313007460070193 0 0 0.9330472512380112 0.001988926594227513 0
          0.9261207686722841 0.002733919629807556 0 0.9231049691753727 0 0
          0.9305234827728418 0.0025406890709268872 0 0.9188940828895694 -0.0007765437822059061 0
          0.8889129407255065 0.0027203211106895876 0 0.9177619769960883 0.00872243435185282 0
          0.9273959812689728 0.004330424330053726 0 0.9113863802537056 0.0010247757204083021 0
          0.9322431767023672 0 0 0.9229141111853864 0 0
          0.9302576839341323 0.0024078330740007112 0 0.9357103998431251 0.006980713187403423 0
          0.9214308645118381 -0.0020054432099360356 0 0.9423389990817379 0.006965309143901415 0
          0.877139498141816 0.0035410834286725298 0 0.9250563661090233 0.007588183724056442 0
          0.9109117190640588 0.0025547812633900805 0 0.9055989634063973 0.014295349844520466 0
          0.9314929551246562 0.008076729146127976 0 0.923410816895588 0 0
          0.9349615849245965 0 0 0.8522790763501632 0.002465445506125043 0
          0.9185521461982602 0.006987630858025146 0 0.9529606422094472 0.003312110532991651 0
          0.9350127436794794 0.0052894613105397 0 0.9099273928090765 -0.010036932797366678 0
          0.9067939771549729 -0.002813211334808642 0 0.9492351642336955 0.00880961521073946 0
          0.9016131979356128 0.013806375354969196 0 0.925702243226775 0.007710324734894386 0
          0.8312289707641758 0.004565296185049687 0 0.9285182868754343 0 0
          0.9048885042126341 -0.004957003168218687 0 0.9022539083625337 0.0033166310214970828 0
          0.9404698470628863 0 0 0.9300482297837926 0.0024945945334792757 0
          0.9330123406122878 0.00988666360592652 0 0.9686972604325813 -0.001002228633398145 0
          0.8973270710614852 0.015966563132669805 0 0.9077505478137303 0.0008989167369502214 0
          0.9601940838299661 0.017656422446317897 0 0.8118512324683383 0.002424985201989888 0
          0.9399047285046878 0.006766886561222256 0 0.8998621702194148 -0.011227916881970649 0
          0.9299851918122644 0 0 0.9275315866225896 0.011480477021019949 0
          0.9889561749077379 -0.007425981259380211 0 0.7878543531787188 0.0027300264735775565 0
          0.9397198765217881 0.014911902160696315 0 0.9495529783888741 0 0
          0.8925203406893738 0.0011522089027966571 0 0.8768951009659338 0.022081276003226485 0
          0.9310238397331458 0.005729851649740213 0 0.9074633242838646 -0.002766110019398541 0
          0.9704667947606012 0.02160323455701865 0 0.8820049240155461 -0.01727818677135165 0
          0.945943188910947 0.008495899643494818 0 0.9344331523349941 0.016326133463512024 0
          0.7565524405440426 0.0019049561434464853 0 0.9317210723926199 0 0
          0.8677685669787831 0.02507494255607319 0 0.9595885485990787 0.023463498371402776 0
          0.9349729219747153 0.01446144964181825 0 1.0072147260449262 -0.013420323710314474 0
          0.8749698740058691 -0.019016474268837878 0 0.9430790173618798 -0.001760867011667903 0
          0.9591006983543385 0.027385921491124166 0 0.722842697613979 0.004023031220993178 0
          0.9600979750564932 0 0 0.9506230110605657 0.019980649497942104 0
          0.8789711107644698 0.002778407595421817 0 0.9074329256353516 -0.004710459644921795 0
          0.9565053236414685 0.009121923697524764 0 0.9360554961697892 0.019684636063129826 0
          0.9882597481948096 -0.012471355738587066 0 0.8092884334160578 0.037339172799515555 0
          0.9723324427587353 0.036317204711938944 0 0.9921422943073307 -0.01947843448405931 0
          0.9373482135779403 0 0 0.6696704316968417 0.001316222199863704 0
          0.8108430671096443 -0.03644842636931245 0 0.9192089696040487 -0.0009062883788534473 0
          0.9452962613591874 0.018049035528003538 0 0.9372505968360099 0.046703339217125744 0
          0.963797954587274 0.03349893837427505 0 0.7767866934216674 0.028662761994214903 0
          0.6293655905813013 0.0033762861648358963 0 0.9667150060946847 0.0007204141974754803 0
          0.7743520240574628 -0.023558882239117323 0 1.0152133974868949 -0.026008255484585834 0
          0.9445799552533176 0.027143441455876736 0 0.971867102686358 0 0
          0.9815575185580119 0.040576409555428586 0 0.9675793809315103 -0.04672341628121262 0
          0.870124917915173 -0.004397392284118483 0 0.7477694518570399 0.04122383259740031 0
          0.9068139311378054 -0.008315169615628204 0 0.9313167094076525 0.052991408741432926 0
          0.5917460058227421 0.0017179222804786785 0 0.9499037098136568 0 0
          0.9680248607536128 0.009379460535682527 0 0.7421852540268274 -0.039077009509974676 0
          0.97387279629842 0.03296453093829525 0 0.9489767374511662 0.023125471000910638 0
          0.8972425384499757 -0.007896317952022204 0 0.9866360943508614 -0.022352941628296367 0
          0.9559146385785214 -0.04957076882464237 0 0.9983581676324347 0.06241845159080155 0
          1.033174261672323 -0.03475235822016894 0 0.5394268973197927 0.0015841782467990759 0
          0.6813130151388582 0.05608881480445082 0 0.9581613405686856 0.029015373872141436 0
          0.9175000379510246 0.07471504169938599 0 0.6758269178321927 -0.051273566525322056 0
          1.0167363106721152 0.05608854641766519 0 0.4670549033759277 0.00018022275751333893 0
          0.9837791879302459 0 0 0.6453628631603919 0.059968517806871235 0
          0.8690715878938764 -0.01108216290965813 0 0.9066279030125447 -0.011672911212547482 0
          0.9725181078645623 0.011179732571733773 0 0.9337098606529484 -0.0704950936802795 0
          0.9915059947409137 0.07602991394526488 0 1.0574363268712872 -0.057600405560886934 0
          1.0070453260579861 -0.01600732517204707 0 0.9212269778730103 -0.01197860952565933 0
          0.6421989266306375 -0.061824817863905555 0 0.9663860012937467 0 0
          0.9534870299567851 0.024314367620201675 0 0.8331038190332022 0.07578812386858057 0
          0.3875447170574113 -0.0021962320835937645 0 0.9950506987311485 0.04981876544311337 0
          1.0383758001114063 0.056984255218327375 0 0.8459042352568735 -0.0737338527551845 0
          1.0410687314068428 -0.06890039093916021 0 1.0755730587791996 -0.04933814879946062 0
          0.9866347969451232 0.1091716056494546 0 0.4974748434682701 -0.06830537154062484 0
          0.8651966925838562 -0.025889035215082568 0 0.9378184001402499 -0.009021992807180418 0
          0.9286066185237807 -0.012148477705176363 0 0.9890101181829349 0 0
          1.0181777602524107 -0.056098753791065936 0 0.8620884398123524 -0.011497254223024318 0
          0.9140272343835243 -0.009396476804885423 0 1.0125792606117316 0 0
          0.7258416394598347 -0.1152894986649333 0 0.25164382582117895 0.0015811190066860328 0
          0.41143897692865716 -0.0439594280047853 0 0.305386153703446 0.001381431437543362 0
          1.0953965073947614 -0.05881119906554194 0 1.0302331409550438 -0.10802374008387863 0
          0.722761854170287 0.11631290374041764 0 0.41456260449167 0.04664320562995221 0
          0.49921044288021704 0.07043423964243141 0 1.0823567950763497 0.0726813097703413 0
          0.9269801783891155 0.11452915134340885 0 1.0807086803806412 0.08095605795685419 0
          1.050936512899234 0.03957317964659327 0 1.07186894259605 0.06963565424076669 0
          1.0341390655040714 0.06492657882983546 0 1.0021451064202902 0.03176979692537539 0
          0.981934203236267 -0.015114766279736134 0 1.0158294408516813 0.015098107057248416 0
          0.9675568351521291 0.01206466480513375 0 0.9848302436715826 -0.0006359466839074264 0
          0.9764270138973175 0 0 0.982613606642979 -0.010876010552101509 0
          0.985075801077587 0 0 1.0926735444393307 -0.03542422534808376 0
          1.0836396218333886 -0.059618806269533094 0 1.0071785492799552 -0.02614371411008693 0
          0.8646294845870528 0.005759703980252735 0 0.8612785811596525 -0.011098217831159073 0
          1.0043774244188068 -0.022291320171508124 0 0.9278914771026995 -0.008059503843500874 0
          1.0105349264615553 0 0 1.0191715127844327 0 0
          0.9359210096960858 0.009622244528779597 0
          <InformationKey name="L2_NORM_RANGE" location="vtkDataArray" length="2">
            <Value index="0">
              0.25164879299
            </Value>
            <Value index="1">
              1.0969741408
            </Value>
          </InformationKey>
        </DataArray>
        <DataArray type="Float64" Name="Pressure" format="ascii" RangeMin="0" RangeMax="0.45456601890449216">
          0 0.019578166133857027 0 0.01956394402000776 0.039149164273782754 0
          0.04739368631091341 0.027825426978199473 0.05874141783770298 0 0.06695156346926498 0.055655842558667276
          0.01979551270053047 0.07829582656570681 0.04764888376630066 0.07671341319262757 0.08801606429496783 0
          0.019768500145721762 0.06744583994091888 0.0978997119970536 0.039555716720620526 0.09779918445768536 0.10757116136736405
          0.05929524334871803 0.08852974411444915 0.11742987798970096 0 0.019806927374523074 0.07912203451806184
          0.11767264452168458 0.04764833245905408 0.10833511230037762 0.12745509401002275 0.06747007915992179 0.09879338343926011
          0.1370486520012391 0 0.13758688594927845 0.02784751899058257 0.12826293896409008 0.08854436557922797
          0.14700128534047865 0.11867059433637807 0.05568258479237836 0.15654598336256784 0.10837798456235076 0.07677393228644784
          0.14805583665082725 0.15718363298089752 0 0.019552874632470272 0.13829751424002729 0.1665965026520884
          0.0473810963423504 0.09784084571485746 0.12828052556749364 0.17618093541124166 0.06692426395307983 0.1677194019062984
          0.17682838438045145 0.1582173798253538 0.11778283970400567 0.08799056275793257 0.18612716061065562 0
          0.019604644910593834 0.1481351247101121 0.0391813633116922 0.19562805900295563 0.10753365952384987 0.058835675107279335
          0.13768322159120197 0.18750048246238818 0.17778970935964789 0.1963085358299284 0.0783471860686262 0.1677748874209061
          0.20557274826966204 0.12743327797900295 0.09804910268081525 0.157364470310835 0.21523274564248898 0.2071691681862256
          0.19774315068877596 0.21588335352280594 0.1469750344533684 0.11752488729906584 0.1876507707632902 0.22509794500252686
          0.17699014009661196 0.13730368100471074 0.23454733003403927 0.1665927792749877 0.21720476985850382 0.2269133914123365
          0.20720332370197436 0.23498080523100642 0.1965987693761562 0.15670271349828746 0.2440484466084773 0.18612909646485593
          0.2539642348901561 0.23727286105196777 0.2271296448653276 0.24629700180386743 0.1765681586125944 0.21609078696965434
          0.25433645696062485 0.20567604964426914 0.2634905383314685 0.1958857263888045 0.24635268403491947 0.2551983636562065
          0.2354851988677377 0.27305211826206693 0.2645938600305929 0.27191889040212996 0.22525352642279453 0.2811140133099618
          0.21584135923043724 0.2647228360501309 0.2547405337075532 0.27404153334287945 0.28266780178174117 0.24427662034469744
          0.2917555774627807 0.289980740949165 0.2948610160800502 0.23503775274678523 0.27259348962893987 0.2826106245674965
          0.2897818293011949 0.298639738667028 0.3039145501873669 0.263946209002184 0.31058737758812105 0.2547666889476057
          0.3137089789022589 0.29053883491508936 0.29879708324458965 0.3114504191461949 0.30784576019752513 0.3171069008394095
          0.2817837333796067 0.32112282891684124 0.3249547124591451 0.27336203937455744 0.328792835461483 0.32191161323903367
          0.3049335599738932 0.31202067004377787 0.3316292501139826 0.3214907097591666 0.2957688349765222 0.3336382043488103
          0.33539033179497263 0.33828563966262315 0.33621464626995207 0.2926756069056699 0.33591715227338914 0.31812748383267286
          0.34590419963344887 0.326060300370743 0.34740752879988235 0.3346522309797302 0.3478936871719603 0.31495714175559425
          0.35152799235375115 0.3486289687297836 0.35174406989461343 0.34846034231284484 0.3121008263578909 0.35892147857190737
          0.3527543069528518 0.36256551592556485 0.3638387074839819 0.3619081678937238 0.3397251243085464 0.36703435447203503
          0.3490925013652903 0.3334211852805088 0.3694127761541594 0.3680873883469758 0.36756362532470255 0.36933948625095353
          0.37362642517065675 0.3308739391635803 0.37771631924085436 0.3771729751567949 0.3731394610858061 0.37158219959534255
          0.37902150994324557 0.36535268653928893 0.38350835096017405 0.3875564469193434 0.37664076246564626 0.3816876242778838
          0.360787680415534 0.3540615304735991 0.38095985580630054 0.3831450517647625 0.37864384608336327 0.39439760164616733
          0.38910028491700205 0.385366595516858 0.34784274389394537 0.39686521475562425 0.39605522164934126 0.37082804912404266
          0.3855517303198212 0.3981759618721967 0.38956865371592 0.4031115456457202 0.4051444473640104 0.3828896898727824
          0.4049355349923383 0.3914165288299958 0.3904554381452425 0.38977702245026635 0.4001520162391426 0.40094005239746067
          0.3762800682877164 0.4106453212791307 0.37097987045833714 0.4075786143707076 0.41277217316554055 0.3652352649555622
          0.393589188698268 0.4123972436105491 0.3962494468042304 0.3936247239953317 0.3862824810931136 0.3921961757513876
          0.41035564613510783 0.40368167727383597 0.4024798727517464 0.42228224922687324 0.4210342632925201 0.39564051429976377
          0.4133552029780569 0.42216605885200575 0.3974824082846844 0.4259467109796122 0.4036436595301031 0.4222551233399285
          0.38949807388059254 0.3944718575459822 0.4034368330454747 0.41640039412231766 0.4075355684847496 0.4075008221828332
          0.3980940012719593 0.3848787410192075 0.42480886090015596 0.3805372771236364 0.3978340535042771 0.41582197069159604
          0.43018487531695704 0.3960937157274103 0.39739636915457965 0.41879888206653415 0.4099213330887487 0.3999828943151109
          0.4001698479500085 0.42538493608036687 0.3979959354533758 0.39747652337616096 0.3985419764319385 0.39489850920614544
          0.4008223575360943 0.4033088421052444 0.41060447152887275 0.40943631093704197 0.41218572310155 0.4161429613977623
          0.4158921828197286 0.42663133468890924 0.4021797549156241 0.40519562353818267 0.410082137015784 0.41467320218987697
          0.423838019849642 0.3726473403454386 0.39241753248862815 0.38678166539786346 0.38479001827532694 0.37546697350456065
          0.3912811488325304 0.39496526043977753 0.42615859414254104 0.3990374383861595 0.40556661661430427 0.41765604643129817
          0.44270726579563413 0.4391908430637922 0.4205231595084805 0.3911534167680228 0.3976534332432473 0.4017131763318786
          0.43959553505165805 0.4141056082079038 0.40914197283873865 0.426917787427666 0.45456601890449216 0.42874569356394954
          0.45156017804816584
        </DataArray>
        <DataArray type="Float64" Name="Temperature" format="ascii" RangeMin="-0.0019112263905505294" RangeMax="154.99510168647473">
          0.08706602737636827 0.11783756055091256 0.04799246322737817 0.07950588480818488 0.16269073504708256 0.07544409081222231
          0.1524471992319768 0.08749445333491492 0.22769906083769256 0.05521825621343526 0.2195022488787142 0.1607021119449308
          0.08350708014240307 0.33448664927420535 0.14617155187647138 0.2604750852674447 0.33561351731809425 -0.0019112263905505294
          0.019123720118073635 0.199325198548398 0.4891986749096064 0.03725666276235515 0.39894114108498546 0.49279481306311185
          0.07278140063344715 0.2896045725420103 0.7061350360443777 0.048939413988854784 0.06679692429434507 0.12323788420120327
          0.5845982210829127 0.10249344408358821 0.44119339585571493 0.7378584961774406 0.14875944166711091 0.1715802541905868
          1.0386796671257554 0.052139866101622495 0.8697911987802407 0.11289246528678679 0.63433324558785 0.20862025123237754
          1.068477298870817 0.2526716012624393 0.1835364449644926 1.4961170591271837 0.32368675645770517 0.27640068759209013
          0.9360022675055006 1.2788447476689073 0.053020636235308664 0.07863881441327839 0.3939201453724021 1.5678598116486437
          0.15128620008431595 0.404927504980469 0.44875953813456776 2.184368195595126 0.24288976065213105 1.3384610854646843
          1.8631934683979952 0.5714777079985794 0.6032559098964595 0.3829713803945125 2.262161904802342 0.1345557097159748
          0.1639090454466539 0.6729057209367839 0.22823843990665058 3.1212459909123407 0.5696066740257658 0.31622182659273884
          0.8920654964400955 1.9268356886687434 0.8839476441138532 2.7006595202093826 0.4340309677084009 0.9376529582113916
          3.2456948620245316 0.8671751183568288 0.6175894812160262 1.29782725837725 4.523468660104738 2.8109932641292144
          1.2900056074144752 3.8541891354066715 1.2798343340618143 0.8799223142487376 1.3720305548195681 4.668767467488106
          1.8712607161306605 1.262968967160549 6.376601507230791 1.8907932601629336 1.8691827392278597 3.9658591076452425
          1.892817181641435 5.508749036759098 2.684926180371014 1.8067595990651797 6.504682983299689 2.768329495935468
          9.126783495807246 2.7099932065003904 2.752561325650642 5.490790317969023 2.5849528581845695 3.7967849770889983
          7.678210998828793 4.018563374858116 9.206791854622784 3.694433238850391 3.5574657810778234 3.7983083654730634
          5.122151761631165 12.693533462667947 7.468402479638089 10.43046801266844 5.83163509781123 12.326693176049423
          5.254659333495746 4.9402910703552 6.765653274495714 5.244842872716495 9.639681306924803 8.007406678154952
          17.989536607833095 13.849765682407195 16.199783308256855 7.4842732857018595 7.984081731356317 6.308926968451471
          6.525561303545837 12.487413388999382 17.370702195175976 11.541503441179303 24.432508463081515 10.672412904400943
          22.243441968047815 9.550421915384783 8.586567372385002 19.42344943910725 8.487522459930492 21.705292601662048
          15.078971646720309 16.142446143260994 24.23447788536083 14.958362817467462 33.20606480454042 9.788789885562279
          15.948476769148245 12.891512730603097 29.993123522867556 11.551193560104956 21.3260895898545 26.150921122474877
          19.95573487044557 30.752480807079202 11.932449782710064 20.559542316433948 14.495240469115227 25.144985535649095
          43.93099948998293 18.813486012833376 33.86959902797414 17.1852411799255 24.20035799218516 29.368035051422293
          33.67138948807704 14.111226841705339 41.170021318388414 17.402839467579224 28.98552282793928 41.87853144192955
          22.003797827499362 16.69834913581935 42.99320464568106 57.88799036385864 36.17086052627532 30.2754498802573
          26.504665718242066 40.40069381697508 42.608899042214745 22.23546145601159 52.35969408726738 48.62678663470255
          18.585870268303076 39.098268756214054 34.98150342949866 48.07810821618419 52.225438018414636 27.232388346015206
          26.33450503120488 32.42805748693029 48.72005717224558 21.07928071062173 72.71699760836096 53.98248736418431
          50.681184410876284 57.079601908333224 65.78872279887658 59.8246675219239 28.806263215201145 36.87483040320643
          55.962365921579895 33.69523194156868 52.387935663151126 23.85099371304898 29.086780042286765 45.21265496559563
          63.15730359174108 54.318853525871056 61.33635587044017 39.93420054370111 26.33746174873034 36.74974336988052
          32.02683934850338 34.47118351565126 67.4331002327958 88.86025453436568 63.53676933733107 39.36983930194575
          69.86973193736058 44.12338667067644 75.0989118067461 59.885348555566075 28.279750793879618 67.83317261018263
          77.69353612688538 35.695514515287464 68.45559786294146 72.44669091932461 63.08755884959701 38.43989354872469
          44.83600238459873 69.52797359134524 38.4030472822117 29.592791830855532 47.3933041993544 74.39100192109731
          65.71744181122405 39.426694491083225 73.56120818895336 31.473450587885736 102.8964821933724 49.6826324668188
          94.0599003035064 69.82258126615383 81.24155501974174 50.0990232229299 73.2079532360437 42.79209465703701
          39.70414129282912 96.04776193934919 42.63846365504117 86.76401205852167 79.60549604870482 65.03087158751192
          32.106397138543805 77.75305459945861 77.56867429305593 53.53146717163378 47.09147561990428 42.012071030169814
          75.79660519283058 42.16199255088702 97.74679187154183 60.35158573963762 117.23968527606645 104.47770308730811
          52.900109600493224 93.63463847955879 131.8602604746934 122.71207204444471 55.535410131723545 36.48813648078867
          41.820558529567364 34.967368961555195 42.846996318248394 54.05758050663846 63.719979617856275 46.12390001117404
          47.055896368603086 81.51916319928004 75.35327887804767 79.26415648739592 80.97712752263068 81.00190341222053
          79.59473449261425 80.18042691563564 80.61226414210824 81.69488128173077 83.10693394623405 87.24974035060889
          111.03849421287232 85.16313698819974 111.91844332510968 43.28022577996638 42.00469425575748 63.01962346993592
          119.5655836772334 109.65957755394896 68.39190462838582 147.1653905269538 129.183829880266 129.32558742158625
          154.99510168647473
        </DataArray>
      </PointData>
      <CellData>
        <DataArray type="UInt8" Name="vtkGhostType" format="ascii" RangeMin="0" RangeMax="0">
          0 0 0 0 0 0
          0 0 0 0 0 0
          0 0 0 0 0 0
          0 0 0 0 0 0
          0 0 0 0 0 0
          0 0 0 0 0 0
          0 0 0 0 0 0
          0 0 0 0 0 0
          0 0 0 0 0 0
          0 0 0 0 0 0
          0 0 0 0 0 0
          0 0 0 0 0 0
          0 0 0 0 0 0
          0 0 0 0 0 0
          0 0 0 0 0 0
          0 0 0 0 0 0
          0 0 0 0 0 0
          0 0 0 0 0 0
          0 0 0 0 0 0
          0 0 0 0 0 0
          0 0 0 0 0 0
          0 0 0 0 0 0
          0 0
        </DataArray>
      </CellData>
      <Points>
        <DataArray type="Float32" Name="Points" NumberOfComponents="3" format="ascii" RangeMin="1.2206555547371665" RangeMax="7.102112369882704">
          7 -1.2000000476837158 0 6.75 -1.2000000476837158 0
          7 -0.8999999761581421 0 6.75 -0.8999999761581421 0
          6.5 -1.2000000476837158 0 7 -0.6000000238418579 0
          6.394499778747559 -0.9138727188110352 0 6.644499778747559 -0.6138727068901062 0
          6.25 -1.2000000476837158 0 7 -0.30000001192092896 0
          6.144499778747559 -0.9138727188110352 0 6.289000034332275 -0.6277452707290649 0
          6.74733304977417 -0.30000001192092896 0 6 -1.2000000476837158 0
          6.3918328285217285 -0.31387269496917725 0 6.0198750495910645 -0.618924081325531 0
          5.875374794006348 -0.9050514101982117 0 7 0 0
          6.74733304977417 0 0 6.139166831970215 -0.31387269496917725 0
          5.75 -1.2000000476837158 0 6.494667053222656 0 0
          5.7507500648498535 -0.6101027727127075 0 5.625374794006348 -0.9050514101982117 0
          6.242000102996826 0 0 5.870041847229004 -0.30505138635635376 0
          5.5 -1.2000000476837158 0 7 0.30000001192092896 0
          6.74733304977417 0.30000001192092896 0 5.989333152770996 0 0
          5.4964599609375 -0.6214873194694519 0 6.3918328285217285 0.31387269496917725 0
          5.617374897003174 -0.30505138635635376 0 5.371085166931152 -0.9164357781410217 0
          6.139166831970215 0.31387269496917725 0 5.736666202545166 0 0
          5.25 -1.2000000476837158 0 7 0.6000000238418579 0
          5.24216890335083 -0.632871687412262 0 6.644499778747559 0.6138727068901062 0
          5.363083839416504 -0.3164358139038086 0 5.870041847229004 0.30505138635635376 0
          5.121085166931152 -0.9164357781410217 0 5.484000205993652 0 0
          6.289000034332275 0.6277452707290649 0 5 -1.2000000476837158 0
          5.617374897003174 0.30505138635635376 0 6.0198750495910645 0.618924081325531 0
          5.11041784286499 -0.3164358139038086 0 4.991260051727295 -0.6318150162696838 0
          7 0.8999999761581421 0 6.75 0.8999999761581421 0