<?xml version="1.0"?>
<VTKFile type="UnstructuredGrid" version="0.1" byte_order="LittleEndian" header_type="UInt32" compressor="vtkZLibDataCompressor">
  <UnstructuredGrid>
    <Piece NumberOfPoints="51" NumberOfCells="75">
      <PointData>
        <DataArray type="Float64" Name="nsi_BC" NumberOfComponents="3" format="ascii" RangeMin="0" RangeMax="100">
          0 0 0 0 0 0
          0 0 0 0 0 0
          0 0 0 0 0 0
          0 0 0 0 0 0
          0 0 0 0 0 0
          0 0 0 0 0 0
          0 0 0 0 0 0
          0 0 0 0 0 0
          0 0 0 0 0 0
          0 0 0 0 0 0
          0 0 0 0 0 0
          0 0 0 0 0 0
          0 0 0 0 0 0
          0 0 0 0 0 0
          0 0 0 0 0 0
          0 0 0 0 0 0
          0 0 0 0 0 0
          0 0 0 0 0 0
          0 0 0 0 0 0
          0 0 0 0 0 0
          0 0 0 0 0 0
          0 0 0 0 0 0
          0 0 0 100 0 0
          0 0 0 100 0 0
          100 0 0 100 0 0
          100 0 0
          <InformationKey name="L2_NORM_RANGE" location="vtkDataArray" length="2">
            <Value index="0">
              0
            </Value>
            <Value index="1">
              100
            </Value>
          </InformationKey>
        </DataArray>
        <DataArray type="Float64" Name="nsi_FIXNO" NumberOfComponents="3" format="ascii" RangeMin="1" RangeMax="1.4142135623730951">
          0 1 0 -1 -1 0
          0 1 0 -1 -1 0
          -1 -1 0 0 1 0
          -1 -1 0 -1 -1 0
          -1 -1 0 0 1 0
          -1 -1 0 -1 -1 0
          -1 -1 0 -1 -1 0
          0 1 0 0 1 0
          -1 -1 0 0 1 0
          0 1 0 -1 -1 0
          -1 -1 0 -1 -1 0
          0 1 0 0 1 0
          -1 -1 0 -1 -1 0
          -1 -1 0 0 1 0
          -1 -1 0 0 1 0
          1 1 0 -1 -1 0
          -1 -1 0 1 1 0
          0 1 0 -1 -1 0
          1 1 0 -1 -1 0
          -1 -1 0 -1 -1 0
          0 1 0 -1 -1 0
          0 1 0 -1 -1 0
          -1 -1 0 1 1 0
          0 1 0 1 1 0
          1 1 0 1 1 0
          1 1 0
          <InformationKey name="L2_NORM_RANGE" location="vtkDataArray" length="2">
            <Value index="0">
              1
            </Value>
            <Value index="1">
              1.4142135624
            </Value>
          </InformationKey>
        </DataArray>
        <DataArray type="Float64" Name="Velocity" NumberOfComponents="3" format="ascii" RangeMin="0" RangeMax="171.8224248112907">
          94.7951243538478 0 0 104.39511088279357 -6.3858129200076865 0
          119.64220943615553 0 0 115.3432360760249 -3.2333254219241754 0
          96.47397240441427 5.070931359703073 0 111.92634823282278 0 0
          121.82619502676506 -1.922145294491699 0 101.86850630722418 -1.9623867353369284 0
          106.75493697351872 9.186797653490979 0 105.54769380915364 0 0
          107.593334438596 2.1516879843824657 0 111.02231370744182 -0.01260339709575838 0
          91.42005913178421 -13.580235678875098 0 89.78871824326309 0.8936203797284947 0
          89.95683512469849 0 0 95.85686588410441 0 0
          98.09709782216169 8.315675302667088 0 126.49692112177422 0 0
          110.27011567106553 0 0 78.57261416725746 10.398062942242616 0
          79.16659437250098 -16.176924742562143 0 83.60402890182324 3.0882568095261544 0
          112.8614827802927 0 0 40.32814324130787 0 0
          85.71401467539732 -9.899006226927018 0 95.37048592214872 -16.87784148680678 0
          114.49553607966048 24.364744085474115 0 78.12335950989524 0 0
          93.37094408158268 22.545972527651188 0 18.133175417257167 0 0
          0 0 0 37.75304544173101 -10.436088125099337 0
          82.18700373981613 13.700374118557878 0 0 0 0
          34.945909167646526 0 0 55.6826463753583 -8.290474368725718 0
          0 0 0 -80.22803156876384 32.40975948799413 0
          -50.529785430854794 -71.18661787930806 0 -171.23812714347144 -14.158018238014444 0
          -82.44159101503452 0 0 -104.53087955892752 34.504712902588494 0
          -47.2088110280913 0 0 -101.75757455844756 8.238333647657768 0
          -102.38616162449469 -58.71708781061874 0 100 0 0
          -107.94097363484188 0 0 100 0 0
          100.00000000000001 0 0 99.99999999999999 0 0
          100.00000000000001 0 0
          <InformationKey name="L2_NORM_RANGE" location="vtkDataArray" length="2">
            <Value index="0">
              0
            </Value>
            <Value index="1">
              171.82242481
            </Value>
          </InformationKey>
        </DataArray>
        <DataArray type="Float64" Name="Pressure" format="ascii" RangeMin="-6412091.823797564" RangeMax="35815.0141003069">
          -30443.16170835456 -49030.78682261125 35815.0141003069 -10143.240457901575 -34605.94359874727 -126523.75289135145
          -13329.967412936709 -321932.0459549958 -3254.360101865112 -427996.21769465687 -202054.71631696026 -59651.76524641877
          -658244.4510610164 -470315.3091835235 -10949.863081633357 -649316.9113305707 -307253.7743362891 25060.625573684003
          -145335.01235519967 -701492.8159343038 -955222.1520654466 -495029.32705223444 -338543.8190988099 -981974.9840952002
          -1168767.1014029467 -1246260.6110882713 -671243.3432330729 -323807.96014408744 -1532673.3490281973 -2119197.6642130087
          -1337813.285714862 -2143773.7257475955 -1155304.3638115325 -1725900.4493058673 -214149.7698204366 -573255.6926087594
          -1543978.3732312687 -2409317.41292501 -1634448.847523228 -2289419.876204966 -3300943.597993482 -3654251.5218782336
          -1479936.4307784387 -4017679.3277202486 -4162229.857837091 -5101506.393696147 -4134727.3895335076 -5709031.734787012
          -6171805.497877638 -6412091.823797564 -6154716.255941586
        </DataArray>
      </PointData>
      <CellData>
        <DataArray type="UInt8" Name="vtkGhostType" format="ascii" RangeMin="0" RangeMax="0">
          0 0 0 0 0 0
          0 0 0 0 0 0
          0 0 0 0 0 0
          0 0 0 0 0 0
          0 0 0 0 0 0
          0 0 0 0 0 0
          0 0 0 0 0 0
          0 0 0 0 0 0
          0 0 0 0 0 0
          0 0 0 0 0 0
          0 0 0 0 0 0
          0 0 0 0 0 0
          0 0 0
        </DataArray>
      </CellData>
      <Points>
        <DataArray type="Float32" Name="Points" NumberOfComponents="3" format="ascii" RangeMin="0" RangeMax="17.88854381999832">
          16 8 0 16 6 0
          14 8 0 13.571430206298828 5.4463372230529785 0
          16 4 0 12 8 0
          14 3.464102029800415 0 11.101200103759766 5.649384021759033 0
          16 2 0 10 8 0
          12 3.464102029800415 0 13.166669845581055 1.776708960533142 0
          9.0526123046875 5.597301006317139 0 10 3.464102029800415 0
          16 0 0 8 8 0
          11 1.7320510149002075 0 14 0 0
          12 0 0 8 3.464102029800415 0
          7.214476108551025 5.006220817565918 0 8.865592002868652 1.8541419506072998 0
          10 0 0 6 8 0
          5.868243217468262 6.172163009643555 0 5.61288595199585 4.4169921875 0
          6.193554878234863 2.464600086212158 0 8 0 0
          4.574699878692627 4.995409965515137 0 4 8 0
          4.5 4 0 3.80739688873291 6.614357948303223 0
          4.723260879516602 3.0721371173858643 0 3.75 4.433012962341309 0
          6 0 0 4.8942999839782715 1.5862879753112793 0
          3.75 3.5669870376586914 0 3.0087170600891113 5.149643898010254 0
          3.5546820163726807 2.3947041034698486 0 2.864197015762329 3.831125020980835 0
          2 8 0 1.7273950576782227 6.389729976654053 0
          4 0 0 1.5482569932937622 4.574378967285156 0
          1.6611889600753784 2.800034999847412 0 0 8 0
          2 0 0 0 6 0
          0 4 0 0 2 0
          0 0 0
          <InformationKey name="L2_NORM_RANGE" location="vtkDataArray" length="2">
            <Value index="0">
              0
            </Value>
            <Value index="1">
              17.88854382
            </Value>
          </InformationKey>
        </DataArray>
      </Points>
      <Cells>
        <DataArray type="Int64" Name="connectivity" format="ascii" RangeMin="0" RangeMax="50">
          30 36 32 36 33 39
          33 30 28 32 36 38
          39 33 37 28 30 25
          30 32 25 36 39 38
          33 28 37 32 38 35
          39 37 43 28 25 24
          35 38 42 43 37 41
          24 25 20 32 35 26
          39 43 44 28 24 31
          41 37 31 26 35 34
          31 24 23 20 25 19
          44 43 48 48 43 47
          43 41 47 47 41 45
          32 26 25 28 31 37
          24 20 15 39 44 38
          35 42 34 44 48 49
          44 49 46 50 46 49
          14 8 17 15 23 24
          27 22 21 21 22 16
          27 21 26 16 22 18
          16 18 11 11 18 17
          16 11 10 11 17 8
          10 11 6 6 11 8
          10 6 3 3 4 1
          10 3 7 7 3 5
          10 7 13 13 7 12
          10 13 16 12 7 9
          13 12 19 16 13 21
          19 12 20 20 12 15
          19 25 26 21 13 19
          21 19 26 0 2 1
          4 3 6 29 40 31
          29 31 23 5 9 7
          46 42 38 8 4 6
          2 5 3 34 27 26
          40 45 41 40 41 31
          9 15 12 38 44 46
          1 2 3
        </DataArray>
        <DataArray type="Int64" Name="offsets" format="ascii" RangeMin="3" RangeMax="225">
          3 6 9 12 15 18
          21 24 27 30 33 36
          39 42 45 48 51 54
          57 60 63 66 69 72
          75 78 81 84 87 90
          93 96 99 102 105 108
          111 114 117 120 123 126
          129 132 135 138 141 144
          147 150 153 156 159 162
          165 168 171 174 177 180
          183 186 189 192 195 198
          201 204 207 210 213 216
          219 222 225
        </DataArray>
        <DataArray type="UInt8" Name="types" format="ascii" RangeMin="5" RangeMax="5">
          5 5 5 5 5 5
          5 5 5 5 5 5
          5 5 5 5 5 5
          5 5 5 5 5 5
          5 5 5 5 5 5
          5 5 5 5 5 5
          5 5 5 5 5 5
          5 5 5 5 5 5
          5 5 5 5 5 5
          5 5 5 5 5 5
          5 5 5 5 5 5
          5 5 5 5 5 5
          5 5 5
        </DataArray>
      </Cells>
    </Piece>
  </UnstructuredGrid>
</VTKFile>
