<?xml version="1.0"?>
<VTKFile type="UnstructuredGrid" version="0.1" byte_order="LittleEndian" header_type="UInt32" compressor="vtkZLibDataCompressor">
  <UnstructuredGrid>
    <Piece NumberOfPoints="36" NumberOfCells="50">
      <PointData>
        <DataArray type="Float64" Name="Velocity" NumberOfComponents="3" format="ascii" RangeMin="0" RangeMax="0.12737077838361707">
          0 0 0 0 0 0
          0 0 0 0.057110555862088117 0.012720231218403683 0
          0 0 0 0 0 0
          0.021246418518485004 -0.004666700012588823 0 0.10878406519577541 -0.024299062770990754 0
          0.041876937571091497 -0.013372463101306086 0 0 0 0
          0 0 0 0.11005778204056689 0.04227932285950628 0
          0.015009945844074127 -0.020922271054160252 0 0.016644113001268335 0.07417679534364258 0
          -0.022174880642521877 0.026645765040853864 0 0 0 0
          0 0 0 -0.05064360566114667 -0.0189215527020572 0
          0.06821333234800533 0.08336343451197314 0 -0.01630171729372104 0.08636888402966028 0
          -0.10733885614605115 0.017588717250517416 0 0.008452503794808192 0.0822312561380984 0
          0 0 0 0 0 0
          -0.0997189783451744 0.07924292109610254 0 0.007622868356306212 0.0875554473036324 0
          0 0 0 0 0 0
          0 0 0 0 0 0
          -0.03484708799325986 0.019874071993599973 0 0 0 0
          0 0 0 0 0 0
          0 0 0 0 0 0
          <InformationKey name="L2_NORM_RANGE" location="vtkDataArray" length="2">
            <Value index="0">
              0
            </Value>
            <Value index="1">
              0.12737077838
            </Value>
          </InformationKey>
        </DataArray>
        <DataArray type="Float64" Name="Pressure" format="ascii" RangeMin="-1.089833833757531" RangeMax="1.0121177776637929">
          -0.5607812610037933 -0.6077826218385638 -0.3345116436782516 -0.35087336680449766 -0.700072846779263 -0.08852392357429303
          -0.10069934429466781 -0.4263086486083091 -0.14717933009057396 -0.8393259867496183 0.14680683351724297 -0.5355726390002028
          0.14247704337762887 -0.1866504382301985 0.14927688016664495 -0.9715432931951926 0.3761861822227094 0.39253365168233
          -0.6229698537102479 0.18034639863751625 0.46038828566118695 -0.21894607349092296 0.5901947009379217 -1.089833833757531
          0.5560849613041027 0.19940446930869643 0.6416074381721696 -0.6608392491692977 0.7560066142218308 -0.22942295331628737
          0.6118623157283609 0.880576351500863 0.19143543570095967 0.961164528068065 0.6100393902048857 1.0121177776637929
        </DataArray>
        <DataArray type="Float64" Name="Temperature" format="ascii" RangeMin="239.99999999999997" RangeMax="960.0000000000001">
          960 604.9987677756022 960.0000000000001 610.5007825383071 594.0349469106841 959.9999999999999
          606.4858589076609 596.8095064379926 598.2909457018452 602.7219655023255 959.9999999999999 600.678743856927
          604.6060776156739 600.7004587813292 599.4188208036896 597.5599701234396 960 599.9656431797961
          601.5159060989419 600.4101699573253 599.4914920446472 597.7025010311224 960.0000000000001 240
          601.5072259443378 597.4962979223469 603.9120068234555 239.99999999999997 598.178483016394 240
          592.3180597907 604.6805698792654 239.99999999999997 595.5521718858483 240 240
        </DataArray>
        <DataArray type="Float64" Name="Density" format="ascii" RangeMin="0.367732888991118" RangeMax="1.4709315559644724">
          0.36773288899111806 0.5835112271871798 0.367732888991118 0.5782524503305155 0.5942808167556379 0.3677328889911181
          0.5820804693901727 0.5915180130733253 0.5900533443930815 0.5857154602574564 0.3677328889911181 0.5877077839723899
          0.5838902162936536 0.5876865387245912 0.5889430915067796 0.5907751373616079 0.36773288899111806 0.5884063153357603
          0.5868898392412675 0.5879706758740693 0.5888716989584597 0.5906342583851617 0.367732888991118 1.4709315559644722
          0.5868983084571312 0.5908380933221342 0.5845612762169744 1.4709315559644724 0.5901642794827814 1.4709315559644722
          0.5960033931030515 0.583818285250939 1.4709315559644724 0.5927668306768238 1.4709315559644722 1.4709315559644722
        </DataArray>
        <DataArray type="Float64" Name="stream" format="ascii" RangeMin="-0.038365100182709055" RangeMax="0.019815263094155364">
          0 0.0021654278969348018 -0.0003699193720307035 0.003890843495016198 0.01461437800676918 -0.003271921617750506
          -0.0018522103239512703 0.010011249786603983 -0.004426339579402396 0.019815263094155364 -0.005023259374986559 0.0024869466864804435
          -0.006363353727549633 -0.016377553390671363 -0.012049258326121665 -0.002533333658754624 -0.005334569081123767 -0.006682856705106983
          -0.020343308082441967 -0.02266505328557175 -0.006276067985441418 -0.034236465091684265 -0.003279550914997562 -0.026118207002282415
          -0.008869509059585555 -0.028121961165696995 0.0007333229272616695 -0.038365100182709055 0.0023504816397937993 -0.03746384541829518
          -0.014018058128026076 -0.004299411149925784 -0.022686379587477254 -0.009347235126890676 -0.011122763180356115 -0.009347235126890676
        </DataArray>
      </PointData>
      <CellData>
        <DataArray type="UInt8" Name="vtkGhostType" format="ascii" RangeMin="0" RangeMax="0">
          0 0 0 0 0 0
          0 0 0 0 0 0
          0 0 0 0 0 0
          0 0 0 0 0 0
          0 0 0 0 0 0
          0 0 0 0 0 0
          0 0 0 0 0 0
          0 0 0 0 0 0
          0 0
        </DataArray>
      </CellData>
      <Points>
        <DataArray type="Float32" Name="Points" NumberOfComponents="3" format="ascii" RangeMin="0" RangeMax="1.4142135623730951">
          0 1 0 0.20000000298023224 1 0
          0 0.800000011920929 0 0.20000000298023224 0.800000011920929 0
          0.4000000059604645 1 0 0 0.6000000238418579 0
          0.20000000298023224 0.6000000238418579 0 0.4000000059604645 0.800000011920929 0
          0.4000000059604645 0.6000000238418579 0 0.6000000238418579 1 0
          0 0.4000000059604645 0 0.6000000238418579 0.800000011920929 0
          0.20000000298023224 0.4000000059604645 0 0.6000000238418579 0.6000000238418579 0
          0.4000000059604645 0.4000000059604645 0 0.800000011920929 1 0
          0 0.20000000298023224 0 0.20000000298023224 0.20000000298023224 0
          0.800000011920929 0.800000011920929 0 0.6000000238418579 0.4000000059604645 0
          0.4000000059604645 0.20000000298023224 0 0.800000011920929 0.6000000238418579 0
          0 0 0 1 1 0
          0.6000000238418579 0.20000000298023224 0 0.800000011920929 0.4000000059604645 0
          0.20000000298023224 0 0 1 0.800000011920929 0
          0.4000000059604645 0 0 1 0.6000000238418579 0
          0.800000011920929 0.20000000298023224 0 0.6000000238418579 0 0
          1 0.4000000059604645 0 0.800000011920929 0 0
          1 0.20000000298023224 0 1 0 0
          <InformationKey name="L2_NORM_RANGE" location="vtkDataArray" length="2">
            <Value index="0">
              0
            </Value>
            <Value index="1">
              1.4142135624
            </Value>
          </InformationKey>
        </DataArray>
      </Points>
      <Cells>
        <DataArray type="Int64" Name="connectivity" format="ascii" RangeMin="0" RangeMax="35">
          26 17 22 17 16 22
          28 20 26 20 17 26
          31 24 28 24 20 28
          33 30 31 30 24 31
          35 34 33 34 30 33
          17 12 16 12 10 16
          20 14 17 14 12 17
          24 19 20 19 14 20
          30 25 24 25 19 24
          34 32 30 32 25 30
          12 6 10 6 5 10
          14 8 12 8 6 12
          19 13 14 13 8 14
          25 21 19 21 13 19
          32 29 25 29 21 25
          6 3 5 3 2 5
          8 7 6 7 3 6
          13 11 8 11 7 8
          21 18 13 18 11 13
          29 27 21 27 18 21
          3 1 2 1 0 2
          7 4 3 4 1 3
          11 9 7 9 4 7
          18 15 11 15 9 11
          27 23 18 23 15 18
        </DataArray>
        <DataArray type="Int64" Name="offsets" format="ascii" RangeMin="3" RangeMax="150">
          3 6 9 12 15 18
          21 24 27 30 33 36
          39 42 45 48 51 54
          57 60 63 66 69 72
          75 78 81 84 87 90
          93 96 99 102 105 108
          111 114 117 120 123 126
          129 132 135 138 141 144
          147 150
        </DataArray>
        <DataArray type="UInt8" Name="types" format="ascii" RangeMin="5" RangeMax="5">
          5 5 5 5 5 5
          5 5 5 5 5 5
          5 5 5 5 5 5
          5 5 5 5 5 5
          5 5 5 5 5 5
          5 5 5 5 5 5
          5 5 5 5 5 5
          5 5 5 5 5 5
          5 5
        </DataArray>
      </Cells>
    </Piece>
  </UnstructuredGrid>
</VTKFile>
