<?xml version="1.0"?>
<VTKFile type="UnstructuredGrid" version="0.1" byte_order="LittleEndian" header_type="UInt32" compressor="vtkZLibDataCompressor">
  <UnstructuredGrid>
    <Piece NumberOfPoints="36" NumberOfCells="50">
      <PointData>
        <DataArray type="Float64" Name="Velocity" NumberOfComponents="3" format="ascii" RangeMin="0" RangeMax="0.2310066051155697">
          0 0 0 0 0 0
          0 0 0 0.10143838604055329 0.021449935136461554 0
          0 0 0 0 0 0
          0.035699461174665686 -0.011340853473395604 0 0.18956570091734556 -0.047854596663976 0
          0.06852528827828377 -0.030091639364544363 0 0 0 0
          0 0 0 0.2007672386904376 0.07241282258062356 0
          0.016012631208705774 -0.04299741864666216 0 0.04322079066898256 0.11828114535369955 0
          -0.04153302021434882 0.03545119414716505 0 0 0 0
          0 0 0 -0.1090758149244328 -0.050510587574044585 0
          0.14640697484162915 0.1563839995056993 0 -0.0264815492592958 0.14933655967748144 0
          -0.19843270469594942 0.031148886868350434 0 0.03558709790690798 0.13893235756900768 0
          0 0 0 0 0 0
          -0.1773135965444692 0.14806734983609976 0 0.013903766217623514 0.1503485909780696 0
          0 0 0 0 0 0
          0 0 0 0 0 0
          -0.06667042205174145 0.03704867155921904 0 0 0 0
          0 0 0 0 0 0
          0 0 0 0 0 0
          <InformationKey name="L2_NORM_RANGE" location="vtkDataArray" length="2">
            <Value index="0">
              0
            </Value>
            <Value index="1">
              0.23100660512
            </Value>
          </InformationKey>
        </DataArray>
        <DataArray type="Float64" Name="Pressure" format="ascii" RangeMin="-1.0397408947003062" RangeMax="0.9848487657812441">
          -0.551947810682994 -0.5924560484509924 -0.332219364064094 -0.34265091083489474 -0.6743021417975454 -0.09185083661399872
          -0.09973785682805975 -0.4054062390763138 -0.12890372893101848 -0.802343272407502 0.13696175785625217 -0.49824000702757626
          0.13785175657003196 -0.16207872551135455 0.15419579553518042 -0.9242826898661763 0.3617303823764146 0.38170875876014687
          -0.5896511594072197 0.1714731642825978 0.44458216419150826 -0.21471328043055138 0.568233954107436 -1.0397408947003062
          0.5278203721687721 0.16998170899589882 0.6229516967270264 -0.6396966030712803 0.7339573243830619 -0.23442794780245527
          0.5825984216083937 0.8586501242787509 0.15729927744216443 0.9412538227781361 0.5732373103571742 0.9848487657812441
        </DataArray>
        <DataArray type="Float64" Name="Temperature" format="ascii" RangeMin="239.99999999999994" RangeMax="960.0000000000001">
          959.9999999999999 611.204854396799 960 625.783027588933 585.8621295664816 960
          615.0537354292469 593.9459532359297 596.5433238396115 605.4277994178477 960 600.7502134495974
          609.2726327223186 601.2616979262062 599.232746814612 596.5190346723817 960 597.708767077308
          606.4648503497535 600.943833722167 599.1363475645143 596.988864473398 960.0000000000001 240
          602.700479214099 594.83252561819 607.310103060375 239.99999999999994 596.8170535003256 240.00000000000003
          581.5371034076633 611.2286305770419 239.99999999999997 590.1549201330782 240.00000000000003 240
        </DataArray>
        <DataArray type="Float64" Name="Density" format="ascii" RangeMin="0.36784025974273127" RangeMax="1.4713610389709255">
          0.3678402597427314 0.5777549815135622 0.3678402597427313 0.5642956644471115 0.602747014240917 0.3678402597427313
          0.5741395084879445 0.5945434048824163 0.5919547419961819 0.5832679795882727 0.3678402597427313 0.5878094446697175
          0.5795872494308515 0.5873094038269536 0.5892979835133589 0.5919788453137378 0.3678402597427313 0.5908005182519741
          0.5822705951538178 0.5876200562135767 0.5893927998000452 0.5915129583941469 0.36784025974273127 1.4713610389709253
          0.5859073644897167 0.5936572634222197 0.581460192368834 1.4713610389709255 0.5916832424307215 1.471361038970925
          0.6072297834201591 0.5777325074246705 1.4713610389709255 0.5983626287033124 1.471361038970925 1.4713610389709253
        </DataArray>
        <DataArray type="Float64" Name="stream" format="ascii" RangeMin="-0.06357438426232363" RangeMax="0.03688233278771016">
          0 0.003950995131523297 -0.0006665704242007645 0.006965318861807624 0.02628832038537454 -0.005826565841178623
          -0.003335067163309172 0.01838191068119948 -0.0058592821450142 0.03688233278771016 -0.008761912289622418 0.00888209360217245
          -0.010571243492497218 -0.025436664610145862 -0.01976371815102192 0.002159516376917457 -0.00873470839220584 -0.01071529707634041
          -0.02937864427043722 -0.038185291340687016 -0.008613493001358087 -0.0570004797656351 -0.00434451689493796 -0.039160035555561405
          -0.013329046159390331 -0.047928141235832444 0.004004635653864277 -0.06270556856535708 0.0070912915822585855 -0.06357438426232363
          -0.02257802291157081 -0.0049862197149898755 -0.03811642041745411 -0.014075407937938753 -0.01733073650581981 -0.014075407937938753
        </DataArray>
      </PointData>
      <CellData>
        <DataArray type="UInt8" Name="vtkGhostType" format="ascii" RangeMin="0" RangeMax="0">
          0 0 0 0 0 0
          0 0 0 0 0 0
          0 0 0 0 0 0
          0 0 0 0 0 0
          0 0 0 0 0 0
          0 0 0 0 0 0
          0 0 0 0 0 0
          0 0 0 0 0 0
          0 0
        </DataArray>
      </CellData>
      <Points>
        <DataArray type="Float32" Name="Points" NumberOfComponents="3" format="ascii" RangeMin="0" RangeMax="1.4142135623730951">
          0 1 0 0.20000000298023224 1 0
          0 0.800000011920929 0 0.20000000298023224 0.800000011920929 0
          0.4000000059604645 1 0 0 0.6000000238418579 0
          0.20000000298023224 0.6000000238418579 0 0.4000000059604645 0.800000011920929 0
          0.4000000059604645 0.6000000238418579 0 0.6000000238418579 1 0
          0 0.4000000059604645 0 0.6000000238418579 0.800000011920929 0
          0.20000000298023224 0.4000000059604645 0 0.6000000238418579 0.6000000238418579 0
          0.4000000059604645 0.4000000059604645 0 0.800000011920929 1 0
          0 0.20000000298023224 0 0.20000000298023224 0.20000000298023224 0
          0.800000011920929 0.800000011920929 0 0.6000000238418579 0.4000000059604645 0
          0.4000000059604645 0.20000000298023224 0 0.800000011920929 0.6000000238418579 0
          0 0 0 1 1 0
          0.6000000238418579 0.20000000298023224 0 0.800000011920929 0.4000000059604645 0
          0.20000000298023224 0 0 1 0.800000011920929 0
          0.4000000059604645 0 0 1 0.6000000238418579 0
          0.800000011920929 0.20000000298023224 0 0.6000000238418579 0 0
          1 0.4000000059604645 0 0.800000011920929 0 0
          1 0.20000000298023224 0 1 0 0
          <InformationKey name="L2_NORM_RANGE" location="vtkDataArray" length="2">
            <Value index="0">
              0
            </Value>
            <Value index="1">
              1.4142135624
            </Value>
          </InformationKey>
        </DataArray>
      </Points>
      <Cells>
        <DataArray type="Int64" Name="connectivity" format="ascii" RangeMin="0" RangeMax="35">
          26 17 22 17 16 22
          28 20 26 20 17 26
          31 24 28 24 20 28
          33 30 31 30 24 31
          35 34 33 34 30 33
          17 12 16 12 10 16
          20 14 17 14 12 17
          24 19 20 19 14 20
          30 25 24 25 19 24
          34 32 30 32 25 30
          12 6 10 6 5 10
          14 8 12 8 6 12
          19 13 14 13 8 14
          25 21 19 21 13 19
          32 29 25 29 21 25
          6 3 5 3 2 5
          8 7 6 7 3 6
          13 11 8 11 7 8
          21 18 13 18 11 13
          29 27 21 27 18 21
          3 1 2 1 0 2
          7 4 3 4 1 3
          11 9 7 9 4 7
          18 15 11 15 9 11
          27 23 18 23 15 18
        </DataArray>
        <DataArray type="Int64" Name="offsets" format="ascii" RangeMin="3" RangeMax="150">
          3 6 9 12 15 18
          21 24 27 30 33 36
          39 42 45 48 51 54
          57 60 63 66 69 72
          75 78 81 84 87 90
          93 96 99 102 105 108
          111 114 117 120 123 126
          129 132 135 138 141 144
          147 150
        </DataArray>
        <DataArray type="UInt8" Name="types" format="ascii" RangeMin="5" RangeMax="5">
          5 5 5 5 5 5
          5 5 5 5 5 5
          5 5 5 5 5 5
          5 5 5 5 5 5
          5 5 5 5 5 5
          5 5 5 5 5 5
          5 5 5 5 5 5
          5 5 5 5 5 5
          5 5
        </DataArray>
      </Cells>
    </Piece>
  </UnstructuredGrid>
</VTKFile>
