<?xml version="1.0"?>
<VTKFile type="UnstructuredGrid" version="0.1" byte_order="LittleEndian" header_type="UInt32" compressor="vtkZLibDataCompressor">
  <UnstructuredGrid>
    <Piece NumberOfPoints="44" NumberOfCells="66">
      <PointData>
        <DataArray type="Float64" Name="ale_BC" NumberOfComponents="3" format="ascii" RangeMin="0" RangeMax="0">
          0 0 0 0 0 0
          0 0 0 0 0 0
          0 0 0 0 0 0
          0 0 0 0 0 0
          0 0 0 0 0 0
          0 0 0 0 0 0
          0 0 0 0 0 0
          0 0 0 0 0 0
          0 0 0 0 0 0
          0 0 0 0 0 0
          0 0 0 0 0 0
          0 0 0 0 0 0
          0 0 0 0 0 0
          0 0 0 0 0 0
          0 0 0 0 0 0
          0 0 0 0 0 0
          0 0 0 0 0 0
          0 0 0 0 0 0
          0 0 0 0 0 0
          0 0 0 0 0 0
          0 0 0 0 0 0
          0 0 0 0 0 0
          <InformationKey name="L2_NORM_RANGE" location="vtkDataArray" length="2">
            <Value index="0">
              0
            </Value>
            <Value index="1">
              0
            </Value>
          </InformationKey>
        </DataArray>
        <DataArray type="Float64" Name="ale_FIXNO" NumberOfComponents="3" format="ascii" RangeMin="1" RangeMax="1.4142135623730951">
          1 1 0 0 1 0
          1 0 0 -1 -1 0
          -1 -1 0 0 1 0
          1 0 0 -1 -1 0
          -1 -1 0 -1 -1 0
          -1 -1 0 -1 -1 0
          0 1 0 1 0 0
          -1 -1 0 -1 -1 0
          -1 -1 0 -1 -1 0
          -1 -1 0 -1 -1 0
          0 1 0 1 0 0
          -1 -1 0 -1 -1 0
          -1 -1 0 -1 -1 0
          -1 -1 0 1 1 0
          1 1 0 -1 -1 0
          1 0 0 0 1 0
          -1 -1 0 1 0 0
          0 1 0 -1 -1 0
          -1 -1 0 -1 -1 0
          1 0 0 0 1 0
          -1 -1 0 1 0 0
          0 1 0 1 1 0
          <InformationKey name="L2_NORM_RANGE" location="vtkDataArray" length="2">
            <Value index="0">
              1
            </Value>
            <Value index="1">
              1.4142135624
            </Value>
          </InformationKey>
        </DataArray>
        <DataArray type="Float64" Name="nsi_BC" NumberOfComponents="3" format="ascii" RangeMin="0" RangeMax="0">
          0 0 0 0 0 0
          0 0 0 0 0 0
          0 0 0 0 0 0
          0 0 0 0 0 0
          0 0 0 0 0 0
          0 0 0 0 0 0
          0 0 0 0 0 0
          0 0 0 0 0 0
          0 0 0 0 0 0
          0 0 0 0 0 0
          0 0 0 0 0 0
          0 0 0 0 0 0
          0 0 0 0 0 0
          0 0 0 0 0 0
          0 0 0 0 0 0
          0 0 0 0 0 0
          0 0 0 0 0 0
          0 0 0 0 0 0
          0 0 0 0 0 0
          0 0 0 0 0 0
          0 0 0 0 0 0
          0 0 0 0 0 0
          <InformationKey name="L2_NORM_RANGE" location="vtkDataArray" length="2">
            <Value index="0">
              0
            </Value>
            <Value index="1">
              0
            </Value>
          </InformationKey>
        </DataArray>
        <DataArray type="Float64" Name="nsi_FIXNO" NumberOfComponents="3" format="ascii" RangeMin="1" RangeMax="1.4142135623730951">
          1 1 0 0 1 0
          1 0 0 -1 -1 0
          -1 -1 0 0 1 0
          1 0 0 -1 -1 0
          -1 -1 0 -1 -1 0
          -1 -1 0 -1 -1 0
          0 1 0 1 0 0
          -1 -1 0 -1 -1 0
          -1 -1 0 -1 -1 0
          -1 -1 0 -1 -1 0
          0 1 0 1 0 0
          -1 -1 0 -1 -1 0
          -1 -1 0 -1 -1 0
          -1 -1 0 1 1 0
          1 1 0 -1 -1 0
          1 0 0 0 1 0
          -1 -1 0 1 0 0
          0 1 0 -1 -1 0
          -1 -1 0 -1 -1 0
          1 0 0 0 1 0
          -1 -1 0 1 0 0
          0 1 0 1 1 0
          <InformationKey name="L2_NORM_RANGE" location="vtkDataArray" length="2">
            <Value index="0">
              1
            </Value>
            <Value index="1">
              1.4142135624
            </Value>
          </InformationKey>
        </DataArray>
        <DataArray type="Float64" Name="lev_BC" format="ascii" RangeMin="-0.5" RangeMax="0.5">
          -0.5 -0.3 -0.5 -0.32499 -0.35371 -0.25
          -0.5 -0.198092 -0.109713 -0.357575 -0.207421 -0.006945
          -0.25 -0.5 -0.059263 -0.216878 0.02803 -0.061131
          0.142998 -0.351371 -0.25 -0.5 0.030858 0.192875
          -0.104258 0.199684 0.083861 -0.5 -0.25 0.222426
          -0.048337 -0.280888 0.341722 0.153327 -0.061777 0.146545
          0.227286 0.363955 0.354826 0.155833 0.392298 0.5
          0.37 0.5
        </DataArray>
        <DataArray type="Float64" Name="lev_FIXNO" format="ascii" RangeMin="0" RangeMax="0">
          0 0 0 0 0 0
          0 0 0 0 0 0
          0 0 0 0 0 0
          0 0 0 0 0 0
          0 0 0 0 0 0
          0 0 0 0 0 0
          0 0 0 0 0 0
          0 0
        </DataArray>
        <DataArray type="Float64" Name="Velocity" NumberOfComponents="3" format="ascii" RangeMin="0" RangeMax="1.7036702850897467">
          0 0 0 0.21347932273364598 0 0
          0 -0.23943603447981165 0 0.221666422003666 -0.19978557707988298 0
          0.2537407315759212 -0.34896817303564154 0 0.340860373977965 0 0
          0 -0.3302427978608429 0 0.4591153555628593 -0.38082467205866805 0
          0.37500724261564755 -0.2659194482074946 0 0.1823118516974539 -0.4034676222273324 0
          0.9367483755618724 -0.6447994771251884 0 0.5230103954770657 -0.44972292818974013 0
          0.33169660515627175 0 0 0 -0.3284841996510851 0
          0.3612148406913324 -0.9369902992745958 0 -0.15412933163086462 -0.37314797170764197 0
          -0.11693817063281814 -0.038933203463521526 0 -0.35779359398879634 -0.3216215017442908 0
          -0.03836314173511345 -0.12533840587955627 0 -0.3140859140924367 -0.2239625270575459 0
          0.24089308667275564 0 0 0 -0.1837412532170638 0
          0.03193729875267752 -0.7023552040825372 0 0.059494718655135274 0.02670719550941097 0
          -1.539912835552596 -0.25429723274586163 0 -0.009123546304339277 0.013688604813902978 0
          -0.3026584024564828 -0.05086779022144764 0 0 0 0
          0 0 0 0.008364837240142045 -0.012294951055148712 0
          0 -0.7604170149519935 0 -0.7535960805037317 0 0
          -0.0036930768903885667 -0.00430884617174495 0 0 -0.04263750220710426 0
          -1.7036702850897467 0 0 -0.08151430799818823 0.04674094317986373 0
          0.052174302001528054 0.010110652166757205 0 -0.0051926079867785 -0.007362332444676703 0
          0 0.0027465206301489323 0 -0.23771068723012073 0 0
          -0.014423520033141238 -0.0052786825392529485 0 0 -0.0011981036279288672 0
          0.05641461399737158 0 0 0 0 0
          <InformationKey name="L2_NORM_RANGE" location="vtkDataArray" length="2">
            <Value index="0">
              0
            </Value>
            <Value index="1">
              1.7036702851
            </Value>
          </InformationKey>
        </DataArray>
        <DataArray type="Float64" Name="Pressure" format="ascii" RangeMin="-5020.445651981883" RangeMax="4518.984028489552">
          -5020.445651981883 -4986.91956824949 -2908.8716645184945 -3372.8182283004858 -1710.2954755693427 -4880.124964847295
          -1167.9681325093688 -2088.7516209087667 -3503.3782947481423 -66.76674990712874 -403.8178662527357 -1570.3283849901582
          -4754.7447461249785 495.8872408321737 -2789.9790345038355 669.3242713083347 -190.28630029940174 650.4763091255616
          -1136.04376197044 1890.5565619674635 -4753.685939007191 2223.5058061864697 -2073.576517230558 284.64021539306333
          1754.8737250094887 -687.8137962208424 1870.5195121194324 4086.3071669218753 -4779.94810473197 1704.7293730861822
          -2846.781823602671 3981.605437374919 787.5125164783301 -1149.6545417115244 3577.254534321072 3200.5297135281708
          3191.6545794148306 2073.019874569661 702.7682508661312 4237.663539188725 3390.3285831116364 2606.996837780433
          4492.521018035641 4518.984028489552
        </DataArray>
        <DataArray type="Float64" Name="Proj_residual_U" NumberOfComponents="3" format="ascii" RangeMin="0" RangeMax="1201.0453643803678">
          0 0 0 14.596973043944372 -3.0319594668425474 0
          -1.2961549274548498 45.529636098550384 0 -6.250114178880863 41.55096422310803 0
          -149.22347071199118 107.96416964599072 0 15.422963898976233 0 0
          0 25.6365154590676 0 -88.01707571120332 69.20229408565349 0
          22.972039891546594 -84.94845672409312 0 139.80500391301985 -7.668055104364869 0
          61.17586061390721 94.08281290880264 0 -18.643054744282626 -103.66865525767659 0
          -9.257200514499829 -32.88444679614883 0 92.22315297800408 -61.3635327648247 0
          -5.802553110018042 -267.17085834548476 0 979.4789233139442 -122.72320379730651 0
          -99.77271916374204 -9.704043140431422 0 345.8137105753459 -137.03936948094335 0
          -114.03468049402034 186.7663281352547 0 112.36342622467171 -54.317130133406266 0
          6.043205693810621 -0.24155006611845298 0 0 -45.179256843834814 0
          -30.4556864533286 229.9833004349641 0 73.49748750760332 5.30121970348959 0
          -386.46577936124766 0.7117044677641329 0 -3.2546777199202466 -343.7174309224004 0
          -595.3121642359885 -160.37870265918366 0 0 0 0
          -0.046963580802909174 -0.5674612788618713 0 0.4559898064955943 0.6965959900166332 0
          -0.27432066489501783 84.95225389232701 0 -369.85246032415415 -8.957692931010827 0
          1.5283302455215246 1.22972327438498 0 -0.386183869223388 68.55443296592246 0
          -183.04139252995878 3.5699912552002777 0 -884.7246715865568 -119.04896425623262 0
          -47.29330513472701 5.073015070991235 0 1.4559093193926118 -0.7647260178053362 0
          0.21363772881420937 -4.01692157393582 0 -1197.1320773363511 -96.8749539970125 0
          10.412159039182326 1.2086340302785135 0 0.4428301338605811 0.09432596996976138 0
          4.799578780554692 -0.8860701386078867 0 0 0 0
          <InformationKey name="L2_NORM_RANGE" location="vtkDataArray" length="2">
            <Value index="0">
              0
            </Value>
            <Value index="1">
              1201.0453644
            </Value>
          </InformationKey>
        </DataArray>
        <DataArray type="Float64" Name="Proj_residual_P" format="ascii" RangeMin="-5.346784149762761" RangeMax="4.477734901949237">
          2.310723980746609 2.2213278298449386 2.1759495859718267 2.155098271553246 3.1671361707314563 2.1910873863809472
          1.5083846560485854 1.9783849417998853 1.8851781855505554 1.1867127698348745 1.0363250260873043 -0.8398957996132704
          3.8167135034834305 -0.7285966805554002 0.7525853298042253 -2.8423092313128824 -0.23138254968188554 -0.8606308872069482
          -3.4377798125457635 -3.7019267390353052 1.1979992550389214 -2.955492377308767 -1.7361715875528918 0.5626821567789403
          -1.4967595948023715 -1.9192434896624437 2.588457816691256 -3.919226177121223 0.0030585148265944457 0.8522325121877755
          -1.0545066915827654 -5.346784149762761 -0.10054230615100351 -2.0567316415255665 -1.533714851239493 3.9955771214043336
          0.4194283202130018 -0.10908516755083417 -0.046540750629568334 4.477734901949237 -0.23487906229908978 0.08251909466294254
          0.5686781296872528 -0.12360395255311624
        </DataArray>
        <DataArray type="Float64" Name="ALEdispl" NumberOfComponents="3" format="ascii" RangeMin="0" RangeMax="0">
          0 0 0 0 0 0
          0 0 0 0 0 0
          0 0 0 0 0 0
          0 0 0 0 0 0
          0 0 0 0 0 0
          0 0 0 0 0 0
          0 0 0 0 0 0
          0 0 0 0 0 0
          0 0 0 0 0 0
          0 0 0 0 0 0
          0 0 0 0 0 0
          0 0 0 0 0 0
          0 0 0 0 0 0
          0 0 0 0 0 0
          0 0 0 0 0 0
          0 0 0 0 0 0
          0 0 0 0 0 0
          0 0 0 0 0 0
          0 0 0 0 0 0
          0 0 0 0 0 0
          0 0 0 0 0 0
          0 0 0 0 0 0
          <InformationKey name="L2_NORM_RANGE" location="vtkDataArray" length="2">
            <Value index="0">
              0
            </Value>
            <Value index="1">
              0
            </Value>
          </InformationKey>
        </DataArray>
        <DataArray type="Float64" Name="ALEveloc" NumberOfComponents="3" format="ascii" RangeMin="0" RangeMax="1.6548893711431483">
          0 0 0 0.1953332851490773 0 0
          0 -0.30411712445482264 0 0.21423403693466916 -0.24075657605188136 0
          0.28943995281723756 -0.45933313509904233 0 0.28867523291258584 0 0
          0 -0.44252182135117474 0 0.44880597998703453 -0.44528197612753756 0
          0.3119183777762514 -0.2521262843652525 0 0.2452316825574183 -0.5519357698589873 0
          1.1091243672410493 -0.9211930167342254 0 0.30264989618282734 -0.347279708827025 0
          0.28793685075875847 0 0 0 -0.44387278383551904 0
          0.280689851701495 -0.7811590912351738 0 -0.008977408896499756 -0.5048679433977162 0
          -0.08749092560902755 0.0376338515071159 0 -0.06972614981449021 -0.39188169597670736 0
          0.02162485657525128 -0.08559182413251078 0 -0.3077856338797487 -0.2853462539971273 0
          0.2913508627387804 0 0 0 -0.23738130710035985 0
          0.010241934383462149 -0.5387500402112179 0 -0.017773284723083288 -0.05228624431342422 0
          -1.5622393141000461 -0.1884409127230175 0 0.0025656770542594053 -0.1670003556252543 0
          -0.054486241324466916 -0.015545147246324378 0 0 0 0
          0 0 0 0.009728173474152285 -0.027119992492226852 0
          0 -0.6592821843285407 0 -0.8408841960063654 0 0
          0.003948897823354846 -0.06715146764985559 0 0 -0.039748485513869385 0
          -1.6548893711431483 0 0 0.18580169299590632 0.03338505470871252 0
          0.12935089298251565 0.01456505405900793 0 0.020613587494641174 -0.030280290838144302 0
          0 -0.05107666034498422 0 0.14806065517060116 0 0
          0.037863600610372784 -0.00878242627104864 0 0 -0.02176680973195888 0
          0.046947730419328315 0 0 0 0 0
          <InformationKey name="L2_NORM_RANGE" location="vtkDataArray" length="2">
            <Value index="0">
              0
            </Value>
            <Value index="1">
              1.6548893711
            </Value>
          </InformationKey>
        </DataArray>
        <DataArray type="Float64" Name="LEVEL" format="ascii" RangeMin="-0.5416836381152024" RangeMax="0.5531859171958101">
          -0.5416836381152024 -0.44750377379423995 -0.4139911206953466 -0.32045673053785045 -0.3161093967740516 -0.3454639593203514
          -0.49403054885313713 -0.166479732957904 -0.22704897144931954 -0.37428148037783215 -0.26515873009753005 -0.02031612075743447
          -0.24028330156621283 -0.5057312475020128 -0.08697266473043687 -0.2276960135336639 0.02074190481851913 -0.055103941149635134
          0.14101196490014048 -0.3448019926356392 -0.24746627090062284 -0.49676862011455936 0.014548427058402955 0.2563887256595401
          -0.05571050171956828 0.28506087264824664 0.09069401890369068 -0.504067316645452 -0.24888843940599506 0.2237263352579773
          -0.07003749957803888 -0.2474144497264383 0.41349500511026105 0.15407434749978519 -0.016268288743379856 0.14563719703686154
          0.2259411613515089 0.3635291961109243 0.5531859171958101 0.1529521078178862 0.3924869537267632 0.5006235488367741
          0.3706060793200999 0.49963944006357264
        </DataArray>
      </PointData>
      <CellData>
        <DataArray type="UInt8" Name="vtkGhostType" format="ascii" RangeMin="0" RangeMax="0">
          0 0 0 0 0 0
          0 0 0 0 0 0
          0 0 0 0 0 0
          0 0 0 0 0 0
          0 0 0 0 0 0
          0 0 0 0 0 0
          0 0 0 0 0 0
          0 0 0 0 0 0
          0 0 0 0 0 0
          0 0 0 0 0 0
          0 0 0 0 0 0
        </DataArray>
        <DataArray type="Float64" Name="Residual_U" NumberOfComponents="3" format="ascii" RangeMin="0.37774719474760515" RangeMax="1679.9380190588147">
          -153.5113380469483 43.27234342602004 0 -344.1144395681156 71.35215062563907 0
          -992.0491980368745 -295.1892478717452 0 -26.84696957851874 52.60073801342031 0
          -30.89073639059617 47.7810772633861 0 -26.846969578518724 9.820684729467636 0
          229.56082405078263 -81.74819189743701 0 -394.9566617042384 213.94288072774629 0
          1009.7845970099529 -200.99081011922016 0 4.43797030147518 -56.79376531810315 0
          4.437970301475179 -36.006791745723184 0 312.53075818628275 -67.809606703033 0
          405.65103518279227 -25.53652117360586 0 605.5622010807517 -73.4073141727701 0
          1629.8933579641016 -406.9881933714528 0 -75.20761818592277 -20.044736703696717 0
          -506.71817263185966 48.75444362431143 0 -85.59542671584988 28.98843019863591 0
          -429.77561317897175 -97.26653734138642 0 -169.3789083770389 -7.9908051299275265 0
          -288.1207752492157 1.8030064532365309 0 -368.679287956309 -47.13302347420328 0
          5.573425667090733 -0.05356581448349562 0 -2.334103766611383 -0.789696269563088 0
          17.960741705254016 3.8244114202872095 0 -0.560465224537295 -1.2130527915269458 0
          -0.32832727102040327 0.18679974904688662 0 20.83453001596203 4.710873237322589 0
          2.6137984858796517 -1.5728551690036228 0 0.9626258694225498 0.5002750694641833 0
          0.436865869573341 0.8997815690226172 0 6.490602733036647 9.005902137420183 0
          -247.52445551805693 -32.28593543248597 0 -105.94194023006588 -6.757729775201454 0
          -0.05943646349056033 -8.686847677709567 0 -27.15439912527057 2.7834548138277184 0
          -1.9004831576694743 4.440040367361796 0 -44.115790524283064 -56.266670876674496 0
          -7.20658294101753 44.69321529213926 0 1.232308958067108 10.757129727276084 0
          1.114040489375654 -17.67137033978463 0 -308.11194716386734 558.9088867089479 0
          -695.6648771334433 409.63474470330016 0 -107.4562275804442 -31.60048606637755 0
          -190.46804586666383 -259.5072039617895 0 -467.6359891064858 528.7400691060863 0
          49.82266834065285 -331.7950331085585 0 -648.2635898869696 390.6939721723488 0
          3.2312782970191094 -385.8987261431314 0 31.742459254061444 -34.02421736884708 0
          -277.93736270592717 -520.953392879112 0 536.7816848325356 -377.10327559737124 0
          -11.06810455302363 19.95328610274578 0 -203.59858373723202 109.82557773431824 0
          -41.2019409972418 58.869079177105945 0 -549.4262832007445 264.4460003696705 0
          -37.883477646201456 67.66588039201912 0 19.138409973190857 -1.68229901953125 0
          6.258917292717312 16.28624186333021 0 3.1379371589797715 38.08160222778672 0
          -92.39245238953774 -250.4377949446496 0 -1.306996227389981 -8.715183816474248 0
          29.405559570283508 -8.715183816474239 0 -0.11385065618359924 -255.17218343789227 0
          -0.8245669661122652 386.8007956730954 0 -1.8429018301100388 -522.0234079759175 0
          <InformationKey name="L2_NORM_RANGE" location="vtkDataArray" length="2">
            <Value index="0">
              0.37774719475
            </Value>
            <Value index="1">
              1679.9380191
            </Value>
          </InformationKey>
        </DataArray>
        <DataArray type="Float64" Name="Residual_P" format="ascii" RangeMin="-6.737980581078093" RangeMax="6.903846393361038">
          1.0517379616765092 0.9410282911357923 4.237429572607063 1.745731737050608 2.3290677665676593 1.2710375750465626
          -0.544179272363788 5.236410414864091 0.5391986521289929 -2.85549671889071 -3.0554880357268255 -1.760310807594362
          -5.0379143889351115 -2.671698852907788 -4.143060014867732 -4.418969518735607 5.416106420316863 -5.656559457276325
          6.903846393361038 -5.965937738946719 1.77833820930209 5.993328801787477 -0.47982306608918734 0.12783289259275893
          -0.472219833567463 0.06483472460150964 0.05805465221489671 -0.4401620862642226 -0.3068561561364302 -0.06749366057926379
          0.05216054852012171 -0.09869471808786312 2.156379106478505 2.381232255666331 -0.20189865863953405 -0.4269642421004052
          0.08194617703971069 -0.8200946209355419 -3.948190556137239 0.039918757079698386 -4.229425310022915 -5.158263790862171
          -4.270585099788204 1.5811788405571494 0.8782248087666695 -6.737980581078093 -0.8060520690795339 -6.074094786729299
          4.561699759581132 1.078773295534598 1.982357695720324 -3.4915544975784583 1.8229983072136102 1.2561112974046609
          2.1990777786052984 3.7323124912748673 2.3650779273587856 1.952810359160504 2.2599163670524014 2.354939226853996
          1.2962812212916217 1.8497253362159163 2.5324494365459773 4.4584550755734 -3.7126430646583337 3.617372172094389
        </DataArray>
      </CellData>
      <Points>
        <DataArray type="Float32" Name="Points" NumberOfComponents="3" format="ascii" RangeMin="0" RangeMax="1.4142135623730951">
          0 1 0 0.20000000298023224 1 0
          0 0.7799999713897705 0 0.17500990629196167 0.8324676752090454 0
          0.14628949761390686 0.6488438844680786 0 0.4000000059604645 1 0
          0 0.5849999785423279 0 0.30190789699554443 0.7062488794326782 0
          0.4018622040748596 0.8597133755683899 0 0.14242489635944366 0.45817598700523376 0
          0.29257911443710327 0.5176876783370972 0 0.49305540323257446 0.6697210073471069 0
          0.6000000238418579 1 0 0 0.38999998569488525 0
          0.6244276165962219 0.8092629909515381 0 0.2831222116947174 0.36456531286239624 0
          0.5280297994613647 0.49493080377578735 0 0.43886861205101013 0.3865315914154053 0
          0.659912109375 0.6070019006729126 0 0.14862869679927826 0.22861619293689728 0
          0.800000011920929 1 0 0 0.19499999284744263 0
          0.791735827922821 0.7191417813301086 0 0.6928746104240417 0.44221389293670654 0
          0.39574238657951355 0.1925719976425171 0 0.7972490191459656 0.5503162145614624 0
          0.5838605761528015 0.2565388083457947 0 0 0 0
          1 1 0 0.7224256992340088 0.28607040643692017 0
          1 0.7983365058898926 0 0.2191116064786911 0 0
          0.841722309589386 0.3865504860877991 0 1 0.5966730117797852 0
          0.4382232129573822 0 0 0.6465445160865784 0.11541219800710678 0
          0.7272865176200867 0.12795010209083557 0 0.8639553785324097 0.2512752115726471 0
          1 0.3951736092567444 0 0.6558331847190857 0 0
          0.8922978043556213 0.11509300023317337 0 1 0.19681400060653687 0
          0.8700000047683716 0 0 1 0 0
          <InformationKey name="L2_NORM_RANGE" location="vtkDataArray" length="2">
            <Value index="0">
              0
            </Value>
            <Value index="1">
              1.4142135624
            </Value>
          </InformationKey>
        </DataArray>
      </Points>
      <Cells>
        <DataArray type="Int64" Name="connectivity" format="ascii" RangeMin="0" RangeMax="43">
          42 36 35 35 36 26
          26 17 24 2 6 9
          4 2 9 9 6 13
          9 13 19 4 9 10
          10 9 15 19 13 21
          19 21 27 9 19 15
          15 19 24 15 24 17
          15 17 10 19 27 31
          39 24 34 34 24 31
          24 39 35 24 19 31
          42 35 39 35 26 24
          42 43 40 40 43 41
          42 40 36 40 41 37
          37 41 38 40 37 36
          36 37 29 29 37 32
          32 37 38 29 32 23
          36 29 26 26 29 23
          32 38 33 23 32 25
          25 32 33 23 25 18
          18 25 22 23 18 16
          22 25 33 18 22 14
          16 18 11 23 16 26
          14 22 20 18 14 11
          11 14 8 16 11 10
          8 14 12 11 8 7
          17 26 16 17 16 10
          7 8 3 11 7 10
          2 4 3 4 10 7
          4 7 3 3 8 1
          3 1 0 2 3 0
          28 20 22 12 5 8
          8 5 1 20 12 14
          33 30 22 22 30 28
        </DataArray>
        <DataArray type="Int64" Name="offsets" format="ascii" RangeMin="3" RangeMax="198">
          3 6 9 12 15 18
          21 24 27 30 33 36
          39 42 45 48 51 54
          57 60 63 66 69 72
          75 78 81 84 87 90
          93 96 99 102 105 108
          111 114 117 120 123 126
          129 132 135 138 141 144
          147 150 153 156 159 162
          165 168 171 174 177 180
          183 186 189 192 195 198
        </DataArray>
        <DataArray type="UInt8" Name="types" format="ascii" RangeMin="5" RangeMax="5">
          5 5 5 5 5 5
          5 5 5 5 5 5
          5 5 5 5 5 5
          5 5 5 5 5 5
          5 5 5 5 5 5
          5 5 5 5 5 5
          5 5 5 5 5 5
          5 5 5 5 5 5
          5 5 5 5 5 5
          5 5 5 5 5 5
          5 5 5 5 5 5
        </DataArray>
      </Cells>
    </Piece>
  </UnstructuredGrid>
</VTKFile>
