<?xml version="1.0"?>
<VTKFile type="UnstructuredGrid" version="0.1" byte_order="LittleEndian" header_type="UInt32" compressor="vtkZLibDataCompressor">
  <UnstructuredGrid>
    <Piece NumberOfPoints="35" NumberOfCells="51">
      <PointData>
        <DataArray type="Float64" Name="nsi_SBC" NumberOfComponents="3" format="ascii" RangeMin="0" RangeMax="0">
          0 0 0 0 0 0
          0 0 0 0 0 0
          0 0 0 0 0 0
          0 0 0 0 0 0
          0 0 0 0 0 0
          0 0 0 0 0 0
          0 0 0 0 0 0
          0 0 0 0 0 0
          0 0 0 0 0 0
          0 0 0 0 0 0
          0 0 0 0 0 0
          0 0 0 0 0 0
          0 0 0 0 0 0
          0 0 0 0 0 0
          0 0 0 0 0 0
          0 0 0 0 0 0
          0 0 0 0 0 0
          0 0 0
          <InformationKey name="L2_NORM_RANGE" location="vtkDataArray" length="2">
            <Value index="0">
              0
            </Value>
            <Value index="1">
              0
            </Value>
          </InformationKey>
        </DataArray>
        <DataArray type="Float64" Name="nsi_SFIXNO" NumberOfComponents="3" format="ascii" RangeMin="0" RangeMax="1.7320508075688772">
          0 0 0 0 0 0
          0 0 0 -1 -1 -1
          -1 -1 -1 0 0 0
          0 0 0 -1 -1 -1
          -1 -1 -1 -1 -1 -1
          -1 -1 -1 -1 -1 -1
          0 0 0 0 0 0
          -1 -1 -1 -1 -1 -1
          -1 -1 -1 -1 -1 -1
          -1 -1 -1 -1 -1 -1
          0 0 0 0 0 0
          -1 -1 -1 0 0 0
          0 0 0 0 0 0
          -1 -1 -1 -1 -1 -1
          0 0 0 -1 -1 -1
          0 0 0 -1 -1 -1
          0 0 0 0 0 0
          0 0 0
          <InformationKey name="L2_NORM_RANGE" location="vtkDataArray" length="2">
            <Value index="0">
              0
            </Value>
            <Value index="1">
              1.7320508076
            </Value>
          </InformationKey>
        </DataArray>
        <DataArray type="Float64" Name="nsi_UBC" NumberOfComponents="3" format="ascii" RangeMin="0" RangeMax="0">
          0 0 0 0 0 0
          0 0 0 0 0 0
          0 0 0 0 0 0
          0 0 0 0 0 0
          0 0 0 0 0 0
          0 0 0 0 0 0
          0 0 0 0 0 0
          0 0 0 0 0 0
          0 0 0 0 0 0
          0 0 0 0 0 0
          0 0 0 0 0 0
          0 0 0 0 0 0
          0 0 0 0 0 0
          0 0 0 0 0 0
          0 0 0 0 0 0
          0 0 0 0 0 0
          0 0 0 0 0 0
          0 0 0
          <InformationKey name="L2_NORM_RANGE" location="vtkDataArray" length="2">
            <Value index="0">
              0
            </Value>
            <Value index="1">
              0
            </Value>
          </InformationKey>
        </DataArray>
        <DataArray type="Float64" Name="nsi_UFIXNO" NumberOfComponents="3" format="ascii" RangeMin="1" RangeMax="1.4142135623730951">
          1 1 0 1 0 0
          0 1 0 -1 -1 0
          -1 -1 0 1 0 0
          0 1 0 -1 -1 0
          -1 -1 0 -1 -1 0
          -1 -1 0 -1 -1 0
          1 0 0 0 1 0
          -1 -1 0 -1 -1 0
          -1 -1 0 -1 -1 0
          -1 -1 0 -1 -1 0
          1 1 0 1 1 0
          -1 -1 0 0 1 0
          1 0 0 0 1 0
          -1 -1 0 -1 -1 0
          1 0 0 -1 -1 0
          0 1 0 -1 -1 0
          1 0 0 0 1 0
          1 1 0
          <InformationKey name="L2_NORM_RANGE" location="vtkDataArray" length="2">
            <Value index="0">
              1
            </Value>
            <Value index="1">
              1.4142135624
            </Value>
          </InformationKey>
        </DataArray>
        <DataArray type="Float64" Name="lev_BC" format="ascii" RangeMin="-1" RangeMax="1">
          -1 0 -1 -1 0 1
          -1 -1 -1 0 -1 -1
          1 -1 -1 -1 1 -1
          0 -1 1 -1 -1 1
          -1 1 -1 0 -1 -1
          1 -1 -1 0 -1
        </DataArray>
        <DataArray type="Float64" Name="lev_FIXNO" format="ascii" RangeMin="0" RangeMax="0">
          0 0 0 0 0 0
          0 0 0 0 0 0
          0 0 0 0 0 0
          0 0 0 0 0 0
          0 0 0 0 0 0
          0 0 0 0 0
        </DataArray>
        <DataArray type="Float64" Name="Velocity" NumberOfComponents="3" format="ascii" RangeMin="0" RangeMax="1.9746405885136116">
          0 0 0 0 -1.9746405885136116 0
          0.11828403440956779 0 0 0.1577377886241475 -0.4992799525192637 0
          0.06319825310749536 -1.2232205542878472 0 0 -1.1898004476373143 0
          0.19996518211820796 0 0 0.2786945409086352 -0.45674088482951003 0
          0.23827054752057644 -0.19665327482904282 0 0.44009483134465227 -0.6053444479334606 0
          0.35956947486444774 -0.17379581021007617 0 0.4699171746402536 -0.24983404325820874 0
          0 -0.40521642891202125 0 0.16429252448408413 0 0
          0.19006456285167844 -0.053009322033340064 0 0.6533611231538539 -0.01085794906403382 0
          0.4153813400206102 -0.25592083323597736 0 0.315046219387496 -0.03583429017523129 0
          0.8447985972628169 -0.1343161345292363 0 0.39079082996616055 0.05386307922810568 0
          0 0 0 0 0 0
          1.005497729951914 0.12192892602130996 0 0.2850844834233269 0 0
          0 -0.020676742204942845 0 0.5958926694051134 0 0
          0.49030808469767545 0.155119281774245 0 1.1326931725984812 0.08231879987527915 0
          0 0.08132275532385759 0 1.214785898320073 0.29134847268054626 0
          0.9000291348858422 0 0 1.306094934664944 0.2933737428180223 0
          0 0.2525662858400637 0 1.386810506994177 0 0
          0 0 0
          <InformationKey name="L2_NORM_RANGE" location="vtkDataArray" length="2">
            <Value index="0">
              0
            </Value>
            <Value index="1">
              1.9746405885
            </Value>
          </InformationKey>
        </DataArray>
        <DataArray type="Float64" Name="Pressure" format="ascii" RangeMin="-194.6522267579069" RangeMax="434.5131120110382">
          0 -194.6522267579069 0 0 -91.78693114892722 15.829833342286548
          0 0 0 -1.945669231692672 0 -114.46502437814456
          204.88745101002476 0 0 -185.23415493537112 209.17087264764507 0
          36.882918215310184 0 434.5131120110382 0 -88.91507483225288 410.32807350872736
          0 313.4966151684146 0 73.93754145092163 0 -56.63253997778698
          207.43396287160408 14.093047355037072 0 125.62241274205472 169.27386795629488
        </DataArray>
        <DataArray type="Float64" Name="Sigma" NumberOfComponents="6" format="ascii" RangeMin="0" RangeMax="5.04157574262916">
          0 0 0 0 0 0
          0.43915824567778483 -1.883796392395099 0 0.19443984300097739 0 0
          0 0 0 0 0 0
          0 0 0 0 0 0
          0.5423708896176593 -1.8679416309815133 0 0.2192900802701031 0 0
          0.33750461738606075 -1.9214390340877776 0 0.19513987319000262 0 0
          0 0 0 0 0 0
          0 0 0 0 0 0
          0 0 0 0 0 0
          1.447150883358654 -1.5047615544593365 0 0.22662886724853254 0 0
          0 0 0 0 0 0
          1.522711755653757 -0.8925551303984616 0 0.5710691226628988 0 0
          0.91655749439167 -1.5272991909757971 0 0.045612018769171855 0 0
          0 0 0 0 0 0
          0 0 0 0 0 0
          1.9107105448591855 -0.11151475485769578 0 0.853972510041674 0 0
          1.5649679843245687 -0.9711826467418676 0 0.18652351047506222 0 0
          0 0 0 0 0 0
          2.6927300213883782 -0.47393419002597503 0 0.9579433498877425 0 0
          0 0 0 0 0 0
          1.1451250445191683 -0.9404535775542318 0 -0.06877981481458922 0 0
          0 0 0 0 0 0
          2.3630006892069875 0.3857523438997551 0 1.0683645601987142 0 0
          1.246963411735924 -0.7922293434191866 0 0.021511246102993885 0 0
          0 0 0 0 0 0
          2.286829511614193 -0.152882935209939 0 0.9599929109020654 0 0
          0 0 0 0 0 0
          3.507750193599151 0.7806186465878475 0 1.494011558911948 0 0
          0 0 0 0 0 0
          2.7655890602309086 1.1118140739656401 0 1.3292142806856242 0 0
          3.4724876888761496 1.105637056002492 0 1.6499737516392547 0 0
          3.2634631660090343 2.0234772179056515 0 1.4684556349598572 0 0
          0 0 0 0 0 0
          4.252998220972949 2.1441332327649576 0 1.6529321768362395 0 0
          0.7126709890161498 2.458400950178353 0 1.4132377796306166 0 0
          <InformationKey name="L2_NORM_RANGE" location="vtkDataArray" length="2">
            <Value index="0">
              0
            </Value>
            <Value index="1">
              5.0415757426
            </Value>
          </InformationKey>
        </DataArray>
        <DataArray type="Float64" Name="LEVEL" format="ascii" RangeMin="-0.9475253828956303" RangeMax="0.6488121436506409">
          -0.2417821564782437 -0.18528467937658072 -0.3209059508246302 -0.279415009196225 -0.15639211668195663 0.0015361477374986332
          -0.48588000804220344 -0.24240907022555577 -0.4066659058236432 -0.0639631385224269 -0.47427142103647424 -0.20080555710571307
          0.3330696028595062 -0.6778982277457599 -0.6401079086724325 -0.3303510278480511 0.23097927467701976 -0.5642051503047883
          0.06083107327728657 -0.36886477481960245 0.6488121436506409 -0.9475253828956303 -0.08998079270448159 0.4611651287765582
          -0.7069173920954208 0.3120963839618201 -0.20510384395154296 0.12383767859279408 -0.4197952905959757 -0.02565801175364868
          0.20676631615663454 0.08753667303453339 -0.21269443624830298 0.11631812470877445 -0.03438807612620362
        </DataArray>
      </PointData>
      <CellData>
        <DataArray type="UInt8" Name="vtkGhostType" format="ascii" RangeMin="0" RangeMax="0">
          0 0 0 0 0 0
          0 0 0 0 0 0
          0 0 0 0 0 0
          0 0 0 0 0 0
          0 0 0 0 0 0
          0 0 0 0 0 0
          0 0 0 0 0 0
          0 0 0 0 0 0
          0 0 0
        </DataArray>
      </CellData>
      <Points>
        <DataArray type="Float32" Name="Points" NumberOfComponents="3" format="ascii" RangeMin="0" RangeMax="1.4142135623730951">
          0 1 0 0 0.7799999713897705 0
          0.25 1 0 0.3173084855079651 0.8117569088935852 0
          0.1888372004032135 0.6106976866722107 0 0 0.5199999809265137 0
          0.5 1 0 0.43114039301872253 0.6648067235946655 0
          0.5338732004165649 0.815037190914154 0 0.37767431139945984 0.4413954019546509 0
          0.6174687743186951 0.6476302742958069 0 0.5365368127822876 0.5048667788505554 0
          0 0.25999999046325684 0 0.75 1 0
          0.782043993473053 0.8033316731452942 0 0.6966695785522461 0.4923292100429535 0
          0.32800689339637756 0.19591359794139862 0 0.7909218072891235 0.6301581263542175 0
          0.5597307085990906 0.27817249298095703 0 0.8505734801292419 0.47420310974121094 0
          0 0 0 1 1 0
          0.7649514079093933 0.327553391456604 0 0.23776529729366302 0 0
          1 0.7271645069122314 0 0.4648641049861908 0 0
          0.9007874131202698 0.35183119773864746 0 0.7203437089920044 0.13417460024356842 0
          1 0.4593985974788666 0 0.855294406414032 0.23049800097942352 0
          0.6747748255729675 0 0 0.8903893828392029 0.11795260012149811 0
          1 0.22097820043563843 0 0.8700000047683716 0 0
          1 0 0
          <InformationKey name="L2_NORM_RANGE" location="vtkDataArray" length="2">
            <Value index="0">
              0
            </Value>
            <Value index="1">
              1.4142135624
            </Value>
          </InformationKey>
        </DataArray>
      </Points>
      <Cells>
        <DataArray type="Int64" Name="connectivity" format="ascii" RangeMin="0" RangeMax="34">
          30 33 27 30 27 25
          23 25 16 27 18 25
          20 23 12 18 9 16
          18 16 25 23 16 12
          16 9 12 9 4 12
          4 1 5 4 5 12
          33 34 31 31 34 32
          33 31 27 31 32 29
          29 32 26 31 29 27
          26 32 28 29 26 22
          26 28 19 22 26 19
          29 22 27 22 19 15
          15 19 17 22 15 18
          28 24 17 28 17 19
          15 17 10 10 17 14
          15 10 11 14 17 24
          10 14 8 11 10 7
          15 11 18 8 14 13
          10 8 7 7 8 3
          11 7 9 11 9 18
          18 27 22 3 8 6
          6 8 13 7 3 4
          14 24 21 14 21 13
          0 1 2 9 7 4
          3 6 2 3 2 1
          1 4 3
        </DataArray>
        <DataArray type="Int64" Name="offsets" format="ascii" RangeMin="3" RangeMax="153">
          3 6 9 12 15 18
          21 24 27 30 33 36
          39 42 45 48 51 54
          57 60 63 66 69 72
          75 78 81 84 87 90
          93 96 99 102 105 108
          111 114 117 120 123 126
          129 132 135 138 141 144
          147 150 153
        </DataArray>
        <DataArray type="UInt8" Name="types" format="ascii" RangeMin="5" RangeMax="5">
          5 5 5 5 5 5
          5 5 5 5 5 5
          5 5 5 5 5 5
          5 5 5 5 5 5
          5 5 5 5 5 5
          5 5 5 5 5 5
          5 5 5 5 5 5
          5 5 5 5 5 5
          5 5 5
        </DataArray>
      </Cells>
    </Piece>
  </UnstructuredGrid>
</VTKFile>
