<?xml version="1.0"?>
<VTKFile type="UnstructuredGrid" version="0.1" byte_order="LittleEndian" header_type="UInt32" compressor="vtkZLibDataCompressor">
  <UnstructuredGrid>
    <Piece NumberOfPoints="11" NumberOfCells="12">
      <PointData>
        <DataArray type="Float64" Name="Disp" NumberOfComponents="3" format="ascii" RangeMin="0.6131135446826037" RangeMax="2.490069361635959">
          2.436455244731721 -0.4803819358826029 0 1.9386736960882403 -0.4024278106683288 0
          1.3474452382895903 -0.30743671880812906 0 2.20935169731722 -0.2893783520168256 0
          1.6555993222695868 -0.2045273005680415 0 2.4838325512604493 -0.17612859806720915 0
          1.9789139244874157 -0.09886127940447766 0 0.9779085154525957 -0.10592077877977522 0
          0.6085435901527362 0.07471892368928904 0 0.6020486353853196 -0.18556236030951048 0
          1.3600001134612782 -0.01120411022218755 0
          <InformationKey name="L2_NORM_RANGE" location="vtkDataArray" length="2">
            <Value index="0">
              0.61311354468
            </Value>
            <Value index="1">
              2.4900693616
            </Value>
          </InformationKey>
        </DataArray>
        <DataArray type="Float64" Name="Sld_traction" NumberOfComponents="3" format="ascii" RangeMin="0" RangeMax="76.69710723274001">
          2.6834965757108558 2.5520673901918416 0 8.612710439536315 6.621610308638653 0
          22.87252778764606 15.963259627261756 0 0 0 0
          0 0 0 0.4073943000208808 -1.5201404205233011 0
          6.22630315244051 -11.819798676835932 0 0 0 0
          54.11032861969566 -54.35548357377539 0 66.27190321558872 23.851549675643934 0
          21.80019551321252 -31.219836965199367 0
          <InformationKey name="L2_NORM_RANGE" location="vtkDataArray" length="2">
            <Value index="0">
              0
            </Value>
            <Value index="1">
              76.697107233
            </Value>
          </InformationKey>
        </DataArray>
        <DataArray type="Float64" Name="Fld_traction" NumberOfComponents="3" format="ascii" RangeMin="0" RangeMax="5.174567680569541">
          1.5832556962149675 0.25389504270096447 0 2.267886060589337 -0.6827479079032905 0
          2.2329425581191913 -0.64574680487699 0 0 0 0
          0 0 0 1.008677375237947 0.29782223983203543 0
          3.2432222294147133 -0.7497990083024004 0 0 0 0
          0 0 0 2.154072169777639 -0.5433419361984223 0
          4.999977265967637 -1.3328083210280608 0
          <InformationKey name="L2_NORM_RANGE" location="vtkDataArray" length="2">
            <Value index="0">
              0
            </Value>
            <Value index="1">
              5.1745676806
            </Value>
          </InformationKey>
        </DataArray>
        <DataArray type="Float64" Name="Velocity" NumberOfComponents="3" format="ascii" RangeMin="0.006052483814522508" RangeMax="0.046254378959808884">
          0.044963833366813644 -0.0006246708806474377 0 0.03978203813378256 -0.001938956120597135 0
          0.0196447255480261 -0.0037113393500310572 0 0.043887822418585465 0.0007184126989581846 0
          0.03166535926131808 0.0011437866834401733 0 0.04624242825422886 0.001051381048957592 0
          0.0423358207836686 0.0033293416032084897 0 0.004961409713391096 0.003466550732489776 0
          -0.010815579006015485 0.007815520252682728 0 -0.010550935774193138 0.0018358891090832913 0
          0.02172724575689311 0.007666161637006709 0
          <InformationKey name="L2_NORM_RANGE" location="vtkDataArray" length="2">
            <Value index="0">
              0.0060524838145
            </Value>
            <Value index="1">
              0.04625437896
            </Value>
          </InformationKey>
        </DataArray>
      </PointData>
      <CellData>
        <DataArray type="UInt8" Name="vtkGhostType" format="ascii" RangeMin="0" RangeMax="0">
          0 0 0 0 0 0
          0 0 0 0 0 0
        </DataArray>
        <DataArray type="Float64" Name="Gauss Stress" NumberOfComponents="6" format="ascii" RangeMin="3.0334179574283775" RangeMax="121.8535382188831">
          1.0459334032114822 2.778960189758952 0 0.6205063128045383 0 0
          1.8993690452371133 6.097951300228045 0 6.296101461669907 0 0
          4.337726912836848 -4.0627971478515 0 1.1999379800244607 0 0
          5.248606850540023 -0.6425020507660216 0 6.884615405455101 0 0
          -3.895619374721096 12.138482891986099 0 -7.791126238565484 0 0
          33.64501256669982 -44.89037652301381 0 108.17186326152225 0 0
          -3.2619586106404346 25.380978962264116 0 26.820134430958937 0 0
          13.80119394154983 -28.215639824002686 0 1.7627872085512717 0 0
          15.399610522513708 -13.045657192674046 0 36.471663922745975 0 0
          -15.264763315170448 37.16219899626291 0 -46.3203712398901 0 0
          31.929922086701822 -70.14169064819546 0 0.6084116080496139 0 0
          -13.678716411207576 59.21858430972374 0 60.327155385377026 0 0
          <InformationKey name="L2_NORM_RANGE" location="vtkDataArray" length="2">
            <Value index="0">
              3.0334179574
            </Value>
            <Value index="1">
              121.85353822
            </Value>
          </InformationKey>
        </DataArray>
        <DataArray type="Float64" Name="Gauss Strain" NumberOfComponents="6" format="ascii" RangeMin="0.0002602333954821698" RangeMax="0.022376687807258034">
          0.000049964086420939406 0.0002232280577506573 0 0.00012407354442091803 0 0
          0.00007508150578011685 0.000494721054809133 0 0.0012585644474990734 0 0
          0.00042953130896244973 -0.00041054672733598075 0 0.00023999491809236016 0 0
          0.0004580319740329908 -0.00013091492108208147 0 0.0013765397771565335 0 0
          -0.0005089889159708427 0.0010935599249414785 0 -0.0015573881362774763 0 0
          0.0033021434321877097 -0.0045595808129820226 0 0.021656921036625594 0 0
          -0.0006556277755102036 0.002204319834451518 0 0.005355887759028905 0 0
          0.0015807471729730733 -0.0026254983116538178 0 0.0003529402418897112 0 0
          0.0014799309957392866 -0.0013643216014822546 0 0.0072936297085278625 0 0
          -0.0018837483041445058 0.0033512189276422855 0 -0.009250416767028367 0 0
          0.003708989056481815 -0.006526912422891606 0 0.00012202494135323493 0 0
          -0.0020912221791264947 0.005175663564828625 0 0.012027620806472062 0 0
          <InformationKey name="L2_NORM_RANGE" location="vtkDataArray" length="2">
            <Value index="0">
              0.00026023339548
            </Value>
            <Value index="1">
              0.022376687807
            </Value>
          </InformationKey>
        </DataArray>
        <DataArray type="Float64" Name="Btraction" NumberOfComponents="3" format="ascii" RangeMin="0" RangeMax="2.8340703200099706">
          0.8639776904843046 0.18390576084433327 0 1.417299868217553 -0.150658922823455 0
          1.2837139189347682 -0.142950955067442 0 0 0 0
          0 0 0 0 0 0
          2.7477331651274493 -0.6942024431101536 0 1.5002762062361756 -0.44283157092676007 0
          0 0 0 0 0 0
          1.4623382426322764 -0.396362913691804 0 0 0 0
          <InformationKey name="L2_NORM_RANGE" location="vtkDataArray" length="2">
            <Value index="0">
              0
            </Value>
            <Value index="1">
              2.83407032
            </Value>
          </InformationKey>
        </DataArray>
      </CellData>
      <Points>
        <DataArray type="Float32" Name="Points" NumberOfComponents="3" format="ascii" RangeMin="10.632507764558053" RangeMax="14.866068747318506">
          11 10 0 11 8.362662315368652 0
          11 6.387491226196289 0 10.5 9.17588996887207 0
          10.5 7.3431549072265625 0 10 10 0
          10 8.340899467468262 0 10.5 5 0
          10 3.61250901222229 0 11 3.7184319496154785 0
          10 6.2815680503845215 0
          <InformationKey name="L2_NORM_RANGE" location="vtkDataArray" length="2">
            <Value index="0">
              10.632507765
            </Value>
            <Value index="1">
              14.866068747
            </Value>
          </InformationKey>
        </DataArray>
      </Points>
      <Cells>
        <DataArray type="Int64" Name="connectivity" format="ascii" RangeMin="0" RangeMax="10">
          0 5 3 3 5 6
          0 3 1 3 6 1
          1 6 4 8 9 7
          4 6 10 1 4 2
          2 4 10 2 10 7
          7 9 2 8 7 10
        </DataArray>
        <DataArray type="Int64" Name="offsets" format="ascii" RangeMin="3" RangeMax="36">
          3 6 9 12 15 18
          21 24 27 30 33 36
        </DataArray>
        <DataArray type="UInt8" Name="types" format="ascii" RangeMin="5" RangeMax="5">
          5 5 5 5 5 5
          5 5 5 5 5 5
        </DataArray>
      </Cells>
    </Piece>
  </UnstructuredGrid>
</VTKFile>
