<?xml version="1.0"?>
<VTKFile type="UnstructuredGrid" version="0.1" byte_order="LittleEndian" header_type="UInt32" compressor="vtkZLibDataCompressor">
  <UnstructuredGrid>
    <Piece NumberOfPoints="11" NumberOfCells="12">
      <PointData>
        <DataArray type="Float64" Name="Disp" NumberOfComponents="3" format="ascii" RangeMin="0.6270493371051402" RangeMax="2.532237192973533">
          2.476579158092545 -0.49842619296949126 0 1.973101084653017 -0.4185427126485966 0
          1.374026985450632 -0.320609206175455 0 2.247161363016537 -0.30468694238648364 0
          1.686621379607205 -0.2170733764721011 0 2.525047160483869 -0.19068832898430693 0
          2.014391712639693 -0.11117699255554835 0 0.9984329730622835 -0.11397004201948673 0
          0.6228832271220337 0.07216201586732927 0 0.6156478574165355 -0.19357682593796366 0
          1.3874179023410598 -0.019539017253532843 0
          <InformationKey name="L2_NORM_RANGE" location="vtkDataArray" length="2">
            <Value index="0">
              0.62704933711
            </Value>
            <Value index="1">
              2.532237193
            </Value>
          </InformationKey>
        </DataArray>
        <DataArray type="Float64" Name="Sld_traction" NumberOfComponents="3" format="ascii" RangeMin="0" RangeMax="77.45243900059018">
          2.6961855041988554 2.0769406307429343 0 8.420826419062621 6.466344599627266 0
          22.549961403540493 16.426698855217875 0 0 0 0
          0 0 0 0.2083615440195832 -1.2353861207887542 0
          5.401108757143642 -10.716499262272004 0 0 0 0
          53.518823610322244 -55.98763994407476 0 67.07099546365217 25.134475532359215 0
          20.517095660592865 -31.01388800227646 0
          <InformationKey name="L2_NORM_RANGE" location="vtkDataArray" length="2">
            <Value index="0">
              0
            </Value>
            <Value index="1">
              77.452439001
            </Value>
          </InformationKey>
        </DataArray>
        <DataArray type="Float64" Name="Fld_traction" NumberOfComponents="3" format="ascii" RangeMin="0" RangeMax="4.852061435487551">
          1.9284043575143521 0.3153263823402299 0 2.8376800268939286 -0.8703602124612303 0
          2.895871783876088 -0.8567133107276833 0 0 0 0
          0 0 0 0.9093072825860323 0.4863173898171176 0
          3.0105723474557853 -0.6831616377983115 0 0 0 0
          0 0 0 2.8920834365041164 -0.7477383689368966 0
          4.685602635623593 -1.260011156610429 0
          <InformationKey name="L2_NORM_RANGE" location="vtkDataArray" length="2">
            <Value index="0">
              0
            </Value>
            <Value index="1">
              4.8520614355
            </Value>
          </InformationKey>
        </DataArray>
        <DataArray type="Float64" Name="Velocity" NumberOfComponents="3" format="ascii" RangeMin="0.011968963218765533" RangeMax="0.05227078547987424">
          -0.02919738487693624 0.01993844290695057 0 -0.042863402185629784 0.026585594725123785 0
          -0.03814568306456634 0.03075743201385746 0 -0.035798550018030006 0.026865922116795657 0
          -0.04171495854183571 0.028245306638682965 0 -0.026660585532493286 0.029781126030653013 0
          -0.04217876244228691 0.030873726913350746 0 -0.02384031167184497 0.02051901893154276 0
          -0.008281260121360545 0.00864157458652795 0 -0.008480951227956168 0.019244515449768504 0
          -0.03905086070055419 0.022236097102301816 0
          <InformationKey name="L2_NORM_RANGE" location="vtkDataArray" length="2">
            <Value index="0">
              0.011968963219
            </Value>
            <Value index="1">
              0.05227078548
            </Value>
          </InformationKey>
        </DataArray>
      </PointData>
      <CellData>
        <DataArray type="UInt8" Name="vtkGhostType" format="ascii" RangeMin="0" RangeMax="0">
          0 0 0 0 0 0
          0 0 0 0 0 0
        </DataArray>
        <DataArray type="Float64" Name="Gauss Stress" NumberOfComponents="6" format="ascii" RangeMin="2.2168597259752723" RangeMax="122.46792399118009">
          1.1655207340811349 1.8475282575206262 0 0.37771391388315295 0 0
          1.6077086228081519 4.285012152867545 0 4.652273977843375 0 0
          4.373738493220698 -4.571532403453662 0 0.8351688422636615 0 0
          4.87010880085502 -2.053427727081174 0 5.121902076429956 0 0
          -3.5891289981529715 7.154278101867746 0 -7.9164951322199055 0 0
          34.43227999526124 -52.18311402709779 0 105.30780175975713 0 0
          -2.755034665346946 18.957075718298398 0 23.706285566310164 0 0
          13.01886972303116 -30.547577046313542 0 0.7583082769562787 0 0
          14.748504277728177 -16.99989260184931 0 32.47948632654852 0 0
          -15.39339098695492 30.375449018326442 0 -46.08892290254094 0 0
          31.419326418379683 -75.90171788239167 0 -0.527649875142232 0 0
          -12.515363605305707 51.006092964770374 0 58.84328243401127 0 0
          <InformationKey name="L2_NORM_RANGE" location="vtkDataArray" length="2">
            <Value index="0">
              2.216859726
            </Value>
            <Value index="1">
              122.46792399
            </Value>
          </InformationKey>
        </DataArray>
        <DataArray type="Float64" Name="Gauss Strain" NumberOfComponents="6" format="ascii" RangeMin="0.00017660950426452387" RangeMax="0.02200031867688484">
          0.00007351843577591 0.000141707910118416 0 0.00007553029066205962 0 0
          0.00007626029406260226 0.00034389138236573524 0 0.0009301098166833311 0 0
          0.00043987296723613223 -0.00045471164303001466 0 0.0001670445091921465 0 0
          0.0004460731622122348 -0.00024617608789756495 0 0.0010242259450030182 0 0
          -0.00041129224028146893 0.0006628298381842201 0 -0.0015829768203733051 0 0
          0.003480994766735911 -0.005193561560504323 0 0.021093212548962216 0 0
          -0.0005172936772737111 0.0016515333671576757 0 0.004736051203751614 0 0
          0.0015470782513591352 -0.0028152675964896456 0 0.0001518601221202748 0 0
          0.0014849670757015039 -0.001690600841459444 0 0.006497387262460735 0 0
          -0.001796384888773428 0.0027760014195513105 0 -0.00920872628717239 0 0
          0.003746122870629808 -0.007021045237038281 0 -0.00010587476006521915 0 0
          -0.0018689783750698292 0.004466417399866529 0 0.01173762388475964 0 0
          <InformationKey name="L2_NORM_RANGE" location="vtkDataArray" length="2">
            <Value index="0">
              0.00017660950426
            </Value>
            <Value index="1">
              0.022000318677
            </Value>
          </InformationKey>
        </DataArray>
        <DataArray type="Float64" Name="Btraction" NumberOfComponents="3" format="ascii" RangeMin="0" RangeMax="2.6458989205331656">
          0.9459038800334614 0.26721459071911574 0 1.3066265433472724 -0.0656147493270646 0
          1.58869479480276 -0.18501127670700013 0 0 0 0
          0 0 0 0 0 0
          2.5653916610264593 -0.6477242648029133 0 1.9111839369233385 -0.5756911743963045 0
          0 0 0 0 0 0
          1.929318406793401 -0.5348172265548599 0 0 0 0
          <InformationKey name="L2_NORM_RANGE" location="vtkDataArray" length="2">
            <Value index="0">
              0
            </Value>
            <Value index="1">
              2.6458989205
            </Value>
          </InformationKey>
        </DataArray>
      </CellData>
      <Points>
        <DataArray type="Float32" Name="Points" NumberOfComponents="3" format="ascii" RangeMin="10.632507764558053" RangeMax="14.866068747318506">
          11 10 0 11 8.362662315368652 0
          11 6.387491226196289 0 10.5 9.17588996887207 0
          10.5 7.3431549072265625 0 10 10 0
          10 8.340899467468262 0 10.5 5 0
          10 3.61250901222229 0 11 3.7184319496154785 0
          10 6.2815680503845215 0
          <InformationKey name="L2_NORM_RANGE" location="vtkDataArray" length="2">
            <Value index="0">
              10.632507765
            </Value>
            <Value index="1">
              14.866068747
            </Value>
          </InformationKey>
        </DataArray>
      </Points>
      <Cells>
        <DataArray type="Int64" Name="connectivity" format="ascii" RangeMin="0" RangeMax="10">
          0 5 3 3 5 6
          0 3 1 3 6 1
          1 6 4 8 9 7
          4 6 10 1 4 2
          2 4 10 2 10 7
          7 9 2 8 7 10
        </DataArray>
        <DataArray type="Int64" Name="offsets" format="ascii" RangeMin="3" RangeMax="36">
          3 6 9 12 15 18
          21 24 27 30 33 36
        </DataArray>
        <DataArray type="UInt8" Name="types" format="ascii" RangeMin="5" RangeMax="5">
          5 5 5 5 5 5
          5 5 5 5 5 5
        </DataArray>
      </Cells>
    </Piece>
  </UnstructuredGrid>
</VTKFile>
