<?xml version="1.0"?>
<VTKFile type="UnstructuredGrid" version="0.1" byte_order="LittleEndian" header_type="UInt32" compressor="vtkZLibDataCompressor">
  <UnstructuredGrid>
    <Piece NumberOfPoints="13" NumberOfCells="14">
      <PointData>
        <DataArray type="Float64" Name="Disp" NumberOfComponents="3" format="ascii" RangeMin="0" RangeMax="2.0307506750356876">
          0.6135691869321006 -0.19172903768211721 0 1.3911322605776664 -0.016277408719293993 0
          0.15614448300265746 -0.09098010941885983 0 0.3834598859648925 -0.02973320713298681 0
          0 0 0 0.6209779846824036 0.07471906611901946 0
          0.06796238537572913 -0.001591488961097036 0 0.1668662802438605 0.07706220816323102 0
          0 0 0 0.9990105792677575 -0.11191767702646431 0
          1.6944928295435122 -0.21656289942664148 0 2.0278030786044323 -0.1093754019891425 0
          1.377058461557045 -0.32057750072939173 0
          <InformationKey name="L2_NORM_RANGE" location="vtkDataArray" length="2">
            <Value index="0">
              0
            </Value>
            <Value index="1">
              2.030750675
            </Value>
          </InformationKey>
        </DataArray>
        <DataArray type="Float64" Name="Sld_traction" NumberOfComponents="3" format="ascii" RangeMin="0" RangeMax="171.98817757020865">
          68.98852328510955 23.23824106885622 0 22.8953117212775 -32.613391266625364 0
          146.81457312618065 40.52386116756343 0 0 0 0
          -47.12883588689723 43.76443371752448 0 55.714678214858786 -55.73766376180412 0
          0 0 0 152.71093346778923 -79.11576343130407 0
          -7.039980356326094 -45.99161284732524 0 0 0 0
          0 0 0 6.735255703230163 -12.896622503480842 0
          24.70597464817981 15.939280568057322 0
          <InformationKey name="L2_NORM_RANGE" location="vtkDataArray" length="2">
            <Value index="0">
              0
            </Value>
            <Value index="1">
              171.98817757
            </Value>
          </InformationKey>
        </DataArray>
        <DataArray type="Float64" Name="Fld_traction" NumberOfComponents="3" format="ascii" RangeMin="0" RangeMax="5.834339663250268">
          2.8355288433457204 -0.735732019101137 0 4.16241522016068 -1.1168101977631737 0
          2.8671140206233994 -0.48678930445708807 0 0 0 0
          1.397889777497599 1.372117311043309 0 5.3136648066044785 -1.3098648452432722 0
          0 0 0 5.758562861598081 -0.9372689449664776 0
          2.9437329033379998 -3.23848145721936 0 0 0 0
          0 0 0 2.482010091707618 -0.5323942540580041 0
          2.858610306008275 -0.8551431698520171 0
          <InformationKey name="L2_NORM_RANGE" location="vtkDataArray" length="2">
            <Value index="0">
              0
            </Value>
            <Value index="1">
              5.8343396633
            </Value>
          </InformationKey>
        </DataArray>
        <DataArray type="Float64" Name="Velocity" NumberOfComponents="3" format="ascii" RangeMin="0" RangeMax="0.03183990791701556">
          -0.0011143630847240682 0.002411883213237251 0 0.00900221932495504 0.005228046694554241 0
          -0.0021584056678787267 0.0024957411520686243 0 -0.0014566206096693068 0.0027548143811890816 0
          0 0 0 0.0006001960131486461 0.0037867018437122146 0
          -0.0010272766893675254 0.000973655052477073 0 -0.001247707554824437 0.0018718295439546194 0
          0 0 0 0.0033770291383857787 0.002822709859602951 0
          0.01797515248182857 -0.00033599206944495696 0 0.03159281046985196 0.00395904821643317 0
          0.007084780495539622 -0.001181663210588036 0
          <InformationKey name="L2_NORM_RANGE" location="vtkDataArray" length="2">
            <Value index="0">
              0
            </Value>
            <Value index="1">
              0.031839907917
            </Value>
          </InformationKey>
        </DataArray>
      </PointData>
      <CellData>
        <DataArray type="UInt8" Name="vtkGhostType" format="ascii" RangeMin="0" RangeMax="1">
          0 0 1 1 1 1
          1 1 0 0 0 0
          0 0
        </DataArray>
        <DataArray type="Float64" Name="Gauss Stress" NumberOfComponents="6" format="ascii" RangeMin="38.176082763626496" RangeMax="602.9714852757755">
          112.85243824643041 -259.6461427652737 0 -32.13135349878674 0 0
          -42.79393435116328 68.64885054148726 0 -148.79646433248325 0 0
          36.749515020485674 -50.957331315820205 0 111.51089990094428 0 0
          -3.581097823377834 24.99996948920887 0 28.628492085565462 0 0
          17.55798058237025 -18.266298554774032 0 38.88776782769901 0 0
          -17.237534372923612 37.74986157405306 0 -50.40361861728865 0 0
          33.20738489145932 -76.06571992497437 0 -2.1787710246719323 0 0
          -13.85398585269029 59.3216567852602 0 62.243506409955586 0 0
          30.19530295440513 -23.20266780648044 0 412.3175546813283 0 0
          185.56143080533604 -569.3068502591302 0 0.4049112559939532 0 0
          -215.7294015585966 545.4634002962473 0 139.6607185149085 0 0
          -67.78753323873502 74.9504003820816 0 -264.7200703873378 0 0
          86.54938925348931 -84.68841911041247 0 250.88357990766036 0 0
          -61.20055132653434 231.8332244918376 0 128.39623237384802 0 0
          <InformationKey name="L2_NORM_RANGE" location="vtkDataArray" length="2">
            <Value index="0">
              38.176082764
            </Value>
            <Value index="1">
              602.97148528
            </Value>
          </InformationKey>
        </DataArray>
        <DataArray type="Float64" Name="Gauss Strain" NumberOfComponents="6" format="ascii" RangeMin="0.0061545013104936435" RangeMax="0.0828002375204138">
          0.012979902953220823 -0.024680792492688168 0 -0.00649714753326606 0 0
          -0.005072873702907099 0.006055392760517252 0 -0.029716534910758215 0 0
          0.003637271040327238 -0.005144549937578957 0 0.022330497581918955 0 0
          -0.0006793332633479032 0.00217458378178198 0 0.005717305140902298 0 0
          0.0017347143240530882 -0.0018481673632589897 0 0.007778538721011691 0 0
          -0.0020693104343801885 0.003421903443939278 0 -0.010066926985801172 0 0
          0.0038994846468049515 -0.0070622778718237855 0 -0.0004371280672411398 0 0
          -0.002111903455290442 0.005182792670306691 0 0.0124097978147938 0 0
          0 -0.0053503958880639635 0 0.08262719042347941 0 0
          0.02272641905708317 -0.054977749064596404 0 0.00008336101303858497 0 0
          -0.028220767667891722 0.046282839181044366 0 0.027339268682309237 0 0
          -0.008173623765661109 0.006108896071372826 0 -0.05297638211033721 0 0
          0.007431720636150161 -0.009707817125482077 0 0.05022288748829043 0 0
          -0.009023403577809619 0.019939560985161142 0 0.025380934452877937 0 0
          <InformationKey name="L2_NORM_RANGE" location="vtkDataArray" length="2">
            <Value index="0">
              0.0061545013105
            </Value>
            <Value index="1">
              0.08280023752
            </Value>
          </InformationKey>
        </DataArray>
        <DataArray type="Float64" Name="Btraction" NumberOfComponents="3" format="ascii" RangeMin="0" RangeMax="3.7659857173213065">
          1.9008809546563727 -0.4075071078527416 0 0 0 0
          0 0 0 2.2148084372894328 -0.5497348172737258 0
          0 0 0 0 0 0
          1.8980463831179981 -0.5302917296510512 0 3.1586933422550523 -0.8088916810021485 0
          0 0 0 1.421667932706999 0.2951093355287402 0
          2.900765254978693 -1.391916800728612 0 0 0 0
          0 0 0 3.6907425560675193 -0.7490445967365831 0
          <InformationKey name="L2_NORM_RANGE" location="vtkDataArray" length="2">
            <Value index="0">
              0
            </Value>
            <Value index="1">
              3.7659857173
            </Value>
          </InformationKey>
        </DataArray>
      </CellData>
      <Points>
        <DataArray type="Float32" Name="Points" NumberOfComponents="3" format="ascii" RangeMin="10" RangeMax="13.021927811442218">
          11 3.7184319496154785 0 10 6.2815680503845215 0
          11 1.6591010093688965 0 10.5 2.6568450927734375 0
          11 0 0 10 3.61250901222229 0
          10.5 0.8241099119186401 0 10 1.6373380422592163 0
          10 0 0 10.5 5 0
          10.5 7.3431549072265625 0 10 8.340899467468262 0
          11 6.387491226196289 0
          <InformationKey name="L2_NORM_RANGE" location="vtkDataArray" length="2">
            <Value index="0">
              10
            </Value>
            <Value index="1">
              13.021927811
            </Value>
          </InformationKey>
        </DataArray>
      </Points>
      <Cells>
        <DataArray type="Int64" Name="connectivity" format="ascii" RangeMin="0" RangeMax="12">
          3 2 0 5 3 0
          5 0 9 10 11 1
          12 10 1 12 1 9
          9 0 12 5 9 1
          8 4 6 6 4 2
          8 6 7 6 2 7
          7 2 3 7 3 5
        </DataArray>
        <DataArray type="Int64" Name="offsets" format="ascii" RangeMin="3" RangeMax="42">
          3 6 9 12 15 18
          21 24 27 30 33 36
          39 42
        </DataArray>
        <DataArray type="UInt8" Name="types" format="ascii" RangeMin="5" RangeMax="5">
          5 5 5 5 5 5
          5 5 5 5 5 5
          5 5
        </DataArray>
      </Cells>
    </Piece>
  </UnstructuredGrid>
</VTKFile>
