<?xml version="1.0"?>
<VTKFile type="UnstructuredGrid" version="0.1" byte_order="LittleEndian" header_type="UInt32" compressor="vtkZLibDataCompressor">
  <UnstructuredGrid>
    <Piece NumberOfPoints="13" NumberOfCells="14">
      <PointData>
        <DataArray type="Float64" Name="Disp" NumberOfComponents="3" format="ascii" RangeMin="0" RangeMax="2.017457383843627">
          0.6156478574165355 -0.19357682593796366 0 1.3874179023410598 -0.019539017253532843 0
          0.15753814194521334 -0.09245910244078344 0 0.3852561389085254 -0.031431865517085586 0
          0 0 0 0.6228832271220337 0.07216201586732927 0
          0.06859951831104498 -0.0020909254193528046 0 0.16827158831339736 0.07640362526516144 0
          0 0 0 0.9984329730622835 -0.11397004201948673 0
          1.686621379607205 -0.2170733764721011 0 2.014391712639693 -0.11117699255554835 0
          1.374026985450632 -0.320609206175455 0
          <InformationKey name="L2_NORM_RANGE" location="vtkDataArray" length="2">
            <Value index="0">
              0
            </Value>
            <Value index="1">
              2.0174573838
            </Value>
          </InformationKey>
        </DataArray>
        <DataArray type="Float64" Name="Sld_traction" NumberOfComponents="3" format="ascii" RangeMin="0" RangeMax="172.739643154639">
          67.07099546365217 25.134475532359215 0 20.517095660592865 -31.01388800227646 0
          146.1454784270893 43.14259669004726 0 0 0 0
          -48.43508732840734 48.23686040476909 0 53.518823610322244 -55.98763994407476 0
          0 0 0 152.46533492222903 -81.19917465248365 0
          -7.397816067163939 -44.99341415902499 0 0 0 0
          0 0 0 5.401108757143642 -10.716499262272004 0
          22.549961403540493 16.426698855217875 0
          <InformationKey name="L2_NORM_RANGE" location="vtkDataArray" length="2">
            <Value index="0">
              0
            </Value>
            <Value index="1">
              172.73964315
            </Value>
          </InformationKey>
        </DataArray>
        <DataArray type="Float64" Name="Fld_traction" NumberOfComponents="3" format="ascii" RangeMin="0" RangeMax="6.263044232048321">
          2.8920834365041164 -0.7477383689368966 0 4.685602635623593 -1.260011156610429 0
          2.9325540331362854 -0.4993368483418521 0 0 0 0
          1.430177929148145 1.4024616698453292 0 5.767423927474901 -1.4235186554073758 0
          0 0 0 6.180783571651097 -1.0117497185577298 0
          3.152416162309122 -3.4740381268104863 0 0 0 0
          0 0 0 3.0105723474557853 -0.6831616377983115 0
          2.895871783876088 -0.8567133107276833 0
          <InformationKey name="L2_NORM_RANGE" location="vtkDataArray" length="2">
            <Value index="0">
              0
            </Value>
            <Value index="1">
              6.263044232
            </Value>
          </InformationKey>
        </DataArray>
        <DataArray type="Float64" Name="Velocity" NumberOfComponents="3" format="ascii" RangeMin="0" RangeMax="0.05227078547987424">
          -0.008480951227956168 0.019244515449768504 0 -0.03905086070055419 0.022236097102301816 0
          0.0010996413800857807 0.007114804234131737 0 -0.0031331765879785978 0.009717370303966535 0
          0 0 0 -0.008281260121360545 0.00864157458652795 0
          0.0008674749156591145 0.002771564837676176 0 0.002263855673760043 0.004501967099451134 0
          0 0 0 -0.02384031167184497 0.02051901893154276 0
          -0.04171495854183571 0.028245306638682965 0 -0.04217876244228691 0.030873726913350746 0
          -0.03814568306456634 0.03075743201385746 0
          <InformationKey name="L2_NORM_RANGE" location="vtkDataArray" length="2">
            <Value index="0">
              0
            </Value>
            <Value index="1">
              0.05227078548
            </Value>
          </InformationKey>
        </DataArray>
      </PointData>
      <CellData>
        <DataArray type="UInt8" Name="vtkGhostType" format="ascii" RangeMin="0" RangeMax="1">
          0 0 1 1 1 1
          1 1 0 0 0 0
          0 0
        </DataArray>
        <DataArray type="Float64" Name="Gauss Stress" NumberOfComponents="6" format="ascii" RangeMin="30.478663211302553" RangeMax="608.6053023748443">
          111.69127164071745 -262.14261009487814 0 -30.174554366276652 0 0
          -41.80510408545672 60.91279896147779 0 -145.01776585870095 0 0
          34.43227999526124 -52.18311402709779 0 105.30780175975713 0 0
          -2.755034665346946 18.957075718298398 0 23.706285566310164 0 0
          14.748504277728177 -16.99989260184931 0 32.47948632654852 0 0
          -15.39339098695492 30.375449018326442 0 -46.08892290254094 0 0
          31.419326418379683 -75.90171788239167 0 -0.527649875142232 0 0
          -12.515363605305707 51.006092964770374 0 58.84328243401127 0 0
          29.63800112144682 -30.496421924869473 0 416.18294422650143 0 0
          186.21180196450655 -579.4162665482626 0 1.5391384537712567 0 0
          -217.11997960826275 541.0088305939651 0 142.38094298703476 0 0
          -68.01104376631682 68.54082744230999 0 -264.5903234240619 0 0
          86.46820958734199 -90.25741318354896 0 248.25806490780798 0 0
          -59.259971349427914 221.59384201453418 0 127.77472310621783 0 0
          <InformationKey name="L2_NORM_RANGE" location="vtkDataArray" length="2">
            <Value index="0">
              30.478663211
            </Value>
            <Value index="1">
              608.60530237
            </Value>
          </InformationKey>
        </DataArray>
        <DataArray type="Float64" Name="Gauss Strain" NumberOfComponents="6" format="ascii" RangeMin="0.005042354233484558" RangeMax="0.08366997653878835">
          0.012919796703662998 -0.02488570624937602 0 -0.006103054110048521 0 0
          -0.004853786043681918 0.005407967060073793 0 -0.02897521200798419 0 0
          0.003480994766735911 -0.005193561560504323 0 0.021093212548962216 0 0
          -0.0005172936772737111 0.0016515333671576757 0 0.004736051203751614 0 0
          0.0014849670757015039 -0.001690600841459444 0 0.006497387262460735 0 0
          -0.001796384888773428 0.0027760014195513105 0 -0.00920872628717239 0 0
          0.003746122870629808 -0.007021045237038281 0 -0.00010587476006521915 0 0
          -0.0018689783750698292 0.004466417399866529 0 0.01173762388475964 0 0
          0 -0.006029039072501517 0 0.08345247546875792 0 0
          0.022901059446435168 -0.055966425500238004 0 0.0003170938575160816 0 0
          -0.028290541063461065 0.04594458892042824 0 0.027883567192366246 0 0
          -0.008095947615135653 0.005573959180098398 0 -0.05297510796614069 0 0
          0.007522080779160332 -0.01017366429718225 0 0.0497167457765867 0 0
          -0.008694538990186351 0.019080516069315767 0 0.025272578121548987 0 0
          <InformationKey name="L2_NORM_RANGE" location="vtkDataArray" length="2">
            <Value index="0">
              0.0050423542335
            </Value>
            <Value index="1">
              0.083669976539
            </Value>
          </InformationKey>
        </DataArray>
        <DataArray type="Float64" Name="Btraction" NumberOfComponents="3" format="ascii" RangeMin="0" RangeMax="4.0646196281708455">
          1.9415458232134668 -0.4156917390929161 0 0 0 0
          0 0 0 2.5653916610264593 -0.6477242648029133 0
          0 0 0 0 0 0
          1.929318406793401 -0.5348172265548599 0 3.4843421876994976 -0.894509937339268 0
          0 0 0 1.4542439874281432 0.3010416071678256 0
          3.111066577986739 -1.4952626151227382 0 0 0 0
          0 0 0 3.982735833041999 -0.8117561246550349 0
          <InformationKey name="L2_NORM_RANGE" location="vtkDataArray" length="2">
            <Value index="0">
              0
            </Value>
            <Value index="1">
              4.0646196282
            </Value>
          </InformationKey>
        </DataArray>
      </CellData>
      <Points>
        <DataArray type="Float32" Name="Points" NumberOfComponents="3" format="ascii" RangeMin="10" RangeMax="13.021927811442218">
          11 3.7184319496154785 0 10 6.2815680503845215 0
          11 1.6591010093688965 0 10.5 2.6568450927734375 0
          11 0 0 10 3.61250901222229 0
          10.5 0.8241099119186401 0 10 1.6373380422592163 0
          10 0 0 10.5 5 0
          10.5 7.3431549072265625 0 10 8.340899467468262 0
          11 6.387491226196289 0
          <InformationKey name="L2_NORM_RANGE" location="vtkDataArray" length="2">
            <Value index="0">
              10
            </Value>
            <Value index="1">
              13.021927811
            </Value>
          </InformationKey>
        </DataArray>
      </Points>
      <Cells>
        <DataArray type="Int64" Name="connectivity" format="ascii" RangeMin="0" RangeMax="12">
          3 2 0 5 3 0
          5 0 9 10 11 1
          12 10 1 12 1 9
          9 0 12 5 9 1
          8 4 6 6 4 2
          8 6 7 6 2 7
          7 2 3 7 3 5
        </DataArray>
        <DataArray type="Int64" Name="offsets" format="ascii" RangeMin="3" RangeMax="42">
          3 6 9 12 15 18
          21 24 27 30 33 36
          39 42
        </DataArray>
        <DataArray type="UInt8" Name="types" format="ascii" RangeMin="5" RangeMax="5">
          5 5 5 5 5 5
          5 5 5 5 5 5
          5 5
        </DataArray>
      </Cells>
    </Piece>
  </UnstructuredGrid>
</VTKFile>
