<?xml version="1.0"?>
<VTKFile type="UnstructuredGrid" version="0.1" byte_order="LittleEndian" header_type="UInt32" compressor="vtkZLibDataCompressor">
  <UnstructuredGrid>
    <Piece NumberOfPoints="11" NumberOfCells="12">
      <PointData>
        <DataArray type="Float64" Name="Disp" NumberOfComponents="3" format="ascii" RangeMin="0.6283161204399573" RangeMax="2.5663932093097106">
          2.5085296714985414 -0.5120213931171015 0 1.9966379285430893 -0.42966057603083485 0
          1.386850339393865 -0.32857812725853475 0 2.2757463954397856 -0.3144420751195856 0
          1.7054796323312746 -0.22396346262640326 0 2.5586483583040827 -0.1992302269707565 0
          2.0395402888500973 -0.11700486694657482 0 1.0055261113675782 -0.11736793679096047 0
          0.624150969935846 0.07222682280747043 0 0.6164501692101261 -0.19686108986917325 0
          1.4012883514657404 -0.02216022558835031 0
          <InformationKey name="L2_NORM_RANGE" location="vtkDataArray" length="2">
            <Value index="0">
              0.62831612044
            </Value>
            <Value index="1">
              2.5663932093
            </Value>
          </InformationKey>
        </DataArray>
        <DataArray type="Float64" Name="Sld_traction" NumberOfComponents="3" format="ascii" RangeMin="0" RangeMax="79.85896707248448">
          2.5546846695595415 2.044064790154811 0 8.333462418293443 6.749917941980308 0
          24.042031648180767 17.756364370450704 0 0 0 0
          0 0 0 0.08979149374412171 -0.8029006861110637 0
          4.7344350521955185 -10.993888200065552 0 0 0 0
          55.83133509109849 -57.099182514547735 0 70.36761060546948 24.9570131221797 0
          20.82326187208119 -32.75479000090102 0
          <InformationKey name="L2_NORM_RANGE" location="vtkDataArray" length="2">
            <Value index="0">
              0
            </Value>
            <Value index="1">
              79.858967072
            </Value>
          </InformationKey>
        </DataArray>
        <DataArray type="Float64" Name="Fld_traction" NumberOfComponents="3" format="ascii" RangeMin="0" RangeMax="4.470925591398397">
          2.021061185658267 0.3607173960618746 0 2.9082604165907484 -0.9086338836269185 0
          2.9269784972422146 -0.8823184652082855 0 0 0 0
          0 0 0 0.7438466248619322 0.639935588611222 0
          2.6457375802513927 -0.5858962251836463 0 0 0 0
          0 0 0 2.8935942851927483 -0.7586092083277843 0
          4.314567721294591 -1.1720413909857883 0
          <InformationKey name="L2_NORM_RANGE" location="vtkDataArray" length="2">
            <Value index="0">
              0
            </Value>
            <Value index="1">
              4.4709255914
            </Value>
          </InformationKey>
        </DataArray>
        <DataArray type="Float64" Name="Velocity" NumberOfComponents="3" format="ascii" RangeMin="0.006053747274411467" RangeMax="0.042483650471955695">
          -0.03470364193505682 0.007251957388269892 0 -0.004210285594514751 -0.004349867960647291 0
          0.012498975178100391 -0.014819589847698007 0 -0.02137151482846722 -0.0073556566505917215 0
          0.003998453093696286 -0.014465134330078622 0 -0.040541810107933784 -0.01269733005775385 0
          -0.00811838997852199 -0.019217978131297803 0 0.009654035061255617 -0.01372322938859527 0
          0.005745774493736033 -0.00877118846681027 0 0.006876327640775004 -0.012675987587349322 0
          0.011309962451192979 -0.01699368043266688 0
          <InformationKey name="L2_NORM_RANGE" location="vtkDataArray" length="2">
            <Value index="0">
              0.0060537472744
            </Value>
            <Value index="1">
              0.042483650472
            </Value>
          </InformationKey>
        </DataArray>
      </PointData>
      <CellData>
        <DataArray type="UInt8" Name="vtkGhostType" format="ascii" RangeMin="0" RangeMax="0">
          0 0 0 0 0 0
          0 0 0 0 0 0
        </DataArray>
        <DataArray type="Float64" Name="Gauss Stress" NumberOfComponents="6" format="ascii" RangeMin="2.915767426903616" RangeMax="130.38928884651412">
          1.3759583781397864 2.4947146572736716 0 0.6203523258624638 0 0
          1.9848608871700124 4.6929842851745285 0 4.5252457789762675 0 0
          3.98518372695609 -2.676629091284775 0 0.9367227403967588 0 0
          4.6381400201203276 -0.40859936326548013 0 4.849847565543741 0 0
          -3.030055615895008 8.764700558145712 0 -6.772531588881888 0 0
          38.16776727681634 -56.78005022666629 0 110.9982616226927 0 0
          -1.2298305141357675 20.36540046007433 0 25.074498787267093 0 0
          13.593376881813857 -29.62309814761116 0 1.8474435447032405 0 0
          16.283016760097503 -16.265895606994746 0 33.808371938431335 0 0
          -16.47071096489249 32.44783771834364 0 -48.227287563496446 0 0
          33.992899158718785 -80.88455322050025 0 -0.6937993237232482 0 0
          -12.456418991513253 53.10481963622882 0 62.438054552000565 0 0
          <InformationKey name="L2_NORM_RANGE" location="vtkDataArray" length="2">
            <Value index="0">
              2.9157674269
            </Value>
            <Value index="1">
              130.38928885
            </Value>
          </InformationKey>
        </DataArray>
        <DataArray type="Float64" Name="Gauss Strain" NumberOfComponents="6" format="ascii" RangeMin="0.0002446664316825347" RangeMax="0.023265471621257423">
          0.000082313636577791 0.00019416391036419783 0 0.00012404234735640695 0 0
          0.00010279191694467779 0.00037348865429259737 0 0.0009046628148251621 0 0
          0.0003796079901162152 -0.00028654435929498234 0 0.00018733641166068007 0 0
          0.0004028302056031663 -0.00010171663122149344 0 0.0009697252274736212 0 0
          -0.0003860776455936188 0.0007929749498000737 0 -0.0013540205205482667 0 0
          0.0038402782409788774 -0.0056695748456422335 0 0.022234890462088173 0 0
          -0.00040753952252159387 0.0017491617262788695 0 0.005008346788429971 0 0
          0.0015829268775255918 -0.002743913097181916 0 0.0003699326506752138 0 0
          0.0016040319147522793 -0.0016510831590608173 0 0.0067621393843643185 0 0
          -0.001922732080091416 0.0029639870514984725 0 -0.009635331183976475 0 0
          0.0040330152747077835 -0.007494306576841468 0 -0.00013923790855918777 0 0
          -0.0019016763681097837 0.004636195457962733 0 0.01245284580567914 0 0
          <InformationKey name="L2_NORM_RANGE" location="vtkDataArray" length="2">
            <Value index="0">
              0.00024466643168
            </Value>
            <Value index="1">
              0.023265471621
            </Value>
          </InformationKey>
        </DataArray>
        <DataArray type="Float64" Name="Btraction" NumberOfComponents="3" format="ascii" RangeMin="0" RangeMax="2.3929571327606953">
          0.9216359368400662 0.33355099489103207 0 1.1298614017044413 0.018013121142525207 0
          1.6431072007496716 -0.1826388291883479 0 0 0 0
          0 0 0 0 0 0
          2.3201017671819946 -0.5859792053898114 0 1.9450796379443207 -0.5969841162784012 0
          0 0 0 0 0 0
          1.9401909274783207 -0.5469758911786898 0 0 0 0
          <InformationKey name="L2_NORM_RANGE" location="vtkDataArray" length="2">
            <Value index="0">
              0
            </Value>
            <Value index="1">
              2.3929571328
            </Value>
          </InformationKey>
        </DataArray>
      </CellData>
      <Points>
        <DataArray type="Float32" Name="Points" NumberOfComponents="3" format="ascii" RangeMin="10.632507764558053" RangeMax="14.866068747318506">
          11 10 0 11 8.362662315368652 0
          11 6.387491226196289 0 10.5 9.17588996887207 0
          10.5 7.3431549072265625 0 10 10 0
          10 8.340899467468262 0 10.5 5 0
          10 3.61250901222229 0 11 3.7184319496154785 0
          10 6.2815680503845215 0
          <InformationKey name="L2_NORM_RANGE" location="vtkDataArray" length="2">
            <Value index="0">
              10.632507765
            </Value>
            <Value index="1">
              14.866068747
            </Value>
          </InformationKey>
        </DataArray>
      </Points>
      <Cells>
        <DataArray type="Int64" Name="connectivity" format="ascii" RangeMin="0" RangeMax="10">
          0 5 3 3 5 6
          0 3 1 3 6 1
          1 6 4 8 9 7
          4 6 10 1 4 2
          2 4 10 2 10 7
          7 9 2 8 7 10
        </DataArray>
        <DataArray type="Int64" Name="offsets" format="ascii" RangeMin="3" RangeMax="36">
          3 6 9 12 15 18
          21 24 27 30 33 36
        </DataArray>
        <DataArray type="UInt8" Name="types" format="ascii" RangeMin="5" RangeMax="5">
          5 5 5 5 5 5
          5 5 5 5 5 5
        </DataArray>
      </Cells>
    </Piece>
  </UnstructuredGrid>
</VTKFile>
