<?xml version="1.0"?>
<VTKFile type="UnstructuredGrid" version="0.1" byte_order="LittleEndian" header_type="UInt32" compressor="vtkZLibDataCompressor">
  <UnstructuredGrid>
    <Piece NumberOfPoints="11" NumberOfCells="12">
      <PointData>
        <DataArray type="Float64" Name="Disp" NumberOfComponents="3" format="ascii" RangeMin="0.6185839258948157" RangeMax="2.5185205130171484">
          2.462910606775186 -0.494690200621026 0 1.9585779738089872 -0.4142778386084086 0
          1.3604007588689766 -0.3160360530435655 0 2.233117618671443 -0.3004748685626318 0
          1.6724096283007224 -0.21288316635639257 0 2.5116179587696954 -0.18633519172101756 0
          1.9999348254708296 -0.1067599336114694 0 0.9872813420743122 -0.11093980267623539 0
          0.6142724335377194 0.07290713799821588 0 0.6074356200165411 -0.1902267824084685 0
          1.3735546300933705 -0.01629392634746209 0
          <InformationKey name="L2_NORM_RANGE" location="vtkDataArray" length="2">
            <Value index="0">
              0.61858392589
            </Value>
            <Value index="1">
              2.518520513
            </Value>
          </InformationKey>
        </DataArray>
        <DataArray type="Float64" Name="Sld_traction" NumberOfComponents="3" format="ascii" RangeMin="0" RangeMax="77.53350421945979">
          2.7833833369759984 2.510426748908976 0 9.284879751782851 7.016803166552089 0
          23.797137168103088 15.931458570989587 0 0 0 0
          0 0 0 0.41187784236683306 -2.0519901793244197 0
          6.783970227545906 -12.15592689878542 0 0 0 0
          54.71660065227804 -54.93212074559033 0 67.65819748854551 23.7594976133786 0
          22.405663377316632 -31.55787071691888 0
          <InformationKey name="L2_NORM_RANGE" location="vtkDataArray" length="2">
            <Value index="0">
              0
            </Value>
            <Value index="1">
              77.533504219
            </Value>
          </InformationKey>
        </DataArray>
        <DataArray type="Float64" Name="Fld_traction" NumberOfComponents="3" format="ascii" RangeMin="0" RangeMax="4.7431938274041086">
          2.161511726676458 0.3680019641528083 0 3.161803967775202 -0.9687200190865245 0
          3.2309065154992385 -0.9473575972134443 0 0 0 0
          0 0 0 0.8460255610472736 0.6214049116188414 0
          2.893329113248543 -0.6368817209104191 0 0 0 0
          0 0 0 3.2503556629543127 -0.8278100172379208 0
          4.585381459858104 -1.2133278831024983 0
          <InformationKey name="L2_NORM_RANGE" location="vtkDataArray" length="2">
            <Value index="0">
              0
            </Value>
            <Value index="1">
              4.7431938274
            </Value>
          </InformationKey>
        </DataArray>
        <DataArray type="Float64" Name="Velocity" NumberOfComponents="3" format="ascii" RangeMin="0.01290446365819855" RangeMax="0.019084092406047245">
          -0.01285094277997767 -0.009689097406121006 0 -0.0084555247171485 -0.012880023458479384 0
          -0.006245203395187637 -0.015296441838075357 0 -0.011480942879267708 -0.012505872494494377 0
          -0.007565788849160926 -0.014631417882158826 0 -0.014490915963333961 -0.012418370968293027 0
          -0.009471204600985494 -0.014923848826688457 0 -0.008293497616554624 -0.012430221967799998 0
          -0.009479857792136559 -0.008755425663360683 0 -0.010690799212903446 -0.010358531060744705 0
          -0.005661458812313169 -0.014459198508966091 0
          <InformationKey name="L2_NORM_RANGE" location="vtkDataArray" length="2">
            <Value index="0">
              0.012904463658
            </Value>
            <Value index="1">
              0.019084092406
            </Value>
          </InformationKey>
        </DataArray>
      </PointData>
      <CellData>
        <DataArray type="UInt8" Name="vtkGhostType" format="ascii" RangeMin="0" RangeMax="0">
          0 0 0 0 0 0
          0 0 0 0 0 0
        </DataArray>
        <DataArray type="Float64" Name="Gauss Stress" NumberOfComponents="6" format="ascii" RangeMin="1.8737898628461418" RangeMax="124.47394229264067">
          0.6465075461766834 1.7226569835030872 0 0.35435767245766037 0 0
          1.6595293404003977 5.10294838851634 0 6.2158783474966 0 0
          4.689964235929609 -6.599291892913943 0 0.9908728228753048 0 0
          5.771067664031969 -3.108510650434169 0 6.8686216646007345 0 0
          -4.906063996908953 9.148877222219074 0 -9.64980711148457 0 0
          34.652784488513404 -51.58153088421758 0 107.85310616159737 0 0
          -4.1059186902338505 22.673322009461764 0 26.560182128808947 0 0
          14.260795997549106 -33.72911189342689 0 0.13813783183945244 0 0
          16.093474669613993 -18.16251667928215 0 36.46993272770117 0 0
          -16.462009489079318 33.194620606307915 0 -49.08759679507528 0 0
          32.23740384021792 -76.6098312849658 0 -1.7613538092394436 0 0
          -14.186726354205568 54.909177187130545 0 59.565191755303246 0 0
          <InformationKey name="L2_NORM_RANGE" location="vtkDataArray" length="2">
            <Value index="0">
              1.8737898628
            </Value>
            <Value index="1">
              124.47394229
            </Value>
          </InformationKey>
        </DataArray>
        <DataArray type="Float64" Name="Gauss Strain" NumberOfComponents="6" format="ascii" RangeMin="0.00015852170504128619" RangeMax="0.02247956855348138">
          0.000030811153744869646 0.0001384132521645709 0 0.00007086307500619383 0 0
          0.00006873633487236575 0.00041292926226665905 0 0.0012426378171557248 0 0
          0.0004958127139715882 -0.0006333237125513147 0 0.0001982115713543855 0 0
          0.0005378690301974798 -0.0003499650433650414 0 0.0013735328720075198 0 0
          -0.0005534701422361676 0.0008516709366710449 0 -0.0019294766394931042 0 0
          0.0034820248247488528 -0.005153924926849629 0 0.021601934249480988 0 0
          -0.0006891476669208529 0.0019853912272805863 0 0.005305321456809059 0 0
          0.0016978994616078655 -0.0031080429440267787 0 0.000027667586500389858 0 0
          0.001611446657157178 -0.0018149090956789404 0 0.007295597580837747 0 0
          -0.0019342199794959436 0.0030259689617285752 0 -0.00980669668104754 0 0
          0.0038251051509350376 -0.007095108500787426 0 -0.0003534193567902528 0 0
          -0.0020712770489347268 0.004819017777531742 0 0.01187977033525625 0 0
          <InformationKey name="L2_NORM_RANGE" location="vtkDataArray" length="2">
            <Value index="0">
              0.00015852170504
            </Value>
            <Value index="1">
              0.022479568553
            </Value>
          </InformationKey>
        </DataArray>
        <DataArray type="Float64" Name="Btraction" NumberOfComponents="3" format="ascii" RangeMin="0" RangeMax="2.5680599554933976">
          1.0025124292412437 0.3298022919238831 0 1.2464515580986053 -0.005158936430525868 0
          1.7744385648172196 -0.20023935164457207 0 0 0 0
          0 0 0 0 0 0
          2.4929035243688817 -0.6167365346709723 0 2.130903494424813 -0.6386925387666561 0
          0 0 0 0 0 0
          2.1604207261511834 -0.591722538150455 0 0 0 0
          <InformationKey name="L2_NORM_RANGE" location="vtkDataArray" length="2">
            <Value index="0">
              0
            </Value>
            <Value index="1">
              2.5680599555
            </Value>
          </InformationKey>
        </DataArray>
      </CellData>
      <Points>
        <DataArray type="Float32" Name="Points" NumberOfComponents="3" format="ascii" RangeMin="10.632507764558053" RangeMax="14.866068747318506">
          11 10 0 11 8.362662315368652 0
          11 6.387491226196289 0 10.5 9.17588996887207 0
          10.5 7.3431549072265625 0 10 10 0
          10 8.340899467468262 0 10.5 5 0
          10 3.61250901222229 0 11 3.7184319496154785 0
          10 6.2815680503845215 0
          <InformationKey name="L2_NORM_RANGE" location="vtkDataArray" length="2">
            <Value index="0">
              10.632507765
            </Value>
            <Value index="1">
              14.866068747
            </Value>
          </InformationKey>
        </DataArray>
      </Points>
      <Cells>
        <DataArray type="Int64" Name="connectivity" format="ascii" RangeMin="0" RangeMax="10">
          0 5 3 3 5 6
          0 3 1 3 6 1
          1 6 4 8 9 7
          4 6 10 1 4 2
          2 4 10 2 10 7
          7 9 2 8 7 10
        </DataArray>
        <DataArray type="Int64" Name="offsets" format="ascii" RangeMin="3" RangeMax="36">
          3 6 9 12 15 18
          21 24 27 30 33 36
        </DataArray>
        <DataArray type="UInt8" Name="types" format="ascii" RangeMin="5" RangeMax="5">
          5 5 5 5 5 5
          5 5 5 5 5 5
        </DataArray>
      </Cells>
    </Piece>
  </UnstructuredGrid>
</VTKFile>
