<?xml version="1.0"?>
<VTKFile type="UnstructuredGrid" version="0.1" byte_order="LittleEndian" header_type="UInt32" compressor="vtkZLibDataCompressor">
  <UnstructuredGrid>
    <Piece NumberOfPoints="44" NumberOfCells="60">
      <PointData>
      </PointData>
      <CellData>
        <DataArray type="UInt8" Name="vtkGhostType" format="ascii" RangeMin="0" RangeMax="0">
          0 0 0 0 0 0
          0 0 0 0 0 0
          0 0 0 0 0 0
          0 0 0 0 0 0
          0 0 0 0 0 0
          0 0 0 0 0 0
          0 0 0 0 0 0
          0 0 0 0 0 0
          0 0 0 0 0 0
          0 0 0 0 0 0
        </DataArray>
        <DataArray type="Float64" Name="CORES" format="ascii" RangeMin="-3.7873414634146334" RangeMax="1.8879132545873585">
          0.23995472640417626 -0.23190284206118772 0.09341486878329688 -0.5068410851963226 -0.015935333537392432 -0.46022162003156886
          -0.044929616981287224 -0.3336086917272588 -0.04953134424942719 -0.23650492085498112 -0.0329570953749877 -0.17819599604472208
          -0.014137364195479674 -0.12237341673450101 -0.012388564890130169 -0.09057494566569828 0.14046730592437146 -0.11043106911191906
          -0.3753311737865411 -0.5221628995510155 0.37197968614144783 -1.7232327501167868 0.3016704615063205 -0.7262582341778648
          0.2150595447485311 -0.0785188101841739 0.1551538916119323 0.20999113907055889 0.12818771888328423 0.2796929602192182
          0.1347498851480572 0.26677494939521385 0.16929854947103207 0.2486959064331908 0.19490185036682992 0.25123618918271196
          0.22263482901964168 0.24071575395698164 -0.14289377626719532 0.00772205130183326 0.1862760279231092 -3.7873414634146334
          0.0009464267968059548 1.8879132545873585 -0.05929635672176149 1.2746731337267876 -0.08707938243806662 0.8124949941125426
          -0.10298644720768502 0.5244861771681819 -0.0995986660853369 0.3658668496933173 -0.07996338826622723 0.2764440697219213
          -0.07148413813181637 0.2314357403423688 -0.11151801680071122 0.21746449893087638 -0.5427622583415191 0.20166356365180632
        </DataArray>
        <DataArray type="Float64" Name="MORES" NumberOfComponents="3" format="ascii" RangeMin="0.12776229340573841" RangeMax="10.464034286801086">
          0.6793436479940425 -0.07329565778995906 0 -0.6982060042001104 0.10954902394056565 0
          0.3066404445388856 -0.15622072946513432 0 -1.4099616483488306 0.4727167750224289 0
          0.013677822798365213 -0.18548818547602852 0 -1.2699877777575428 0.5447414749666708 0
          -0.0895686001124083 -0.1729366443959263 0 -0.9222306118040469 0.42892512040071473 0
          -0.12590916685341652 -0.15259851307910988 0 -0.6547915409194254 0.2780844293133448 0
          -0.07570869074358244 -0.1378990899669371 0 -0.48698815173132404 0.17307636951717825 0
          -0.00951545500487827 -0.13052375805822874 0 -0.30566037182729633 0.11121596158423686 0
          0.017942340549605695 -0.12649615026512057 0 -0.19943443735640712 0.08175580043908787 0
          0.42251828844803296 -0.15130580963242513 0 -0.30108932834182905 0.056130601552717596 0
          -1.0607351619248213 0.34733957598972925 0 -1.4762620481230644 0.41297452595513107 0
          1.034819404019701 -0.39979547664187687 0 -4.505863108955291 1.5645180951958744 0
          0.9123073795235311 -0.2892579624939555 0 -1.8391087672226085 0.7183892454419989 0
          0.6621530471482393 -0.22958411068203682 0 -0.14954076672773076 0.08314475437343477 0
          0.4512320928273592 -0.2301437877133151 0 0.6250881092893863 -0.26370469045317013 0
          0.343454317274696 -0.2559030353522436 0 0.8281186769649886 -0.3960307865935972 0
          0.36165442591278607 -0.28182956561783806 0 0.7892580252230301 -0.42384852027512954 0
          0.48198362772112335 -0.3076798253673838 0 0.7323401430555814 -0.4234753008312672 0
          0.565930928136406 -0.3350596943597378 0 0.7422638014009837 -0.42910878502602107 0
          0.5965665163974642 -0.3959811335184463 0 0.6983252477373121 -0.40650380458118984 0
          -0.44187035205201697 -0.06260222016010275 0 0.13097698970278676 -0.1433797954720486 0
          0.6121503708840376 0.0981810740781156 0 -8.725482841436236 5.775981539024389 0
          -0.07656169041895954 0.2121971558126275 0 4.782797497486277 -1.7815489817396712 0
          -0.325662707631684 0.2996944807329236 0 3.1685880695824435 -1.1892534671856976 0
          -0.44375323977557557 0.3097249731486461 0 1.961588737499381 -0.7144920200004294 0
          -0.5071937936656488 0.285968107392591 0 1.1918926187013268 -0.38668424045010413 0
          -0.4986993644659807 0.26792919854172875 0 0.7398265805773435 -0.19289164341816345 0
          -0.4297185037120361 0.2580920921217215 0 0.4595289811687848 -0.09257945058123265 0
          -0.3979808648567589 0.25712710236154696 0 0.3114228191506499 -0.04776012288403947 0
          -0.529303258729192 0.31187383156746956 0 0.2658197328787123 -0.03326873238274064 0
          -1.6214797477580107 0.7909520754008774 0 0.21899903058266196 -0.013062906603245134 0
          <InformationKey name="L2_NORM_RANGE" location="vtkDataArray" length="2">
            <Value index="0">
              0.12776229341
            </Value>
            <Value index="1">
              10.464034287
            </Value>
          </InformationKey>
        </DataArray>
        <DataArray type="Float64" Name="ENRES" format="ascii" RangeMin="-15.755660713786629" RangeMax="8.819241777925122">
          1.2716820403533282 -1.2265636723637852 0.6479634786047062 -2.618235525548373 0.07606889649583526 -2.4522759217606276
          -0.1845722708046268 -1.8362567010761297 -0.29694340769530936 -1.333071340730593 -0.20683864564378895 -1.0033672423466
          -0.07401849838706287 -0.6337146380994501 -0.005680553849167325 -0.41512532278842834 0.739852719369813 -0.6289852735516732
          -2.0357873234004047 -2.900764620286177 1.9443033776224494 -8.395879283060403 1.7350119073535328 -3.5032730435357626
          1.285793114008573 -0.29199782103861754 0.8969261946167083 1.268485963904848 0.7000917861205798 1.7277700011897186
          0.7543810253699466 1.6792259308119752 1.0108234230252804 1.5776676679658572 1.1849117644022513 1.6053971596863408
          1.2189792523333167 1.5072490437387622 -0.7712763751772442 0.44441575089819196 1.0186251299343463 -15.755660713786629
          -0.2719954549437984 8.819241777925122 -0.8298205487518271 5.795863998378612 -1.1129793934341896 3.501669858884309
          -1.2598393570124444 2.0068233951654375 -1.2497557076658246 1.0985543821514647 -1.109715013999487 0.5174527559098855
          -1.0429829090471796 0.20723771011074688 -1.318028578416754 0.11180873470133457 -3.402180786314944 0.015323484376633445
        </DataArray>
      </CellData>
      <Points>
        <DataArray type="Float32" Name="Points" NumberOfComponents="3" format="ascii" RangeMin="0" RangeMax="4.2201894765504395">
          4.099999904632568 1 0 4.099999904632568 0.6666666865348816 0
          3.690000057220459 1 0 3.690000057220459 0.6666666865348816 0
          4.099999904632568 0.3333333134651184 0 3.690000057220459 0.3333333134651184 0
          3.2799999713897705 1 0 3.2799999713897705 0.6666666865348816 0
          4.099999904632568 0 0 3.2799999713897705 0.3333333134651184 0
          3.690000057220459 0 0 2.869999885559082 1 0
          2.869999885559082 0.6666666865348816 0 3.2799999713897705 0 0
          2.869999885559082 0.3333333134651184 0 2.869999885559082 0 0
          2.4600000381469727 1 0 2.4600000381469727 0.6666666865348816 0
          2.4600000381469727 0.3333333134651184 0 2.4600000381469727 0 0
          2.049999952316284 1 0 2.049999952316284 0.6666666865348816 0
          2.049999952316284 0.3333333134651184 0 2.049999952316284 0 0
          1.6399999856948853 1 0 1.6399999856948853 0.6666666865348816 0
          1.6399999856948853 0.3333333134651184 0 1.6399999856948853 0 0
          1.2300000190734863 1 0 1.2300000190734863 0.6666666865348816 0
          1.2300000190734863 0.3333333134651184 0 1.2300000190734863 0 0
          0.8199999928474426 1 0 0.8199999928474426 0.6666666865348816 0
          0.8199999928474426 0.3333333134651184 0 0.8199999928474426 0 0
          0.4099999964237213 1 0 0.4099999964237213 0.6666666865348816 0
          0.4099999964237213 0.3333333134651184 0 0.4099999964237213 0 0
          0 1 0 0 0.6666666865348816 0
          0 0.3333333134651184 0 0 0 0
          <InformationKey name="L2_NORM_RANGE" location="vtkDataArray" length="2">
            <Value index="0">
              0
            </Value>
            <Value index="1">
              4.2201894766
            </Value>
          </InformationKey>
        </DataArray>
      </Points>
      <Cells>
        <DataArray type="Int64" Name="connectivity" format="ascii" RangeMin="0" RangeMax="43">
          39 38 43 38 42 43
          35 34 39 34 38 39
          31 30 35 30 34 35
          27 26 31 26 30 31
          23 22 27 22 26 27
          19 18 23 18 22 23
          15 14 19 14 18 19
          13 9 15 9 14 15
          10 5 13 5 9 13
          8 4 10 4 5 10
          38 37 42 37 41 42
          34 33 38 33 37 38
          30 29 34 29 33 34
          26 25 30 25 29 30
          22 21 26 21 25 26
          18 17 22 17 21 22
          14 12 18 12 17 18
          9 7 14 7 12 14
          5 3 9 3 7 9
          4 1 5 1 3 5
          37 36 41 36 40 41
          33 32 37 32 36 37
          29 28 33 28 32 33
          25 24 29 24 28 29
          21 20 25 20 24 25
          17 16 21 16 20 21
          12 11 17 11 16 17
          7 6 12 6 11 12
          3 2 7 2 6 7
          1 0 3 0 2 3
        </DataArray>
        <DataArray type="Int64" Name="offsets" format="ascii" RangeMin="3" RangeMax="180">
          3 6 9 12 15 18
          21 24 27 30 33 36
          39 42 45 48 51 54
          57 60 63 66 69 72
          75 78 81 84 87 90
          93 96 99 102 105 108
          111 114 117 120 123 126
          129 132 135 138 141 144
          147 150 153 156 159 162
          165 168 171 174 177 180
        </DataArray>
        <DataArray type="UInt8" Name="types" format="ascii" RangeMin="5" RangeMax="5">
          5 5 5 5 5 5
          5 5 5 5 5 5
          5 5 5 5 5 5
          5 5 5 5 5 5
          5 5 5 5 5 5
          5 5 5 5 5 5
          5 5 5 5 5 5
          5 5 5 5 5 5
          5 5 5 5 5 5
          5 5 5 5 5 5
        </DataArray>
      </Cells>
    </Piece>
  </UnstructuredGrid>
</VTKFile>
