<?xml version="1.0"?>
<VTKFile type="UnstructuredGrid" version="0.1" byte_order="LittleEndian" header_type="UInt32" compressor="vtkZLibDataCompressor">
  <UnstructuredGrid>
    <Piece NumberOfPoints="44" NumberOfCells="60">
      <PointData>
      </PointData>
      <CellData>
        <DataArray type="UInt8" Name="vtkGhostType" format="ascii" RangeMin="0" RangeMax="0">
          0 0 0 0 0 0
          0 0 0 0 0 0
          0 0 0 0 0 0
          0 0 0 0 0 0
          0 0 0 0 0 0
          0 0 0 0 0 0
          0 0 0 0 0 0
          0 0 0 0 0 0
          0 0 0 0 0 0
          0 0 0 0 0 0
        </DataArray>
        <DataArray type="Float64" Name="CORES" format="ascii" RangeMin="-3.7873414634146334" RangeMax="1.893292911951312">
          0.30552331643752073 -0.23961236784817458 0.16305814029881752 -0.545054659011645 0.00027255626173153247 -0.4828005433041078
          -0.05125140255311511 -0.29449708579915557 -0.03375190137133274 -0.12920410009730598 -0.007802002656945806 -0.023879987314714413
          0.020022902695212418 0.032384386660352704 0.05444989030325988 0.06447490070589407 0.24204510819847014 0.061723406620687066
          -0.5188000775071575 -0.40667276064753144 0.38354467021352046 -1.7343244768564992 0.3055482084417023 -0.747095048994489
          0.17582991947148985 -0.06010355478032689 0.05437762210015091 0.2858631502802685 -0.020922135661199118 0.37331965319939264
          -0.051945123489942846 0.3380678477307374 -0.050652991443580125 0.27442593868130444 -0.02502953648894829 0.21952627720781234
          0.005340674021109715 0.19378003461558652 -0.4492931261286042 0.03926466924544489 0.1686224731547651 -3.7873414634146334
          -0.054408797345571594 1.893292911951312 -0.12547708721323936 1.2837670394550929 -0.1423919619467201 0.8002418697567876
          -0.15678002206163208 0.4714972677865409 -0.16813811454369046 0.28042815972680224 -0.16865152192344143 0.17764063760971155
          -0.1639376034691678 0.11673130528499856 -0.17617156900400596 0.07649591969377717 -0.4871278061104998 0.046686895701340075
        </DataArray>
        <DataArray type="Float64" Name="MORES" NumberOfComponents="3" format="ascii" RangeMin="0.09761019144685738" RangeMax="10.464034286801086">
          0.8527224850681081 -0.08745058679239402 0 -0.7436838109408819 0.1091153829224433 0
          0.4780320273310677 -0.20979898914772727 0 -1.515926161569256 0.5062972382384707 0
          0.06048461710656669 -0.28467631641306373 0 -1.306944556928031 0.6133925577817706 0
          -0.09012611714152308 -0.302731658018943 0 -0.7805512409951101 0.4938121903555872 0
          -0.06791388461003288 -0.2903929223014897 0 -0.31981075944215925 0.28730410512373616 0
          -0.010341337643372 -0.27545878058528744 0 -0.023432290722135207 0.10654463298953663 0
          0.07602755138030054 -0.2662911128889274 0 0.1369175042290368 -0.009226133859022198 0
          0.22362132700144907 -0.2581843868900655 0 0.23393697907681177 -0.08086960121682316 0
          0.7033761891240806 -0.2916656126853615 0 0.18888795582169937 -0.12860988431076903 0
          -1.494134964766597 0.42144640843735437 0 -1.1157968349087852 0.199785289723508 0
          1.0346870328135624 -0.41913565085517296 0 -4.515458761429787 1.572169884283972 0
          0.8918112206231595 -0.29721845607993114 0 -1.859566634388008 0.7116100781525032 0
          0.5335748114316268 -0.20102156305601432 0 -0.08900413014673206 0.040075108123568834 0
          0.1532222553188364 -0.15949762583695237 0 0.8044763752158204 -0.34396426035964567 0
          -0.10537214360476366 -0.15680994480608118 0 1.0498553253147818 -0.488414927076778 0
          -0.22146681239242166 -0.1723823574199858 0 0.9636880833400614 -0.5022453045735016 0
          -0.22033922582919618 -0.19203595201120044 0 0.7769042288274601 -0.4717369628735729 0
          -0.1342803329844635 -0.2217281236883144 0 0.6020756848244554 -0.4365813478983794 0
          -0.09190740620735816 -0.2792156685267796 0 0.509465405022756 -0.3971798467307839 0
          -1.361867433703173 0.09217438822207108 0 0.18786090931741473 -0.20957601383313973 0
          0.5831513197082129 0.11412948198756384 0 -8.725482841436236 5.775981539024389 0
          -0.1824549407628239 0.2545587373572912 0 4.79352172694175 -1.7770705074790571 0
          -0.44411309827350764 0.38132337577468445 0 3.1914479762798384 -1.1705850437892547 0
          -0.5256676879525923 0.4217765735056095 0 1.9415278901889794 -0.6761215422042899 0
          -0.5849662280184279 0.4043326870149797 0 1.0857599770250574 -0.3216581294964903 0
          -0.629192744834753 0.3751560586388511 0 0.5749049107178122 -0.09320798244666358 0
          -0.635875845891832 0.35973200499928726 0 0.2808999535567354 0.03888255621020292 0
          -0.6193668930334049 0.36251105864944777 0 0.08711868832280531 0.11015417238669944 0
          -0.6561324520905674 0.4056888505531139 0 -0.04788709088747112 0.1509875826150783 0
          -1.3731960389182973 0.7691744067317783 0 -0.1416135738538145 0.18261161859504366 0
          <InformationKey name="L2_NORM_RANGE" location="vtkDataArray" length="2">
            <Value index="0">
              0.097610191447
            </Value>
            <Value index="1">
              10.464034287
            </Value>
          </InformationKey>
        </DataArray>
        <DataArray type="Float64" Name="ENRES" format="ascii" RangeMin="-15.755660713786629" RangeMax="8.834568780846766">
          1.58119409631044 -1.322283065173274 0.97023998414574 -2.821841837782026 0.20041344184364074 -2.5389195809748735
          -0.15484047055432842 -1.59251705001788 -0.1817399649375936 -0.7085373264628437 -0.10182057585099949 -0.12285415862531268
          0.06586864714573465 0.19906040756066334 0.3889924152906907 0.40179625379729766 1.2683976456421955 0.3026182463955173
          -2.9039698901467554 -2.204448880452725 1.925963021154287 -8.40351444265151 1.6780444585913774 -3.5176403020186324
          1.0423316533845775 -0.16465213819999738 0.3430706729252856 1.6082709059612148 -0.15287690190997932 2.159213835645751
          -0.3799554605529969 2.0372013139186675 -0.3693136530009351 1.6789261148374108 -0.18316332276450265 1.3261158353407088
          -0.12141258740175265 1.1265710188075944 -2.5643199503396756 0.5604169118611311 0.9769144902684851 -15.755660713786629
          -0.4370155865333488 8.834568780846766 -1.0158765126544562 5.826495807153574 -1.238204246143936 3.4545135942867926
          -1.3830105722213062 1.8130139629606163 -1.4818188840030668 0.8141040213445716 -1.502509735661496 0.21959222357526603
          -1.473331448742648 -0.18619476416882977 -1.5582049570010017 -0.4723353338395059 -2.8887959296100965 -0.667604652619662
        </DataArray>
      </CellData>
      <Points>
        <DataArray type="Float32" Name="Points" NumberOfComponents="3" format="ascii" RangeMin="0" RangeMax="4.2201894765504395">
          4.099999904632568 1 0 4.099999904632568 0.6666666865348816 0
          3.690000057220459 1 0 3.690000057220459 0.6666666865348816 0
          4.099999904632568 0.3333333134651184 0 3.690000057220459 0.3333333134651184 0
          3.2799999713897705 1 0 3.2799999713897705 0.6666666865348816 0
          4.099999904632568 0 0 3.2799999713897705 0.3333333134651184 0
          3.690000057220459 0 0 2.869999885559082 1 0
          2.869999885559082 0.6666666865348816 0 3.2799999713897705 0 0
          2.869999885559082 0.3333333134651184 0 2.869999885559082 0 0
          2.4600000381469727 1 0 2.4600000381469727 0.6666666865348816 0
          2.4600000381469727 0.3333333134651184 0 2.4600000381469727 0 0
          2.049999952316284 1 0 2.049999952316284 0.6666666865348816 0
          2.049999952316284 0.3333333134651184 0 2.049999952316284 0 0
          1.6399999856948853 1 0 1.6399999856948853 0.6666666865348816 0
          1.6399999856948853 0.3333333134651184 0 1.6399999856948853 0 0
          1.2300000190734863 1 0 1.2300000190734863 0.6666666865348816 0
          1.2300000190734863 0.3333333134651184 0 1.2300000190734863 0 0
          0.8199999928474426 1 0 0.8199999928474426 0.6666666865348816 0
          0.8199999928474426 0.3333333134651184 0 0.8199999928474426 0 0
          0.4099999964237213 1 0 0.4099999964237213 0.6666666865348816 0
          0.4099999964237213 0.3333333134651184 0 0.4099999964237213 0 0
          0 1 0 0 0.6666666865348816 0
          0 0.3333333134651184 0 0 0 0
          <InformationKey name="L2_NORM_RANGE" location="vtkDataArray" length="2">
            <Value index="0">
              0
            </Value>
            <Value index="1">
              4.2201894766
            </Value>
          </InformationKey>
        </DataArray>
      </Points>
      <Cells>
        <DataArray type="Int64" Name="connectivity" format="ascii" RangeMin="0" RangeMax="43">
          39 38 43 38 42 43
          35 34 39 34 38 39
          31 30 35 30 34 35
          27 26 31 26 30 31
          23 22 27 22 26 27
          19 18 23 18 22 23
          15 14 19 14 18 19
          13 9 15 9 14 15
          10 5 13 5 9 13
          8 4 10 4 5 10
          38 37 42 37 41 42
          34 33 38 33 37 38
          30 29 34 29 33 34
          26 25 30 25 29 30
          22 21 26 21 25 26
          18 17 22 17 21 22
          14 12 18 12 17 18
          9 7 14 7 12 14
          5 3 9 3 7 9
          4 1 5 1 3 5
          37 36 41 36 40 41
          33 32 37 32 36 37
          29 28 33 28 32 33
          25 24 29 24 28 29
          21 20 25 20 24 25
          17 16 21 16 20 21
          12 11 17 11 16 17
          7 6 12 6 11 12
          3 2 7 2 6 7
          1 0 3 0 2 3
        </DataArray>
        <DataArray type="Int64" Name="offsets" format="ascii" RangeMin="3" RangeMax="180">
          3 6 9 12 15 18
          21 24 27 30 33 36
          39 42 45 48 51 54
          57 60 63 66 69 72
          75 78 81 84 87 90
          93 96 99 102 105 108
          111 114 117 120 123 126
          129 132 135 138 141 144
          147 150 153 156 159 162
          165 168 171 174 177 180
        </DataArray>
        <DataArray type="UInt8" Name="types" format="ascii" RangeMin="5" RangeMax="5">
          5 5 5 5 5 5
          5 5 5 5 5 5
          5 5 5 5 5 5
          5 5 5 5 5 5
          5 5 5 5 5 5
          5 5 5 5 5 5
          5 5 5 5 5 5
          5 5 5 5 5 5
          5 5 5 5 5 5
          5 5 5 5 5 5
        </DataArray>
      </Cells>
    </Piece>
  </UnstructuredGrid>
</VTKFile>
