<?xml version="1.0"?>
<VTKFile type="UnstructuredGrid" version="0.1" byte_order="LittleEndian" header_type="UInt32" compressor="vtkZLibDataCompressor">
  <UnstructuredGrid>
    <Piece NumberOfPoints="94" NumberOfCells="150">
      <PointData>
        <DataArray type="Float64" Name="Velocity" NumberOfComponents="3" format="ascii" RangeMin="1.4634978777009735e-23" RangeMax="2.705749872919269">
          2.512676195737346 0 0 2.418620499261217 0.2014495668928193 0
          2.5206250159068655 0.2836062397414424 0 2.152627427804013 0 0
          1.9393336224027158 0.2564961710983378 0 2.2513376148475865 0.28109143556291705 0
          2.4965883135026505 0.4282024826733866 0 2.051780529507343 0.2105912023689191 0
          1.1774225132946865 0.16902977482405232 0 1.7159384511955151 0 0
          2.2360070321893457 0.3971144642726266 0 2.078903536202408 0.36649864226781736 0
          2.4417415949301446 0.6552837862750774 0 0.4152665697000102 0.13998593132555914 0
          1.3763333644669653 0.3038162940703826 0 2.4909323892940485 0.7208971470940408 0
          0.09815630658397834 0.15466379058357516 0 2.1951243801191653 0.6735931388315517 0
          0.5411003918175701 0.21546200608458854 0 1.8008816701088732 0.6994725291963738 0
          0.01039451023285082 -0.01824540378039024 0 2.430286388512878 1.044217809861136 0
          1.664881482545545 0.25218014523028337 0 0.004613390151619807 -0.015542188566787445 0
          1.0263728557201401 0.48557472014798064 0 2.0950238120909255 0.8220758073301117 0
          2.161121793834151 1.2953014014435127 0 0.011728030503622216 -0.014125579973003859 0
          0.005679866329216575 -0.011953699424675626 0 2.060101048005454 1.038270867833886 0
          1.795884760166952 1.5003320904694173 0 1.3617899477879578 0 0
          0.001122731162675623 -0.00968724567625646 0 -0.001542466798357246 -0.007164184481608409 0
          1.9033458818800273 1.3248380698600744 0 1.1536058563790337 1.6486781123759546 0
          1.6527732488382219 0.5713593615109874 0 -0.002602474131720902 -0.004648627446945425 0
          1.7407809631395759 0.9544758305793858 0 1.6015389340434183 1.494952845304968 0
          -0.0019675107509692417 -0.002574164891058546 0 1.1363360195929717 1.5800185597497998 0
          0.3385963404486017 0.8014142979486274 0 -1.4634978777009735e-23 0 0
          1.5489140712632494 1.0737580466288703 0 1.261123004094692 1.4151213467363595 0
          0.9665087787605968 1.389012627329863 0 1.443793689425041 0.6793068911537102 0
          1.2543829899107442 0.1716601234909719 0 0.4589712822362265 0.7472810323185167 0
          1.3407059549963034 1.0060695797582966 0 1.1010837470499169 1.1493590681417312 0
          1.3662934397863873 0.7738816866544582 0 0.8060933882437206 1.022556610622928 0
          0.19501776981608246 0 0 1.1610580953540621 0.9269451400055867 0
          1.2920807244619392 0.5962881221004024 0 0.35170182428807145 0.2746669414930304 0
          0.9616160663805672 0.9098752504010552 0 0.6654244508949659 0.550455805793364 0
          1.2282988894793714 0.3516595673459707 0 1.2134293003261327 0.56129519007766 0
          1.1101629220332936 0 0 1.0508619439480924 0.6494542869141458 0
          0.5025181926092603 0 0 0.8926312536465538 0.6045667165630197 0
          0.8313484131327028 0.4749635630252514 0 1.0420428226637195 0.12183753468529654 0
          0.7762618615550758 0.2790730099924348 0 0.7383598749590002 0 0
          1.0500601508055012 0.22375974047700933 0 1.0470201378460304 0.344227941641084 0
          0.9814315771960533 0.3195138127599639 0 0.952007215474821 0.2512157215439127 0
          0.9107283241121308 0.14973891910691345 0 0.9200018851569142 0 0
          0.9999999999818032 0 0 0.9999999999818032 0 0
          0.9999999999818033 0 0 1.0016966448843918 0 0
          0.9999999999818032 0 0 0.9999999999818032 0 0
          0.9999999999818032 0 0 0.9999999999818032 0 0
          2.5740303262421054 0.26201549376708244 0 2.705749872919269 0 0
          0.2585325721938472 0.25714267453063205 0 0.47865120348066764 0.16564928323697126 0
          1.1693759040725655 0.08025810599648453 0 1.248849607203109 0.1995678469088624 0
          1.9608355706412706 0.2411936271913918 0 2.0388185006522543 0.2778978715930377 0
          0.15939613844241363 0.26972773700501596 0 0.0004007206245990498 -0.011994086980702066 0
          <InformationKey name="L2_NORM_RANGE" location="vtkDataArray" length="2">
            <Value index="0">
              1.4634978777e-23
            </Value>
            <Value index="1">
              2.7057498729
            </Value>
          </InformationKey>
        </DataArray>
        <DataArray type="Float64" Name="Pressure" format="ascii" RangeMin="-3.185386883899369" RangeMax="6.332203440826212">
          -1.9597259220450562 -1.7754359275889464 -2.1911443993317126 -0.7000813989289973 -2.4858214618629777 -0.7874520188399977
          -1.5341437466869658 -2.3798512978228445 -2.7944023854389752 0.9383336940479255 -2.249370744198157 0.16346422930725935
          -1.4560379869366638 -2.9777867191535097 -2.861135571419357 -1.8311552755095926 -2.9798895373363767 -0.03808473954413499
          -3.007663816315094 -2.6282127957418595 -2.778362713810407 -0.7697661620950114 1.4353254769926218 -3.079494936641599
          -2.4586056711990487 0.5817114324058695 -1.1651688681841035 -0.21891184168161454 2.974495895365901 0.6901404731841148
          -0.8280131412883843 2.210433981941179 4.5549073342146675 5.634895240247 0.7594364368440291 1.2037981098746202
          1.800482346439816 6.172997087733428 1.722880542779505 1.6109966238541562 6.293855583879711 3.1386997901202105
          5.094548737844579 6.332203440826212 2.264038813229072 2.902398750063874 4.273972035181085 2.473847948759975
          2.620569040841229 5.764607126479575 2.960505778783351 3.8808756674363334 2.9229799240524454 5.200195141158101
          6.299148533988742 3.689124583666588 2.95622827347223 6.217035427548133 4.636429520093221 5.995355039251401
          3.020334969393675 3.448421739498868 3.064200523851605 4.210607341533727 6.198067076269416 4.985177530014222
          5.594348592972694 3.225864902081078 5.891916739885579 5.929061027774081 3.614215094202319 4.0907268058962885
          4.771079993885129 5.270756481156101 5.6042839384106005 5.752856761574498 3.231917562939637 3.45106351320339
          3.9881469830668625 5.649594677540162 4.6577087091944085 5.181510708169704 5.49202910061103 5.5955570459972055
          -2.99549309640041 -2.539083207165077 -2.97480928628312 -2.8612912299763407 -2.6537109374861094 -2.7007632453925683
          -2.558144906294065 -2.889999767966207 -3.047355768652719 -3.185386883899369
        </DataArray>
        <DataArray type="Float64" Name="BTraction" NumberOfComponents="3" format="ascii" RangeMin="0" RangeMax="6.318569681189156">
          -0.0008307066088928818 1.8167255790260723 0 0 0 0
          0 0 0 -0.006488118940733505 0.5926349511198233 0
          0 0 0 0 0 0
          0 0 0 0 0 0
          0 0 0 -0.008377403408785357 -0.9278741016455325 0
          0 0 0 0 0 0
          0 0 0 0 0 0
          0 0 0 0 0 0
          0 0 0 0 0 0
          0 0 0 0 0 0
          -2.004639191478071 -0.3200828697307515 0 0 0 0
          0 0 0 -2.923597652922318 0.9127515140440003 0
          0 0 0 0 0 0
          0 0 0 -0.9024952639809597 -0.516031056143875 0
          -2.846284615551958 0.6364832764237948 0 0 0 0
          0 0 0 -0.00232679410976743 -2.183298259464249 0
          -4.420994137615157 1.2059222195788675 0 -5.393588748088474 1.4674524316100934 0
          0 0 0 0 0 0
          0 0 0 -5.9726512935188305 1.4449520766195516 0
          0 0 0 0 0 0
          -6.2417560024491685 0.9822447871750756 0 0 0 0
          0 0 0 -3.1626719855008436 3.4762292986828593 0
          0 0 0 0 0 0
          0 0 0 0 0 0
          0 0 0 0 0 0
          0 0 0 0 0 0
          0 0 0 0 0 0
          -0.004107743943428123 6.254504645342912 0 0 0 0
          0 0 0 0 0 0
          0 0 0 0 0 0
          0 0 0 0 0 0
          0.002640721781179752 -2.976228094825619 0 0 0 0
          -0.007038073869344031 6.109323921528613 0 0 0 0
          0 0 0 0 0 0
          0 0 0 -0.007631830052553545 5.897726519556788 0
          0 0 0 0 0 0
          0 0 0 0 0 0
          0 0 0 -0.003162520451048373 5.727580271090475 0
          1.6501323113798456 -1.6003275438419309 0 3.4905055103531826 -0.009506962952629957 0
          3.9932811861580735 -0.01554783889222693 0 0.00044428489959089535 5.6452086214582975 0
          4.614120481799534 -0.018340190811127536 0 5.140680702492059 -0.016936795639718647 0
          5.457206093922416 -0.007928174531361392 0 3.2075132688108754 2.375535679680039 0
          0 0 0 0.0002928358558500982 2.4509770386231895 0
          0 0 0 0 0 0
          0 0 0 0 0 0
          0 0 0 0 0 0
          0 0 0 -3.048764338223634 0.9215372614253627 0
          <InformationKey name="L2_NORM_RANGE" location="vtkDataArray" length="2">
            <Value index="0">
              0
            </Value>
            <Value index="1">
              6.3185696812
            </Value>
          </InformationKey>
        </DataArray>
        <DataArray type="Float64" Name="ALEdispl" NumberOfComponents="3" format="ascii" RangeMin="0" RangeMax="2.713481360617217">
          0 0 0 0.8491449282644872 -0.10437342122163003 0
          1.6736557389482476 -0.3670149953584504 0 0 0 0
          2.145642484841319 -0.5893163826979546 0 1.0641675335286194 -0.16828815814432785 0
          1.9804937728899075 -0.4466821875114834 0 2.313493569949848 -0.617293926691558 0
          2.473879486445149 -0.6795301207870276 0 0 0 0
          2.4274057652434657 -0.5595427028636837 0 1.3733419078766236 -0.2067342650488558 0
          2.3073414987398695 -0.4288637492574235 0 2.5164106910349298 -0.703721014053249 0
          2.6037353700243058 -0.5898576881418375 0 2.5306622696562173 -0.45065525218038993 0
          2.4205752788680885 -0.6748968838572332 0 2.1609872348923256 -0.2957548005452379 0
          2.617945564413625 -0.5727157370077108 0 2.6818198622671265 -0.41330777970731847 0
          2.4970794588485057 -0.5089119072146534 0 2.5737734500589875 -0.2887361328729621 0
          1.1636807547954306 -0.10212093011251583 0 2.028682992262659 -0.43343847324120327 0
          2.6698720838241194 -0.338986983471116 0 2.3208883776638274 -0.2084007971764127 0
          2.668716428608976 -0.2297946173073042 0 2.5469110530649295 -0.19702144567910324 0
          2.0809974196410095 -0.12349420529866187 0 2.492732906023316 -0.14218245126351756 0
          2.623618887062079 -0.11693992418677779 0 0 0 0
          1.5833304472282181 -0.049462608344504944 0 1.0399480766776845 0.02133178049197391 0
          2.5649716259675075 -0.05725586336106059 0 2.4271206760822106 0.00010763477493939947 0
          2.036724125100886 -0.09499988604466159 0 0.5173701085317579 0.07273571225449361 0
          2.373505619955679 -0.028306440121318072 0 2.4820363833725723 0.05277592680618038 0
          0.15370528706215153 0.06978463178290983 0 2.080248293611659 0.13398842841261815 0
          1.3540206024425512 0.1549117916844988 0 0 0 0
          2.3716941232443225 0.06566697303883973 0 2.2727498959830954 0.1825004143149011 0
          1.653191363418792 0.2317229167596769 0 2.136594726331942 0.009720101567061075 0
          0.9850285994602619 -0.14000094736703966 0 0.9279503162391368 0.26292888185691315 0
          2.2521941854636194 0.1704452777608779 0 1.9348965625846335 0.3047815740882211 0
          2.1365867761567667 0.11488553315219083 0 1.2959927495260897 0.34476620846004946 0
          0 0 0 2.031057929353139 0.29341277884610073 0
          1.9211666546274693 0.08508238868254744 0 0.2492418134762 0.18896851024668745 0
          1.5671825263547674 0.39017835197047446 0 0.5941154169148709 0.3050135987632516 0
          1.5345474565913861 -0.05496804262774076 0 1.8759617453942221 0.17900722891452375 0
          0 0 0 1.7054438875458782 0.37873102616015814 0
          0 0 0 1.23607578075428 0.45758228602466283 0
          0.8030941944837275 0.4491628102763412 0 0.7923266279760672 -0.17523996409455792 0
          0.3815755393389237 0.2938364385537531 0 0 0 0
          0.9750011278019026 0.02062604576244859 0 1.1300144201747921 0.23465578866460463 0
          0.9057336233064551 0.3669996805234725 0 0.6671794033207977 0.4026790217800525 0
          0.37447330403725476 0.31679877073670526 0 0 0 0
          0 0 0 0 0 0
          0 0 0 0 0 0
          0 0 0 0 0 0
          0 0 0 0 0 0
          1.3803549841966267 -0.1513891614352149 0 0 0 0
          2.3392972272415036 -0.7972134967462942 0 2.39344818849698 -0.7777941650062743 0
          2.3290031576936676 -0.7122500273021922 0 2.163902822946706 -0.6850547443858905 0
          1.9326834761932072 -0.5077602300496461 0 1.7379021562003707 -0.4035558657897024 0
          2.116889716384612 -0.7327945554765631 0 1.5216171646021788 -0.3493533057116768 0
          <InformationKey name="L2_NORM_RANGE" location="vtkDataArray" length="2">
            <Value index="0">
              0
            </Value>
            <Value index="1">
              2.7134813606
            </Value>
          </InformationKey>
        </DataArray>
        <DataArray type="Float64" Name="ALEveloc" NumberOfComponents="3" format="ascii" RangeMin="0" RangeMax="0.012767607086782099">
          0 0 0 0.0010865627258964672 -0.0038137246529913738 0
          0.0021625843446106963 -0.007719989766413526 0 0 0 0
          0.0028637743856689823 -0.010407408947814778 0 0.002319081677441437 -0.003763376368278115 0
          0.004127271611087391 -0.008210473055855538 0 0.003719184381286933 -0.010806190417218864 0
          0.003582575359550866 -0.011855858427927135 0 0 0 0
          0.0046931073352993735 -0.010348215888815071 0 0.003814525405152036 -0.003562208434549907 0
          0.005298130872101403 -0.00827540954668693 0 0.0029560393595922108 -0.012399514454256577 0
          0.004581801656715179 -0.01130018251841125 0 0.005678962448812719 -0.009148323384280954 0
          0.0015411006925161175 -0.012284261914474515 0 0.0056886678462566564 -0.005769815692748592 0
          0.003707864802602767 -0.011448193828456743 0 0.0053666073440181705 -0.009678158432366857 0
          0.001808854332587817 -0.010668200667948713 0 0.006088659359124282 -0.007793710609524607 0
          0.0034530304219200225 -0.0016447524943380143 0 -0.0018534778918075645 -0.008928015780704901 0
          0.004115368158490007 -0.009179174409475466 0 0.006070122546272927 -0.006071324883337226 0
          0.005464022986122252 -0.007866227675224768 0 0.0026320814359479527 -0.008023803359153148 0
          -0.0012464749431728706 -0.006738318929647075 0 0.00623189502150856 -0.006438994326643022 0
          0.004133976385903182 -0.0069977148484241525 0 0 0 0
          -0.003796549441730246 -0.005561660842136426 0 -0.004527809740543232 -0.004334701990110518 0
          0.00533958711217597 -0.006071870813121452 0 0.002318379778789126 -0.005987020811149072 0
          0.006023586348596233 -0.004782371470147706 0 -0.0038578356994382057 -0.003110628452185349 0
          0.0059784893178909115 -0.005225748999812811 0 0.004047404457954151 -0.005220052722097468 0
          -0.0021005908452715605 -0.0019559972093003697 0 0.00036336187592089786 -0.004962788143981212 0
          -0.0031894152937272935 -0.004519048300715839 0 0 0 0
          0.005130493750123755 -0.004582698704205579 0 0.0024989306789304777 -0.004271989422070965 0
          -0.0012721459110340838 -0.004295312776763427 0 0.00575387914875547 -0.004236917611983821 0
          0.003233157530015962 -0.0026361138071104018 0 -0.0030998658510452692 -0.0036138821214829475 0
          0.004082435125913442 -0.0037448022110254664 0 0.0008641282798418359 -0.0035072158961982902 0
          0.004959626551924501 -0.003637999798142999 0 -0.001944698887538454 -0.0034993151372423315 0
          0 0 0 0.002576553369474155 -0.0030202633504605725 0
          0.0050217593375299074 -0.0032850699124656324 0 -0.001261662382701867 -0.0014492236276741899 0
          -0.00017064660397503317 -0.002925507319731291 0 -0.001879368554560168 -0.0024295561523777764 0
          0.005307830335369523 -0.0032365122136756297 0 0.004386102381575441 -0.002566811696043614 0
          0 0 0 0.0018735027579266372 -0.0020604889369678636 0
          0 0 0 -0.0005539730818338029 -0.002104165905358335 0
          -0.001418933711033965 -0.0020056297117524435 0 0.0033193791110561754 -0.002308764104300587 0
          -0.0009524546479486862 -0.00126661434588915 0 0 0 0
          0.0031045343009994397 -0.0013184194304454305 0 0.002254538163390274 -0.0009155886537302038 0
          0.0007289428653796115 -0.0006354484107019553 0 -0.0004240670447139827 -0.0007129065479114516 0
          -0.0006754202152121636 -0.0006505544802477559 0 0 0 0
          0 0 0 0 0 0
          0 0 0 0 0 0
          0 0 0 0 0 0
          0 0 0 0 0 0
          0.0010311893180361409 -0.0054966509852870105 0 0 0 0
          0.0014619981679828697 -0.012683625352369221 0 0.002327181956314206 -0.012434969802557871 0
          0.002780471113775107 -0.011682818477631862 0 0.0021633331439376846 -0.010896363786600194 0
          0.0020542010336943584 -0.009164412517686849 0 0.001486299093886867 -0.0079742475420439 0
          -0.0002516821653983925 -0.011838238964821945 0 -0.004097814184091941 -0.006656976371858803 0
          <InformationKey name="L2_NORM_RANGE" location="vtkDataArray" length="2">
            <Value index="0">
              0
            </Value>
            <Value index="1">
              0.012767607087
            </Value>
          </InformationKey>
        </DataArray>
      </PointData>
      <CellData>
        <DataArray type="UInt8" Name="vtkGhostType" format="ascii" RangeMin="0" RangeMax="1">
          0 0 0 0 0 0
          0 0 1 0 0 1
          0 1 0 0 1 1
          1 0 0 0 0 0
          1 1 0 1 1 0
          1 1 0 1 0 0
          0 0 0 0 0 0
          0 0 0 0 0 0
          0 0 0 0 0 0
          0 0 0 0 0 0
          0 0 0 0 0 0
          0 0 0 0 0 0
          0 0 0 0 0 0
          0 0 0 0 0 0
          0 1 0 0 0 0
          0 0 0 1 0 0
          0 0 0 0 0 1
          0 0 0 0 0 0
          0 0 0 0 0 0
          0 0 0 0 0 0
          0 0 0 0 0 0
          0 0 0 0 0 0
          0 1 0 0 0 0
          0 0 0 0 0 0
          0 0 0 0 0 0
        </DataArray>
        <DataArray type="Float64" Name="PStrain" NumberOfComponents="6" format="ascii" RangeMin="0.007008949513066662" RangeMax="2.3961181983504933">
          0.010466302430888532 0.010466302430888532 0 0.010466302430888532 0 0
          0.012696089665440084 0.012696089665440084 0 0.012696089665440084 0 0
          0.01558428637372784 0.01558428637372784 0 0.01558428637372784 0 0
          0.01245328402422534 0.01245328402422534 0 0.01245328402422534 0 0
          0.00907049523836554 0.00907049523836554 0 0.00907049523836554 0 0
          0.008657102301453837 0.008657102301453837 0 0.008657102301453837 0 0
          0.007880383041139727 0.007880383041139727 0 0.007880383041139727 0 0
          0.01117155680734174 0.01117155680734174 0 0.01117155680734174 0 0
          0.009525906659789389 0.009525906659789389 0 0.009525906659789389 0 0
          0.007828207027394115 0.007828207027394115 0 0.007828207027394115 0 0
          0.009760570867706899 0.009760570867706899 0 0.009760570867706899 0 0
          0.006061207341639044 0.006061207341639044 0 0.006061207341639044 0 0
          0.0074795312971171046 0.0074795312971171046 0 0.0074795312971171046 0 0
          0.004975792034112822 0.004975792034112822 0 0.004975792034112822 0 0
          0.08027990980950826 0.08027990980950826 0 0.08027990980950826 0 0
          0.05416651456310667 0.05416651456310667 0 0.05416651456310667 0 0
          0.09470157214073363 0.09470157214073363 0 0.09470157214073363 0 0
          0.09669379543500287 0.09669379543500287 0 0.09669379543500287 0 0
          0.04789360430864407 0.04789360430864407 0 0.04789360430864407 0 0
          0.055578679751267734 0.055578679751267734 0 0.055578679751267734 0 0
          0.04281626943449872 0.04281626943449872 0 0.04281626943449872 0 0
          0.02473698334938903 0.02473698334938903 0 0.02473698334938903 0 0
          0.021025074883737404 0.021025074883737404 0 0.021025074883737404 0 0
          0.024724996398788494 0.024724996398788494 0 0.024724996398788494 0 0
          0.043950451379612704 0.043950451379612704 0 0.043950451379612704 0 0
          0.025823026160985144 0.025823026160985144 0 0.025823026160985144 0 0
          0.022282732776739707 0.022282732776739707 0 0.022282732776739707 0 0
          0.029721784802343575 0.029721784802343575 0 0.029721784802343575 0 0
          0.017977106772907765 0.017977106772907765 0 0.017977106772907765 0 0
          0.025691446451786424 0.025691446451786424 0 0.025691446451786424 0 0
          0.01617947273641366 0.01617947273641366 0 0.01617947273641366 0 0
          0.013839273308966473 0.013839273308966473 0 0.013839273308966473 0 0
          0.015530742226530708 0.015530742226530708 0 0.015530742226530708 0 0
          0.007287501376415952 0.007287501376415952 0 0.007287501376415952 0 0
          0.09999999999999999 0.09999999999999999 0 0.09999999999999999 0 0
          0.005115460841862292 0.005115460841862292 0 0.005115460841862292 0 0
          0.01220603134601957 0.01220603134601957 0 0.01220603134601957 0 0
          0.007835317625651053 0.007835317625651053 0 0.007835317625651053 0 0
          0.005805496625158576 0.005805496625158576 0 0.005805496625158576 0 0
          0.014860247664104879 0.014860247664104879 0 0.014860247664104879 0 0
          0.029401631631373305 0.029401631631373305 0 0.029401631631373305 0 0
          0.03511602945615164 0.03511602945615164 0 0.03511602945615164 0 0
          0.014114392780264516 0.014114392780264516 0 0.014114392780264516 0 0
          0.04587576800502481 0.04587576800502481 0 0.04587576800502481 0 0
          0.020967284577088803 0.020967284577088803 0 0.020967284577088803 0 0
          0.059670789469548416 0.059670789469548416 0 0.059670789469548416 0 0
          0.01316180510704485 0.01316180510704485 0 0.01316180510704485 0 0
          0.008548746437173868 0.008548746437173868 0 0.008548746437173868 0 0
          0.053115394956867484 0.053115394956867484 0 0.053115394956867484 0 0
          0.03386068162049605 0.03386068162049605 0 0.03386068162049605 0 0
          0.03960672530639364 0.03960672530639364 0 0.03960672530639364 0 0
          0.02610457415416186 0.02610457415416186 0 0.02610457415416186 0 0
          0.010820651748917304 0.010820651748917304 0 0.010820651748917304 0 0
          0.01668746941586084 0.01668746941586084 0 0.01668746941586084 0 0
          0.03176755963727651 0.03176755963727651 0 0.03176755963727651 0 0
          0.03180225986922615 0.03180225986922615 0 0.03180225986922615 0 0
          0.029309201136044676 0.029309201136044676 0 0.029309201136044676 0 0
          0.014123725754319586 0.014123725754319586 0 0.014123725754319586 0 0
          0.018162755398564337 0.018162755398564337 0 0.018162755398564337 0 0
          0.01298295516001136 0.01298295516001136 0 0.01298295516001136 0 0
          0.004553624704962579 0.004553624704962579 0 0.004553624704962579 0 0
          0.008040218210787422 0.008040218210787422 0 0.008040218210787422 0 0
          0.014654315927038055 0.014654315927038055 0 0.014654315927038055 0 0
          0.011894320564193506 0.011894320564193506 0 0.011894320564193506 0 0
          0.009895790863830144 0.009895790863830144 0 0.009895790863830144 0 0
          0.006716417699083965 0.006716417699083965 0 0.006716417699083965 0 0
          0.004046618888105534 0.004046618888105534 0 0.004046618888105534 0 0
          1.3833994868278183 1.3833994868278183 0 1.3833994868278183 0 0
          0.8898296778433465 0.8898296778433465 0 0.8898296778433465 0 0
          0.9070951710948711 0.9070951710948711 0 0.9070951710948711 0 0
          0.9438082693352341 0.9438082693352341 0 0.9438082693352341 0 0
          0.22252895090958996 0.22252895090958996 0 0.22252895090958996 0 0
          0.250210602752088 0.250210602752088 0 0.250210602752088 0 0
          1.2045626186982568 1.2045626186982568 0 1.2045626186982568 0 0
          0.6057879487601906 0.6057879487601906 0 0.6057879487601906 0 0
          0.15854809393402253 0.15854809393402253 0 0.15854809393402253 0 0
          0.2451607455144813 0.2451607455144813 0 0.2451607455144813 0 0
          0.06418055147379992 0.06418055147379992 0 0.06418055147379992 0 0
          0.3186526869804988 0.3186526869804988 0 0.3186526869804988 0 0
          0.21900999811839722 0.21900999811839722 0 0.21900999811839722 0 0
          0.20905131890799744 0.20905131890799744 0 0.20905131890799744 0 0
          0.5899156743860192 0.5899156743860192 0 0.5899156743860192 0 0
          0.16551944938372107 0.16551944938372107 0 0.16551944938372107 0 0
          0.2600995786220135 0.2600995786220135 0 0.2600995786220135 0 0
          0.12992650034371245 0.12992650034371245 0 0.12992650034371245 0 0
          0.2859818636542064 0.2859818636542064 0 0.2859818636542064 0 0
          0.08794769326143957 0.08794769326143957 0 0.08794769326143957 0 0
          0.05798245566258743 0.05798245566258743 0 0.05798245566258743 0 0
          0.3840661338702785 0.3840661338702785 0 0.3840661338702785 0 0
          0.07480900465384088 0.07480900465384088 0 0.07480900465384088 0 0
          0.02307435482573784 0.02307435482573784 0 0.02307435482573784 0 0
          0.08580172203936891 0.08580172203936891 0 0.08580172203936891 0 0
          0.029303510552862393 0.029303510552862393 0 0.029303510552862393 0 0
          0.26431791822147804 0.26431791822147804 0 0.26431791822147804 0 0
          0.15354274499325765 0.15354274499325765 0 0.15354274499325765 0 0
          0.08603912700968958 0.08603912700968958 0 0.08603912700968958 0 0
          0.3267157116659269 0.3267157116659269 0 0.3267157116659269 0 0
          0.0982272285262168 0.0982272285262168 0 0.0982272285262168 0 0
          0.055456660736522 0.055456660736522 0 0.055456660736522 0 0
          0.15439710301438736 0.15439710301438736 0 0.15439710301438736 0 0
          0.07881941872528017 0.07881941872528017 0 0.07881941872528017 0 0
          0.1546725485501865 0.1546725485501865 0 0.1546725485501865 0 0
          0.035591752957833366 0.035591752957833366 0 0.035591752957833366 0 0
          0.18864008032463095 0.18864008032463095 0 0.18864008032463095 0 0
          0.17647208416195956 0.17647208416195956 0 0.17647208416195956 0 0
          0.19890956564744786 0.19890956564744786 0 0.19890956564744786 0 0
          0.03425533431315649 0.03425533431315649 0 0.03425533431315649 0 0
          0.03111872625397224 0.03111872625397224 0 0.03111872625397224 0 0
          0.15605618200402224 0.15605618200402224 0 0.15605618200402224 0 0
          0.09387642371545486 0.09387642371545486 0 0.09387642371545486 0 0
          0.08871548263648486 0.08871548263648486 0 0.08871548263648486 0 0
          0.028962599856539914 0.028962599856539914 0 0.028962599856539914 0 0
          0.1850722186206764 0.1850722186206764 0 0.1850722186206764 0 0
          0.04731559723822296 0.04731559723822296 0 0.04731559723822296 0 0
          0.0749543143978471 0.0749543143978471 0 0.0749543143978471 0 0
          0.05199329131866781 0.05199329131866781 0 0.05199329131866781 0 0
          0.0761180665329023 0.0761180665329023 0 0.0761180665329023 0 0
          0.06010603104358435 0.06010603104358435 0 0.06010603104358435 0 0
          0.039400392415443616 0.039400392415443616 0 0.039400392415443616 0 0
          0.08973054859458189 0.08973054859458189 0 0.08973054859458189 0 0
          0.10631210668181981 0.10631210668181981 0 0.10631210668181981 0 0
          0.09871897383407625 0.09871897383407625 0 0.09871897383407625 0 0
          0.015644576011552926 0.015644576011552926 0 0.015644576011552926 0 0
          0.11071757348160374 0.11071757348160374 0 0.11071757348160374 0 0
          0.09659562144916531 0.09659562144916531 0 0.09659562144916531 0 0
          0.02985397196123627 0.02985397196123627 0 0.02985397196123627 0 0
          0.052683485212557474 0.052683485212557474 0 0.052683485212557474 0 0
          0.07056494382691833 0.07056494382691833 0 0.07056494382691833 0 0
          0.07252355351418474 0.07252355351418474 0 0.07252355351418474 0 0
          0.27670573720361336 0.27670573720361336 0 0.27670573720361336 0 0
          0.033169261886971654 0.033169261886971654 0 0.033169261886971654 0 0
          0.017689493707798196 0.017689493707798196 0 0.017689493707798196 0 0
          0.05995008776867376 0.05995008776867376 0 0.05995008776867376 0 0
          0.2683024354355382 0.2683024354355382 0 0.2683024354355382 0 0
          0.07712792457091157 0.07712792457091157 0 0.07712792457091157 0 0
          0.12413909079655419 0.12413909079655419 0 0.12413909079655419 0 0
          0.12060044837838582 0.12060044837838582 0 0.12060044837838582 0 0
          0.05809072573797569 0.05809072573797569 0 0.05809072573797569 0 0
          0.018792785760698344 0.018792785760698344 0 0.018792785760698344 0 0
          0.015722295391199275 0.015722295391199275 0 0.015722295391199275 0 0
          0.03975681268879755 0.03975681268879755 0 0.03975681268879755 0 0
          0.012206031346019575 0.012206031346019575 0 0.012206031346019575 0 0
          0.08503241738319545 0.08503241738319545 0 0.08503241738319545 0 0
          0.015873186389961717 0.015873186389961717 0 0.015873186389961717 0 0
          0.04438482349388598 0.04438482349388598 0 0.04438482349388598 0 0
          0.027419412809664714 0.027419412809664714 0 0.027419412809664714 0 0
          0.02730735034266934 0.02730735034266934 0 0.02730735034266934 0 0
          0.03904809623149473 0.03904809623149473 0 0.03904809623149473 0 0
          0.04181391255551038 0.04181391255551038 0 0.04181391255551038 0 0