<?xml version="1.0"?>
<VTKFile type="UnstructuredGrid" version="0.1" byte_order="LittleEndian" header_type="UInt32" compressor="vtkZLibDataCompressor">
  <UnstructuredGrid>
    <Piece NumberOfPoints="94" NumberOfCells="150">
      <PointData>
        <DataArray type="Float64" Name="Velocity" NumberOfComponents="3" format="ascii" RangeMin="1.6673955057290878e-23" RangeMax="2.6775454175515194">
          2.4845468423123918 0 0 2.4902378822695166 0.1515608895248262 0
          2.668808685742803 0.21612418179119447 0 2.207082078505592 0 0
          2.077040290693156 0.2828278467800131 0 2.3392297920244536 0.26131195302867233 0
          2.5865714023058373 0.46046288673340957 0 2.1288349310900427 0.3123065953601825 0
          1.1431056987312413 0.3151443968879529 0 1.800065617146117 0 0
          2.2742342572623864 0.48694059083251395 0 2.140709905995855 0.3735357479304244 0
          2.47582987944403 0.7069398045813308 0 0.3149910884778083 0.27018865172103507 0
          1.3191603537091916 0.4180337027518679 0 2.4920795143456487 0.7872169620905097 0
          0.05736599478085808 0.2219487326866169 0 2.2379175014897355 0.7041302283046408 0
          0.4593632033937706 0.305386487301279 0 1.7392960843564589 0.7696977870452298 0
          -0.017567490598724686 0.013795151441435161 0 2.4142265650623984 1.0955286881394746 0
          1.7151063376974003 0.27720695856982724 0 -0.008646127316869208 0.008995014140729132 0
          0.9586715267481775 0.5292619924865851 0 2.099747320407008 0.8641317629216521 0
          2.1118207802461213 1.3401379709027748 0 -0.019747121106457217 0.007188080501426449 0
          -0.010095811424671166 0.00415476238492653 0 2.0492445643396024 1.0785382457364736 0
          1.7409013139282477 1.5285971108740195 0 1.408976616109303 0 0
          -0.005442869857010315 0.002719703323563939 0 -0.005690896738796412 0.0018805544775395817 0
          1.8676359534934648 1.357822689095206 0 1.117142516877321 1.659107991479701 0
          1.6761041479898808 0.617396396742564 0 -0.007062899815264834 0.0009231969071137764 0
          1.7338389460859334 0.996433632530865 0 1.5640528558872162 1.517135334710394 0
          -0.004365404941062771 -0.0007214619589530571 0 1.1075757545115028 1.5836426846348564 0
          0.321471544670405 0.8011960835895882 0 -1.6673955057290878e-23 0 0
          1.5323947922312058 1.1113161807641818 0 1.2336930550637806 1.4299718624907816 0
          0.9447365865192218 1.3927569505355408 0 1.447770758822784 0.7268171248860775 0
          1.270761233677429 0.1955248476007598 0 0.4415155215734346 0.7426065898785261 0
          1.3250925891487495 1.0401836928312882 0 1.080057115373521 1.1657507905088829 0
          1.3609448735094722 0.8154530076833445 0 0.79229783832393 1.0284223985120062 0
          0.19468802218427086 0 0 1.1478130918648093 0.955231234375135 0
          1.2957879448761913 0.6374170427791666 0 0.34671261775237794 0.27000807945363614 0
          0.9485098629248582 0.9254072163527929 0 0.6517110421959773 0.5456227681012387 0
          1.2345086883105516 0.3843912349777806 0 1.2135974427159124 0.6002772877653022 0
          1.1183953543494731 0 0 1.0436077714176555 0.6796952802733528 0
          0.4946779954034215 0 0 0.8869680017139405 0.6237591022608995 0
          0.8278287049350127 0.48752481713814005 0 1.040933776148092 0.12963061063458817 0
          0.7690955823161496 0.28454844718295297 0 0.7340972978944834 0 0
          1.0510737945468027 0.2320369967296123 0 1.048293899323483 0.3559607005003677 0
          0.9797277528311276 0.3271939867321948 0 0.9518927650958486 0.25717701251784925 0
          0.9087853719957597 0.15398813085647703 0 0.9188694455764995 0 0
          1.0000000000372393 0 0 1.0000000000372393 0 0
          1.0000000000372393 0 0 1.00263759830929 0 0
          1.0000000000372393 0 0 1.0000000000372395 0 0
          1.0000000000372393 0 0 1.0000000000372393 0 0
          2.6533727271668472 0.12887621521058978 0 2.5917028380106806 0 0
          0.14532826394562312 0.30426131592213324 0 0.31104566458128374 0.264607976085881 0
          1.144823674173611 0.17810498609410508 0 1.2044394498656457 0.13621986522210194 0
          2.097438369188894 0.12513356092536487 0 2.1038926815450374 0.06770835338178047 0
          0.0966401863477251 0.29078751629607913 0 -0.00493871959015595 0.0039313335557202515 0
          <InformationKey name="L2_NORM_RANGE" location="vtkDataArray" length="2">
            <Value index="0">
              1.6673955057e-23
            </Value>
            <Value index="1">
              2.6775454176
            </Value>
          </InformationKey>
        </DataArray>
        <DataArray type="Float64" Name="Pressure" format="ascii" RangeMin="-3.299688041963473" RangeMax="5.789395143688099">
          -2.2932711411032334 -2.088641715564448 -2.6240183934503465 -1.0674936521183445 -3.1059426629014215 -1.1338480057453495
          -1.9771348232160844 -2.9571654913545684 -3.2516615531951376 0.612203260422463 -2.7254465765937597 -0.17474356429994276
          -1.879148398598132 -3.2707797278596407 -3.18443938031389 -2.227119419308612 -3.1163730147748 -0.3940875407875638
          -3.2159420243511843 -2.9319507797164244 -2.888197247818454 -1.1503047650896387 1.1225525350460712 -2.954504770608815
          -2.7365416129553344 0.2091968800694488 -1.5313486894594825 -0.6022019220005985 2.3698356206233355 0.29749153714479315
          -1.2169336915381592 1.899824116053064 3.8192604530466774 4.933254602979699 0.3438223582362206 0.7300332578988877
          1.4473227885336084 5.553840215202035 1.3211551121596252 1.1504302844453655 5.727280495840494 2.5948913644459033
          4.472618663611183 5.789395143688099 1.8261062208339807 2.394708221643884 3.697264164888272 2.073367121546794
          2.2875994048971524 5.199065268937546 2.492645703797834 3.349216872812848 2.4872405557183415 4.646613258300762
          5.786677330752416 3.195675534137068 2.5431349616680623 5.710599687328936 4.106502068931109 5.4827291288487405
          2.639855205122433 3.012262771084737 2.7135703814083834 3.725369856371571 5.703236128648311 4.48185401645175
          5.096550485428018 2.852568395325755 5.404518126840219 5.4458015224728475 3.201825518048607 3.6453492899897997
          4.3023632560852105 4.793560173170166 5.125580148192523 5.275788982632012 2.855810372828822 3.052011596067448
          3.5521838079382224 5.1743739082125115 4.201905410178588 4.715558868140692 5.021935434143987 5.122947521677811
          -3.0239400474675073 -2.8173668946963715 -3.217688470294748 -3.299688041963473 -3.2749798538760944 -3.2941186826791378
          -3.0489153834630405 -3.1037399665585848 -3.104431090167782 -2.882195452027019
        </DataArray>
        <DataArray type="Float64" Name="BTraction" NumberOfComponents="3" format="ascii" RangeMin="0" RangeMax="5.747715797603977">
          -0.006489274567660456 2.1558861042023367 0 0 0 0
          0 0 0 -0.01037476771525486 0.9527252374091141 0
          0 0 0 0 0 0
          0 0 0 0 0 0
          0 0 0 -0.008851476824500623 -0.5982776821999849 0
          0 0 0 0 0 0
          0 0 0 0 0 0
          0 0 0 0 0 0
          0 0 0 0 0 0
          0 0 0 0 0 0
          -2.0390069282740653 -0.40776240678093373 0 0 0 0
          0 0 0 -2.806884166723545 0.8576007135010232 0
          0 0 0 0 0 0
          0 0 0 -0.6736094635400731 -0.7173529334912824 0
          -2.28671562161079 0.4418096872116485 0 0 0 0
          0 0 0 -0.0009563123845831215 -1.8672121239797959 0
          -3.7472593140798325 0.9787805290199888 0 -4.730735428570094 1.2577351914442778 0
          0 0 0 0 0 0
          0 0 0 -5.36895011148446 1.2773232801114025 0
          0 0 0 0 0 0
          -5.680052573649648 0.8793404634169498 0 0 0 0
          0 0 0 -2.8880702612648386 3.178681090672697 0
          0 0 0 0 0 0
          0 0 0 0 0 0
          0 0 0 0 0 0
          0 0 0 0 0 0
          0 0 0 0 0 0
          -0.003776677982091818 5.74029898120032 0 0 0 0
          0 0 0 0 0 0
          0 0 0 0 0 0
          0 0 0 0 0 0
          0.0035555525781325744 -2.6300396630198852 0 0 0 0
          -0.006765183923673684 5.613647454855095 0 0 0 0
          0 0 0 0 0 0
          0 0 0 -0.007397254720896824 5.412358949198209 0
          0 0 0 0 0 0
          0 0 0 0 0 0
          0 0 0 -0.003001236034842819 5.248892856673928 0
          1.4587497771765647 -1.4170224789983128 0 3.089782956754151 -0.009988564188208716 0
          3.5605524149926286 -0.01616809907629488 0 0.0004883380234600135 5.169784538803562 0
          4.160382266903311 -0.01895664511409215 0 4.6760096849348685 -0.017397568231142645 0
          4.987346457202017 -0.008137696341800666 0 2.9352604416906214 2.1751696787833468 0
          0 0 0 -0.003957242181000249 2.746680249287773 0
          0 0 0 0 0 0
          0 0 0 0 0 0
          0 0 0 0 0 0
          0 0 0 -2.7688912205535074 0.8253324263889605 0
          <InformationKey name="L2_NORM_RANGE" location="vtkDataArray" length="2">
            <Value index="0">
              0
            </Value>
            <Value index="1">
              5.7477157976
            </Value>
          </InformationKey>
        </DataArray>
        <DataArray type="Float64" Name="ALEdispl" NumberOfComponents="3" format="ascii" RangeMin="0" RangeMax="2.673282973654616">
          0 0 0 0.8372879910310019 -0.1015802404786911 0
          1.6502887152500265 -0.35921315755839794 0 0 0 0
          2.1156443378353638 -0.5773512090238508 0 1.048793637285306 -0.1646168823970772 0
          1.9519217533547135 -0.43739929030176955 0 2.2807467729036297 -0.6045739663772558 0
          2.43905700968851 -0.6653267105372715 0 0 0 0
          2.392463853699739 -0.547672179956978 0 1.3529009130603133 -0.20266821862963022 0
          2.2735197157773306 -0.4197580052531074 0 2.4813817299993555 -0.688716263279373 0
          2.566398510598685 -0.5769032293230306 0 2.493493161647919 -0.4408041293282534 0
          2.3877018004368513 -0.6601381684683725 0 2.128712354087465 -0.28961400610052684 0
          2.5809195367281528 -0.5597111946450831 0 2.6426255381129886 -0.4036980586338074 0
          2.4631486184407305 -0.49721877377161067 0 2.5355535128169255 -0.28190094848054903 0
          1.1460263919871365 -0.10028593331061596 0 2.003735896182192 -0.4250971532191429 0
          2.63157036511523 -0.33080055813633463 0 2.286085769271723 -0.20352695413584795 0
          2.6295036949706856 -0.22390710480377105 0 2.5109832530706617 -0.19149537785689166 0
          2.054246168253662 -0.12064457170053294 0 2.455451372153637 -0.13825147231525228 0
          2.5857293729183364 -0.11319297956616141 0 0 0 0
          1.5644540920578456 -0.048432301457154256 0 1.0275149754499253 0.02105040623841577 0
          2.5271826493406215 -0.0548479770464326 0 2.393065977806011 0.0014744474489564261 0
          2.0057609398099725 -0.09237857603760669 0 0.5103290210951662 0.07158780471276512 0
          2.3380023527310807 -0.026654736495382355 0 2.4461514952055916 0.05308404408700426 0
          0.15097431840168501 0.06848066195052045 0 2.0521986030821346 0.13292726612064262 0
          1.33739062846126 0.15339344252868298 0 0 0 0
          2.3367160991556815 0.06557992935571291 0 2.240664473277468 0.18047250496189834 0
          1.6316503926227832 0.22918580743334777 0 2.104510674224533 0.010389853455433747 0
          0.9698701636672385 -0.13734985207771697 0 0.9164314353551609 0.2601229490621392 0
          2.219478673066363 0.16846567418095695 0 1.9083908145567392 0.3008479712366904 0
          2.1049607193363165 0.11374780150321334 0 1.2794317858458562 0.3406693549075225 0
          0 0 0 2.002211703015054 0.2894471048553107 0
          1.8924633945711393 0.08430685758907502 0 0.24596707083888764 0.18684952523562923 0
          1.5461458945584456 0.38507670893499873 0 0.5867807856754658 0.30155356355990987 0
          1.511017763971759 -0.0536437353131465 0 1.8482581769989712 0.17660584460658754 0
          0 0 0 1.6814535667836374 0.37338063005631456 0
          0 0 0 1.2196839848097734 0.4514499703246009 0
          0.7929174464377093 0.4434658894301041 0 0.7799776944509492 -0.1722975643067011 0
          0.3769337403706495 0.2903097875072743 0 0 0 0
          0.9602781475280111 0.02033257171335116 0 1.1136251601714937 0.2311554704845768 0
          0.8932022159037801 0.3617239017979269 0 0.658469039844984 0.3971813318035004 0
          0.36981953416897184 0.31268777216496374 0 0 0 0
          0 0 0 0 0 0
          0 0 0 0 0 0
          0 0 0 0 0 0
          0 0 0 0 0 0
          1.3614029433208368 -0.14749849602637252 0 0 0 0
          2.307452465456628 -0.7811483865838085 0 2.360434284396785 -0.7622065625341157 0
          2.2966038278071466 -0.6979993125474067 0 2.13400187979136 -0.6717682438317223 0
          1.905907128077539 -0.49758110297609465 0 1.7139724198348967 -0.39534752423442787 0
          2.089097762268906 -0.7182448171377978 0 1.50429358669855 -0.34435160532345327 0
          <InformationKey name="L2_NORM_RANGE" location="vtkDataArray" length="2">
            <Value index="0">
              0
            </Value>
            <Value index="1">
              2.6732829737
            </Value>
          </InformationKey>
        </DataArray>
        <DataArray type="Float64" Name="ALEveloc" NumberOfComponents="3" format="ascii" RangeMin="0" RangeMax="0.02400682226978624">
          0 0 0 0.005238042009773292 -0.002762871804353667 0
          0.010653533963328243 -0.006052849091035095 0 0 0 0
          0.014302049266285088 -0.008356821860282748 0 0.006317115850155375 -0.0031683588050243627 0
          0.012193141019138043 -0.00703036310295968 0 0.015273879043490979 -0.008910064853808741 0
          0.01707127524990426 -0.009715546678752407 0 0 0 0
          0.015606491479869256 -0.008939757533077852 0 0.008003990841284114 -0.0037517377911058247 0
          0.014163494872247995 -0.007871364275041426 0 0.01841627207153884 -0.010152279990968571 0
          0.017506508644507868 -0.009902929280356965 0 0.015710452524949403 -0.009124570511346186 0
          0.019410147925369436 -0.01028714894496252 0 0.01246562562873077 -0.006632472113672849 0
          0.01868030302446755 -0.01034322398563825 0 0.01735881420380947 -0.010374130645162016 0
          0.019843861608200175 -0.010858537930035883 0 0.01583410560988474 -0.009646179439265268 0
          0.006215890264653412 -0.0026994689419332085 0 0.020830002571162076 -0.011934760507797626 0
          0.018498642972769375 -0.011281017248080505 0 0.014006379397625057 -0.008631148223174956 0
          0.017259746304045365 -0.011087051829955674 0 0.019491958147019428 -0.011843143445133486 0
          0.020900358114073203 -0.011657006719282825 0 0.01567165114725677 -0.01031811946687905 0
          0.018361225570391326 -0.01190232872817093 0 0 0 0
          0.01862016568301117 -0.009387572949584436 0 0.011904993652471552 -0.005962389980690035 0
          0.017227735137498534 -0.011325007979172838 0 0.01873662152520339 -0.011965694149071556 0
          0.012457140924814869 -0.008538698341808981 0 0.0039081886927565535 -0.0026211893643942608 0
          0.015730257808354242 -0.010380876468380117 0 0.01784210494999794 -0.011345397303627977 0
          -0.00041544290541531415 -0.0010854390501940925 0 0.017882964840739923 -0.01033399538489016 0
          0.01463297940502084 -0.0063879601148326415 0 0 0 0
          0.01664971031807294 -0.010543370794160817 0 0.017306781435733942 -0.010401288571999123 0
          0.015221918310113658 -0.00757531587276572 0 0.014807505874515403 -0.009758972110741863 0
          0.005825071676305527 -0.005230007027598793 0 0.009521851713944152 -0.0026645062737579717 0
          0.016534146889243484 -0.009788515183490165 0 0.01574388199448329 -0.008376423619272544 0
          0.015421647144960637 -0.009380541702665862 0 0.012302065408301255 -0.004695673996531702 0
          0 0 0 0.015359059802846797 -0.008331945498238902 0
          0.013920390857145026 -0.008698273867353973 0 0.002213083412774264 0.0006913580441673117 0
          0.013114106009821214 -0.00592463711492619 0 0.006158677634216625 -0.0006001988971090499 0
          0.01142604241305012 -0.008176154938245694 0 0.013967840946611076 -0.007772467762021118 0
          0 0 0 0.013083624916290226 -0.006096053332487528 0
          0 0 0 0.010287762171211634 -0.0037475484235908185 0
          0.007374623669999192 -0.0013112315284595777 0 0.006484710891654366 -0.005729906184315237 0
          0.004069910337440974 0.000453294467775589 0 0 0 0
          0.007737346847660698 -0.004733415149212744 0 0.008606679675266182 -0.0038224762819985547 0
          0.006878627173359186 -0.0020460015842894697 0 0.005458798450894253 -0.0006075786366098734 0
          0.003485435445517493 0.0005788111194271472 0 0 0 0
          0 0 0 0 0 0
          0 0 0 0 0 0
          0 0 0 0 0 0
          0 0 0 0 0 0
          0.00891238113094639 -0.0038683394726589104 0 0 0 0
          0.018457627177898672 -0.010674192181113762 0 0.017614074618908404 -0.01027652467598128 0
          0.016214264843264825 -0.009564332731291536 0 0.015021741725553817 -0.009097678952493693 0
          0.0128396308838159 -0.007422233508771581 0 0.01157773720190658 -0.006293655745013282 0
          0.018755844923526332 -0.011229972253938847 0 0.017840550965822377 -0.012228373685740923 0
          <InformationKey name="L2_NORM_RANGE" location="vtkDataArray" length="2">
            <Value index="0">
              0
            </Value>
            <Value index="1">
              0.02400682227
            </Value>
          </InformationKey>
        </DataArray>
      </PointData>
      <CellData>
        <DataArray type="UInt8" Name="vtkGhostType" format="ascii" RangeMin="0" RangeMax="1">
          0 0 0 0 0 0
          0 0 1 0 0 1
          0 1 0 0 1 1
          1 0 0 0 0 0
          1 1 0 1 1 0
          1 1 0 1 0 0
          0 0 0 0 0 0
          0 0 0 0 0 0
          0 0 0 0 0 0
          0 0 0 0 0 0
          0 0 0 0 0 0
          0 0 0 0 0 0
          0 0 0 0 0 0
          0 0 0 0 0 0
          0 1 0 0 0 0
          0 0 0 1 0 0
          0 0 0 0 0 1
          0 0 0 0 0 0
          0 0 0 0 0 0
          0 0 0 0 0 0
          0 0 0 0 0 0
          0 0 0 0 0 0
          0 1 0 0 0 0
          0 0 0 0 0 0
          0 0 0 0 0 0
        </DataArray>
        <DataArray type="Float64" Name="PStrain" NumberOfComponents="6" format="ascii" RangeMin="0.006809689954834262" RangeMax="2.3206437936733186">
          0.010195910097028487 0.010195910097028487 0 0.010195910097028487 0 0
          0.012378470855475186 0.012378470855475186 0 0.012378470855475186 0 0
          0.015156328908245028 0.015156328908245028 0 0.015156328908245028 0 0
          0.012146446212165806 0.012146446212165806 0 0.012146446212165806 0 0
          0.00884553047336729 0.00884553047336729 0 0.00884553047336729 0 0
          0.008434590767472272 0.008434590767472272 0 0.008434590767472272 0 0
          0.007674572260296756 0.007674572260296756 0 0.007674572260296756 0 0
          0.010857855155625953 0.010857855155625953 0 0.010857855155625953 0 0
          0.00928858076079683 0.00928858076079683 0 0.00928858076079683 0 0
          0.007638834539234442 0.007638834539234442 0 0.007638834539234442 0 0
          0.009514508273927335 0.009514508273927335 0 0.009514508273927335 0 0
          0.0059123583129820755 0.0059123583129820755 0 0.0059123583129820755 0 0
          0.007292662313894711 0.007292662313894711 0 0.007292662313894711 0 0
          0.004849968904263914 0.004849968904263914 0 0.004849968904263914 0 0
          0.07826318230730786 0.07826318230730786 0 0.07826318230730786 0 0
          0.05276865574678311 0.05276865574678311 0 0.05276865574678311 0 0
          0.09228193229762834 0.09228193229762834 0 0.09228193229762834 0 0
          0.09419939348590382 0.09419939348590382 0 0.09419939348590382 0 0
          0.046694486973783304 0.046694486973783304 0 0.046694486973783304 0 0
          0.05417517872734755 0.05417517872734755 0 0.05417517872734755 0 0
          0.041744711171178464 0.041744711171178464 0 0.041744711171178464 0 0
          0.02408676775279656 0.02408676775279656 0 0.02408676775279656 0 0
          0.02049930020723941 0.02049930020723941 0 0.02049930020723941 0 0
          0.024098648870799964 0.024098648870799964 0 0.024098648870799964 0 0
          0.042843819877375275 0.042843819877375275 0 0.042843819877375275 0 0
          0.025181702596529604 0.025181702596529604 0 0.025181702596529604 0 0
          0.021733762842783964 0.021733762842783964 0 0.021733762842783964 0 0
          0.02896799158703712 0.02896799158703712 0 0.02896799158703712 0 0
          0.017529899327768286 0.017529899327768286 0 0.017529899327768286 0 0
          0.02504727164246436 0.02504727164246436 0 0.02504727164246436 0 0
          0.015776891987923446 0.015776891987923446 0 0.015776891987923446 0 0
          0.013488384101194868 0.013488384101194868 0 0.013488384101194868 0 0
          0.015149481548450645 0.015149481548450645 0 0.015149481548450645 0 0
          0.0071057080043073605 0.0071057080043073605 0 0.0071057080043073605 0 0
          0.09999999999999999 0.09999999999999999 0 0.09999999999999999 0 0
          0.004989723163055409 0.004989723163055409 0 0.004989723163055409 0 0
          0.011902234458683771 0.011902234458683771 0 0.011902234458683771 0 0
          0.007642463133310792 0.007642463133310792 0 0.007642463133310792 0 0
          0.005662561425661554 0.005662561425661554 0 0.005662561425661554 0 0
          0.014500212358123772 0.014500212358123772 0 0.014500212358123772 0 0
          0.028679383755480466 0.028679383755480466 0 0.028679383755480466 0 0
          0.03425386308222325 0.03425386308222325 0 0.03425386308222325 0 0
          0.013770969667025474 0.013770969667025474 0 0.013770969667025474 0 0
          0.04470152988172606 0.04470152988172606 0 0.04470152988172606 0 0
          0.020443791984836715 0.020443791984836715 0 0.020443791984836715 0 0
          0.058120862046100036 0.058120862046100036 0 0.058120862046100036 0 0
          0.012835840514396934 0.012835840514396934 0 0.012835840514396934 0 0
          0.008338296006929927 0.008338296006929927 0 0.008338296006929927 0 0
          0.05170069915256463 0.05170069915256463 0 0.05170069915256463 0 0
          0.032990344006340044 0.032990344006340044 0 0.032990344006340044 0 0
          0.03851953462006057 0.03851953462006057 0 0.03851953462006057 0 0
          0.02544352291366671 0.02544352291366671 0 0.02544352291366671 0 0
          0.010503469651482604 0.010503469651482604 0 0.010503469651482604 0 0
          0.01620101178123022 0.01620101178123022 0 0.01620101178123022 0 0
          0.030896241823522512 0.030896241823522512 0 0.030896241823522512 0 0
          0.030955327366989797 0.030955327366989797 0 0.030955327366989797 0 0
          0.02853609721703019 0.02853609721703019 0 0.02853609721703019 0 0
          0.013723621144296844 0.013723621144296844 0 0.013723621144296844 0 0
          0.017665210573621623 0.017665210573621623 0 0.017665210573621623 0 0
          0.012624600026429244 0.012624600026429244 0 0.012624600026429244 0 0
          0.004424673058229139 0.004424673058229139 0 0.004424673058229139 0 0
          0.0078025571379561134 0.0078025571379561134 0 0.0078025571379561134 0 0
          0.01422388222627154 0.01422388222627154 0 0.01422388222627154 0 0
          0.01155690589465071 0.01155690589465071 0 0.01155690589465071 0 0
          0.009608555716005435 0.009608555716005435 0 0.009608555716005435 0 0
          0.0065182825302336645 0.0065182825302336645 0 0.0065182825302336645 0 0
          0.003931576328521451 0.003931576328521451 0 0.003931576328521451 0 0
          1.3398243189705248 1.3398243189705248 0 1.3398243189705248 0 0
          0.8628276007676817 0.8628276007676817 0 0.8628276007676817 0 0
          0.8796649927758791 0.8796649927758791 0 0.8796649927758791 0 0
          0.9174589498614485 0.9174589498614485 0 0.9174589498614485 0 0
          0.21577090078276442 0.21577090078276442 0 0.21577090078276442 0 0
          0.24258856785874988 0.24258856785874988 0 0.24258856785874988 0 0
          1.1674830099299962 1.1674830099299962 0 1.1674830099299962 0 0
          0.5862450613579782 0.5862450613579782 0 0.5862450613579782 0 0
          0.15419838989492846 0.15419838989492846 0 0.15419838989492846 0 0
          0.23787331604392742 0.23787331604392742 0 0.23787331604392742 0 0
          0.06225586270144412 0.06225586270144412 0 0.06225586270144412 0 0
          0.30909520853946554 0.30909520853946554 0 0.30909520853946554 0 0
          0.21328605112413473 0.21328605112413473 0 0.21328605112413473 0 0
          0.20276523113355166 0.20276523113355166 0 0.20276523113355166 0 0
          0.5711550295726319 0.5711550295726319 0 0.5711550295726319 0 0
          0.16120354856242122 0.16120354856242122 0 0.16120354856242122 0 0
          0.25222617435122197 0.25222617435122197 0 0.25222617435122197 0 0
          0.12611262990313643 0.12611262990313643 0 0.12611262990313643 0 0
          0.2781986430317891 0.2781986430317891 0 0.2781986430317891 0 0
          0.08528233162277958 0.08528233162277958 0 0.08528233162277958 0 0
          0.05638627190566978 0.05638627190566978 0 0.05638627190566978 0 0
          0.37304921368835653 0.37304921368835653 0 0.37304921368835653 0 0
          0.07272190052752502 0.07272190052752502 0 0.07272190052752502 0 0
          0.02242542859320379 0.02242542859320379 0 0.02242542859320379 0 0
          0.08323783604314794 0.08323783604314794 0 0.08323783604314794 0 0
          0.02842992401422862 0.02842992401422862 0 0.02842992401422862 0 0
          0.2566996753453735 0.2566996753453735 0 0.2566996753453735 0 0
          0.1491100406198459 0.1491100406198459 0 0.1491100406198459 0 0
          0.08349929676026538 0.08349929676026538 0 0.08349929676026538 0 0
          0.3171795092605624 0.3171795092605624 0 0.3171795092605624 0 0
          0.09530801603308744 0.09530801603308744 0 0.09530801603308744 0 0
          0.053844978162941565 0.053844978162941565 0 0.053844978162941565 0 0
          0.14995785667973024 0.14995785667973024 0 0.14995785667973024 0 0
          0.07655898803350675 0.07655898803350675 0 0.07655898803350675 0 0
          0.1507009457669994 0.1507009457669994 0 0.1507009457669994 0 0
          0.03452403251409825 0.03452403251409825 0 0.03452403251409825 0 0
          0.1836472457023164 0.1836472457023164 0 0.1836472457023164 0 0
          0.17161370282857605 0.17161370282857605 0 0.17161370282857605 0 0
          0.1934077700682513 0.1934077700682513 0 0.1934077700682513 0 0
          0.033268154664011854 0.033268154664011854 0 0.033268154664011854 0 0
          0.030196983250754615 0.030196983250754615 0 0.030196983250754615 0 0
          0.15174209668565378 0.15174209668565378 0 0.15174209668565378 0 0
          0.09141428179822571 0.09141428179822571 0 0.09141428179822571 0 0
          0.08623631471004713 0.08623631471004713 0 0.08623631471004713 0 0
          0.028193234036363868 0.028193234036363868 0 0.028193234036363868 0 0
          0.18011355645998717 0.18011355645998717 0 0.18011355645998717 0 0
          0.04593212991746374 0.04593212991746374 0 0.04593212991746374 0 0
          0.07279892398371893 0.07279892398371893 0 0.07279892398371893 0 0
          0.05051359974064635 0.05051359974064635 0 0.05051359974064635 0 0
          0.07401264049211512 0.07401264049211512 0 0.07401264049211512 0 0
          0.058415768674521806 0.058415768674521806 0 0.058415768674521806 0 0
          0.03827655337787722 0.03827655337787722 0 0.03827655337787722 0 0
          0.08746940536607384 0.08746940536607384 0 0.08746940536607384 0 0
          0.10357660133439386 0.10357660133439386 0 0.10357660133439386 0 0
          0.09605749766908873 0.09605749766908873 0 0.09605749766908873 0 0
          0.015087502752694628 0.015087502752694628 0 0.015087502752694628 0 0
          0.10782158766828616 0.10782158766828616 0 0.10782158766828616 0 0
          0.09423517326238802 0.09423517326238802 0 0.09423517326238802 0 0
          0.028990196585103607 0.028990196585103607 0 0.028990196585103607 0 0
          0.051361552304081314 0.051361552304081314 0 0.051361552304081314 0 0
          0.06880699263383729 0.06880699263383729 0 0.06880699263383729 0 0
          0.07074077394914238 0.07074077394914238 0 0.07074077394914238 0 0
          0.2690093194190977 0.2690093194190977 0 0.2690093194190977 0 0
          0.0321959971341064 0.0321959971341064 0 0.0321959971341064 0 0
          0.0172104766720387 0.0172104766720387 0 0.0172104766720387 0 0
          0.058440980330169395 0.058440980330169395 0 0.058440980330169395 0 0
          0.26109839646603483 0.26109839646603483 0 0.26109839646603483 0 0
          0.07535580647276532 0.07535580647276532 0 0.07535580647276532 0 0
          0.12129035356328965 0.12129035356328965 0 0.12129035356328965 0 0
          0.11769768197353228 0.11769768197353228 0 0.11769768197353228 0 0
          0.05666455914506836 0.05666455914506836 0 0.05666455914506836 0 0
          0.018205466173843318 0.018205466173843318 0 0.018205466173843318 0 0
          0.01530611533073174 0.01530611533073174 0 0.01530611533073174 0 0
          0.038797276524993575 0.038797276524993575 0 0.038797276524993575 0 0
          0.011902234458683778 0.011902234458683778 0 0.011902234458683778 0 0
          0.08314358225270727 0.08314358225270727 0 0.08314358225270727 0 0
          0.015487165595472873 0.015487165595472873 0 0.015487165595472873 0 0
          0.04332788644783213 0.04332788644783213 0 0.04332788644783213 0 0
          0.026766123577083897 0.026766123577083897 0 0.026766123577083897 0 0
          0.026577526539155162 0.026577526539155162 0 0.026577526539155162 0 0
          0.03813808124777181 0.03813808124777181 0 0.03813808124777181 0 0
          0.040811505131007474 0.040811505131007474 0 0.040811505131007474 0 0
          0.027217083240981172 0.027217083240981172 0 0.027217083240981172 0 0