<?xml version="1.0"?>
<VTKFile type="UnstructuredGrid" version="0.1" byte_order="LittleEndian" header_type="UInt32" compressor="vtkZLibDataCompressor">
  <UnstructuredGrid>
    <Piece NumberOfPoints="97" NumberOfCells="154">
      <PointData>
        <DataArray type="Float64" Name="Velocity" NumberOfComponents="3" format="ascii" RangeMin="0" RangeMax="2.7394951997125547">
          1.0181836275479985 0.0022071320985052427 0 1.0230724314410022 0 0
          0.99443225551038 -0.0005192058086455646 0 1.00379012682103 -0.01395354339017615 0
          0.9901685476141011 -0.008489673381730008 0 1.0544690918169428 0 0
          0.9899646293913241 0.0009796501462337134 0 0.9786419710855735 0 0
          0.9808827458278592 -0.013649039953186753 0 1.0043106048647117 -0.007722231974723007 0
          1.0979303660121145 0 0 0.9619193627332489 0 0
          0.9209965328415284 0 0 1.2749119338904493 0 0
          0.9729616627609816 -0.18891839532681026 0 1.3671545625504096 -0.3834519755331646 0
          0.7413853347618156 0 0 1.7083655071907415 0 0
          0.6689268487103448 -0.30623139515206615 0 0.9904613917152442 -0.7061488365745019 0
          1.9378252091548447 -0.4847564715001199 0 0.3612120714906414 0 0
          2.339546561578004 0 0 0.25262718971331466 -0.6707104932067675 0
          0.9752204658955969 -1.045950016220771 0 2.4885354212116897 -0.3435235099026509 0
          -0.35911380566790047 0 0 2.735491905587104 0 0
          -0.35390357601892186 -0.3397246580135006 0 1.7235727931704479 -0.47469614612345284 0
          0.14083546340040665 -0.5404556488043617 0 2.7394881382767236 -0.0062200875606423095 0
          -0.634834321318064 0 0 2.705749872919269 0 0
          2.0930374198617914 -0.010434902783215894 0 0.4130501623651964 0.02133408986898455 0
          -0.7416682842630545 -0.09281705814156961 0 -0.6809395117182151 0 0
          2.5740303262421054 0.26201549376708244 0 1.0725194918480747 0.3905918848401531 0
          -0.2676365084204816 0.28034531581421873 0 2.0388185006522543 0.2778978715930377 0
          -0.6771632387176332 0.14883751555600575 0 0.5111265571546847 0.4401421184258413 0
          1.0091985799470735 0.4060401671443348 0 0.10201588422892582 0.43585064183257916 0
          -0.5031543720635356 0 0 1.4378122858881268 0.28686772257580306 0
          -0.3997580328688393 0.29037016746011857 0 1.9608355706412706 0.2411936271913918 0
          0.5560452026747422 0.4731972365623397 0 -0.523993272978409 0.10509746896482522 0
          -0.1300704672233815 0.4041232493511174 0 0.8787135250007083 0.3824759309503689 0
          -0.46933546860173253 0.24034615092617975 0 0.1952637959470071 0.4774649291468503 0
          1.248849607203109 0.1995678469088624 0 -0.25726111573433785 0.36154170080573106 0
          0.5305089076931243 0.45788623980699755 0 -0.34711247469202194 0 0
          -0.011288928205020955 0.4510745955944685 0 -0.37157613752550905 0.13886483044349943 0
          0.6898174132874284 0.24089497465375434 0 -0.2929259984205663 0.2682846648915155 0
          0.25644419573192134 0.4942438308870605 0 1.1693759040725655 0.08025810599648453 0
          -0.11623266852463833 0.372205743245394 0 0.41404930403698553 0.3895679619010912 0
          0.09494436057019896 0.44213956524370607 0 0.47865120348066764 0.16564928323697126 0
          -0.2178169724727649 0.1494586897345641 0 0.24892398959236794 0.41351734312698957 0
          -0.20954928017672186 0 0 -0.14215867348069797 0.24872990753505259 0
          0.2585325721938472 0.25714267453063205 0 0.007398799902918137 0.3428458083403476 0
          0.11772259522220518 0.33681842378575866 0 0.15939613844241363 0.26972773700501596 0
          -0.08805126528510844 1.575317637711424e-23 0 -0.01790427854577672 0.2070784122686572 0
          0.05673271058399661 0.1967804286893966 0 -0.03243088000081833 0.07104291598553886 0
          0.0004007206245990498 -0.011994086980702066 0 -0.0257824432739207 1.2771992703617675e-23 0
          -0.0017324325542054804 -0.008308592839914728 0 -0.0023324768728524214 -0.004921030254876328 0
          -0.0015405157299984303 -0.0020840606765268202 0 0 0 0
          2.418620499261217 0.2014495668928193 0 2.5206250159068655 0.2836062397414424 0
          2.512676195737346 0 0 0.4152665697000102 0.13998593132555914 0
          1.1774225132946865 0.16902977482405232 0 2.051780529507343 0.2105912023689191 0
          1.9393336224027158 0.2564961710983378 0 0.09815630658397834 0.15466379058357516 0
          0.004613390151619807 -0.015542188566787445 0
          <InformationKey name="L2_NORM_RANGE" location="vtkDataArray" length="2">
            <Value index="0">
              0
            </Value>
            <Value index="1">
              2.7394951997
            </Value>
          </InformationKey>
        </DataArray>
        <DataArray type="Float64" Name="Pressure" format="ascii" RangeMin="-4.695702745389273" RangeMax="0.007594827383663815">
          -0.007405873255259134 -0.016591248488197773 -0.0032999001895520994 -0.02679539710432693 -0.02870551482656428 -0.017269489921572387
          0.007594827383663815 -0.02720054404155528 -0.0697856866918687 -0.0620092207893191 -0.04042023296680412 -0.07786971746046531
          -0.10345592133814763 -0.04303655218287039 -0.12605544681651282 -0.32832662232462184 -0.22701724951218638 -0.37536202603897495
          -0.3595643493838243 -0.7832698693334844 -0.9993485111293973 -0.3978721872327905 -1.5458967752734374 -0.9976567515033795
          -2.4653858084694744 -2.3213016990647604 -1.6290922127010519 -2.622405027202002 -2.5203126469684642 -4.250977053491198
          -4.035519652375697 -3.1653941261342826 -2.8858230056807024 -2.539083207165077 -4.099514724109578 -4.695702745389273
          -3.8378413808829737 -3.4054606655287567 -2.99549309640041 -4.173627291545767 -4.041268016210275 -2.889999767966207
          -3.5361592966408617 -3.835016003333645 -3.4600336491367427 -3.6909876701583713 -3.384835451642582 -2.9344568386553997
          -3.55021158800447 -2.558144906294065 -3.427248313569275 -3.3429247731449685 -3.4967474459330226 -3.020561249864008
          -3.3509664873653753 -3.361009724907548 -2.7007632453925683 -3.3433921177627126 -3.1003432773192205 -3.2341776755131137
          -3.2775908822989193 -3.2279383169143125 -2.810392093791567 -3.2158177996303032 -3.147155946574894 -2.6537109374861094
          -3.1975060276363014 -2.9651524616614333 -3.144363940506169 -2.8612912299763407 -3.1705031357565354 -3.0582901176448294
          -3.1831159286080366 -3.159186481470978 -2.97480928628312 -3.141197612461094 -3.109581385288554 -3.047355768652719
          -3.2103877032997286 -3.176735632222429 -3.1687508297165223 -3.2362235423577004 -3.185386883899369 -3.257431338653883
          -3.2449549036273613 -3.2954382681632803 -3.3013730658806346 -3.292440552765083 -1.7754359275889464 -2.1911443993317126
          -1.9597259220450562 -2.9777867191535097 -2.7944023854389752 -2.3798512978228445 -2.4858214618629777 -2.9798895373363767
          -3.079494936641599
        </DataArray>
        <DataArray type="Float64" Name="BTraction" NumberOfComponents="3" format="ascii" RangeMin="0" RangeMax="3.3891733216051794">
          0.003345876822054755 0.005216055933764415 0 0.0007723475815810901 0.01561731623358295 0
          0.002106076431450471 0.00039649563190086244 0 0 0 0
          0 0 0 0.0013823968911074846 0.021584881725762096 0
          -0.0022761205260290063 -0.0014553605085641972 0 -0.00045928826696788023 -0.029263409137437472 0
          0 0 0 0 0 0
          0.0037770943646909497 0.04096003472945622 0 -0.0005698973484793158 -0.07294102161476336 0
          -0.002535451984590069 -0.11555492814373416 0 0.006716457961447819 0.11074812189730338 0
          0 0 0 0 0 0
          -0.00560681922369651 -0.21401940071201114 0 0.005880741144677244 0.5228490130324449 0
          0 0 0 0 0 0
          0 0 0 -0.008399104504119256 -0.4978375195100242 0
          0.0016809615590923843 1.5419567413126463 0 0 0 0
          0 0 0 0 0 0
          -0.00803100789078215 -1.542252870113768 0 -0.0005004043435183199 2.4393649180121693 0
          0 0 0 0 0 0
          0 0 0 0 0 0
          -0.001049370853152345 -2.7175070387751514 0 0.0002928358558500982 2.4509770386231895 0
          0 0 0 0 0 0
          0 0 0 0.006862761608162084 -3.316405211711156 0
          0 0 0 0 0 0
          0 0 0 0 0 0
          0 0 0 0 0 0
          0 0 0 0 0 0
          0.00927766182340754 -3.389160623055711 0 0 0 0
          0 0 0 0 0 0
          0 0 0 0 0 0
          0 0 0 0 0 0
          0 0 0 0 0 0
          0 0 0 0 0 0
          0 0 0 0.006750562393607412 -3.27932835462948 0
          0 0 0 0 0 0
          0 0 0 0 0 0
          0 0 0 0 0 0
          0 0 0 0 0 0
          0 0 0 0 0 0
          0 0 0 0 0 0
          0.003106725382451311 -3.2240973473782923 0 0 0 0
          0 0 0 0 0 0
          0 0 0 0 0 0
          0.0005638988011159302 -3.2342061146053713 0 0 0 0
          0 0 0 0 0 0
          -3.048764338223634 0.9215372614253627 0 -0.00033435018000355023 -3.261854870813304 0
          -3.1119129116060575 0.8839106638258772 0 -3.17750939233241 0.7851314195408503 0
          -3.2419482218319065 0.5239859866140073 0 -1.5776936364358465 -1.5405946432630373 0
          0 0 0 0 0 0
          -0.0008307066088928818 1.8167255790260723 0 0 0 0
          0 0 0 0 0 0
          0 0 0 0 0 0
          -2.923597652922318 0.9127515140440003 0
          <InformationKey name="L2_NORM_RANGE" location="vtkDataArray" length="2">
            <Value index="0">
              0
            </Value>
            <Value index="1">
              3.3891733216
            </Value>
          </InformationKey>
        </DataArray>
        <DataArray type="Float64" Name="ALEdispl" NumberOfComponents="3" format="ascii" RangeMin="0" RangeMax="2.612957334434496">
          0 0 0 0 0 0
          0 0 0 0.20641993414134582 0.03439884938246384 0
          0.13503208513807444 -0.053215829924100067 0 0 0 0
          0 0 0 0 0 0
          0.19284548896388043 -0.018767518166505646 0 0.32941903592364635 0.0042979854289601875 0
          0 0 0 0 0 0
          0 0 0 0 0 0
          0.5819065047022708 0.008619514424260117 0 0.4214328527740787 0.06995491128069785 0
          0 0 0 0 0 0
          0.4313282470239215 -0.13783125372949667 0 0.848480746745401 -0.061858234251513704 0
          0.45188900496987766 0.09460622211580876 0 0 0 0
          0 0 0 0.48021820941389226 -0.20464611656663115 0
          1.085783859877562 -0.15600700877178855 0 0.5565741108196276 0.08790618275116661 0
          0 0 0 0 0 0
          0.614809608227446 -0.27676571698727853 0 1.2114181816206648 -0.19679260248240696 0
          1.1695614365076095 -0.37931973344986303 0 0.7292080329957277 0.04875651724950141 0
          0 0 0 0 0 0
          1.3358858679341425 -0.2552323711796909 0 1.4426053985754264 -0.5406477668520743 0
          0.8309505042187506 -0.4675587921675778 0 0 0 0
          1.3803549841966267 -0.1513891614352149 0 1.7922174307888106 -0.6084225119717139 0
          1.4254620817738968 -0.7905999796102325 0 1.7379021562003707 -0.4035558657897024 0
          0.7181705982778441 -0.517668860613836 0 1.7752244234681736 -0.7882054366438433 0
          1.9605373346874015 -0.6968291507777618 0 1.6929122950666098 -0.8666121280756615 0
          0 0 0 1.9662541152705577 -0.6110381013585247 0
          1.1630094685862145 -0.7675598488653429 0 1.9326834761932072 -0.5077602300496461 0
          1.9394131629248443 -0.8483108679768901 0 0.49061841852588745 -0.39076220288014607 0
          1.5015540380516106 -0.8829079569974488 0 2.109422583721702 -0.7757116288809335 0
          0.8843544209932178 -0.65667603287093 0 1.8284784146754647 -0.9176405358331311 0
          2.163902822946706 -0.6850547443858905 0 1.2656373934633847 -0.8357264960014749 0
          2.087412855331934 -0.882638888379094 0 0 0 0
          1.6254415836666207 -0.9113984820592409 0 0.5577296282932884 -0.4611163537272068 0
          2.25826289209748 -0.8022841795934866 0 0.9431880543574175 -0.7018727777655962 0
          1.9539219664173935 -0.9161412581446976 0 2.3290031576936676 -0.7122500273021922 0
          1.3316940906866086 -0.8264078517538602 0 2.2206369791326654 -0.8647478103112727 0
          1.7119446500768183 -0.8679500873202276 0 2.39344818849698 -0.7777941650062743 0
          0.5661797454986647 -0.4725515866746693 0 2.056902870064131 -0.8591791692996695 0
          0 0 0 0.943187999100155 -0.6482550344150464 0
          2.3392972272415036 -0.7972134967462942 0 1.3485538820959055 -0.7273783379617181 0
          1.7071317582278915 -0.7185644653664506 0 2.116889716384612 -0.7327945554765631 0
          0 0 0 0.9198804356802582 -0.5138784111272721 0
          1.3366531323092203 -0.5259790564666278 0 0.37940977275645726 -0.2766118095286862 0
          1.5216171646021788 -0.3493533057116768 0 0 0 0
          0.9676420348668048 -0.25561454206775996 0 0.4794453434814026 -0.1651705800190783 0
          0.14112165197516835 -0.08361732664730333 0 0 0 0
          0.8491449282644872 -0.10437342122163003 0 1.6736557389482476 -0.3670149953584504 0
          0 0 0 2.5164106910349298 -0.703721014053249 0
          2.473879486445149 -0.6795301207870276 0 2.313493569949848 -0.617293926691558 0
          2.145642484841319 -0.5893163826979546 0 2.4205752788680885 -0.6748968838572332 0
          2.028682992262659 -0.43343847324120327 0
          <InformationKey name="L2_NORM_RANGE" location="vtkDataArray" length="2">
            <Value index="0">
              0
            </Value>
            <Value index="1">
              2.6129573344
            </Value>
          </InformationKey>
        </DataArray>
        <DataArray type="Float64" Name="ALEveloc" NumberOfComponents="3" format="ascii" RangeMin="0" RangeMax="0.012767607086782099">
          0 0 0 0 0 0
          0 0 0 0.00005643134896132773 0.000005976713926617028 0
          0.00003948807319686942 -0.000017868958269023905 0 0 0 0
          0 0 0 0 0 0
          0.00005611619430223591 -0.000013862120010938589 0 0.00009005778625142957 -0.00001786169963156111 0
          0 0 0 0 0 0
          0 0 0 0 0 0
          0.000172435768215351 -0.00020034720082607975 0 0.00003343607540562399 -0.0003425716225458342 0
          0 0 0 0 0 0
          0.00019862903012035638 -0.0003552983616329497 0 0.00019894735731273983 -0.0008121099271950899 0
          -0.000021404175027495143 -0.0005410607057440842 0 0 0 0
          0 0 0 0.0002883997169176311 -0.0005774389324600393 0
          0.0003231792873488182 -0.0018287484251434116 0 -0.00006361219332118306 -0.0010380405132223158 0
          0 0 0 0 0 0
          0.0003605032936050412 -0.0010762840238973115 0 0.00024988076642640245 -0.0032564924139861784 0
          0.0005081992921192047 -0.002871602561876241 0 0.00011358990815479864 -0.0019032291409839114 0
          0 0 0 0 0 0
          0.00044602492255529924 -0.00469992717777773 0 0.00044897503116025916 -0.005067496093761115 0
          0.0004412301132767915 -0.0023848097915867283 0 0 0 0
          0.0010311893180361409 -0.0054966509852870105 0 0.0008342146967552644 -0.007898530672890924 0
          0.00021247870277196768 -0.006538943836468469 0 0.001486299093886867 -0.0079742475420439 0
          0.00022371978148094662 -0.003264852142694896 0 0.000579878908422593 -0.00876727516897935 0
          0.0011728683816016883 -0.009460334684866734 0 0.000362097919707427 -0.00890948828550342 0
          0 0 0 0.001574562772400423 -0.009578751572454025 0
          -0.00010150743592585165 -0.006410852381863341 0 0.0020542010336943584 -0.009164412517686849 0
          0.0007843789567920645 -0.010222402000019004 0 0.00009284104860807219 -0.002669796208142672 0
          -0.00014875742217368426 -0.008615364672144965 0 0.0014789904268175391 -0.010876947122336222 0
          -0.00037231488715461225 -0.005377959240999708 0 0.00027944090029174973 -0.010391763513775354 0
          0.0021633331439376846 -0.010896363786600194 0 -0.0006071032754946248 -0.00798112106231974 0
          0.0009711841251998088 -0.011504737040495927 0 0 0 0
          -0.0003478550076043696 -0.01000716737163243 0 -0.0003624001058136761 -0.003853155823781429 0
          0.0018580021143943526 -0.01190173298580266 0 -0.0011132191141445258 -0.006660082955038948 0
          0.00022973312605056861 -0.011501559689816254 0 0.002780471113775107 -0.011682818477631862 0
          -0.001218650725667736 -0.008925058768681327 0 0.001194208741547076 -0.01234820359612021 0
          -0.0006736850690254315 -0.010787176970036283 0 0.002327181956314206 -0.012434969802557871 0
          -0.0011003391876394097 -0.004751893869801682 0 0.00009731271436708155 -0.012088557732884864 0
          0 0 0 -0.002033676707832388 -0.006916777494953341 0
          0.0014619981679828697 -0.012683625352369221 0 -0.0021056367520153607 -0.008980809145556101 0
          -0.0014774647805970709 -0.010426329113887967 0 -0.0002516821653983925 -0.011838238964821945 0
          0 0 0 -0.0030196771842063708 -0.006286040570065987 0
          -0.0034758995794121894 -0.007484460437119589 0 -0.002225057995866475 -0.0032542292886206803 0
          -0.004097814184091941 -0.006656976371858803 0 0 0 0
          -0.0043525638029584535 -0.004474746219145342 0 -0.003419076123266085 -0.00255591042353312 0
          -0.0016823088690914867 -0.0010103555062962177 0 0 0 0
          0.0010865627258964672 -0.0038137246529913738 0 0.0021625843446106963 -0.007719989766413526 0
          0 0 0 0.0029560393595922108 -0.012399514454256577 0
          0.003582575359550866 -0.011855858427927135 0 0.003719184381286933 -0.010806190417218864 0
          0.0028637743856689823 -0.010407408947814778 0 0.0015411006925161175 -0.012284261914474515 0
          -0.0018534778918075645 -0.008928015780704901 0
          <InformationKey name="L2_NORM_RANGE" location="vtkDataArray" length="2">
            <Value index="0">
              0
            </Value>
            <Value index="1">
              0.012767607087
            </Value>
          </InformationKey>
        </DataArray>
      </PointData>
      <CellData>
        <DataArray type="UInt8" Name="vtkGhostType" format="ascii" RangeMin="0" RangeMax="0">
          0 0 0 0 0 0
          0 0 0 0 0 0
          0 0 0 0 0 0
          0 0 0 0 0 0
          0 0 0 0 0 0
          0 0 0 0 0 0
          0 0 0 0 0 0
          0 0 0 0 0 0
          0 0 0 0 0 0
          0 0 0 0 0 0
          0 0 0 0 0 0
          0 0 0 0 0 0
          0 0 0 0 0 0
          0 0 0 0 0 0
          0 0 0 0 0 0
          0 0 0 0 0 0
          0 0 0 0 0 0
          0 0 0 0 0 0
          0 0 0 0 0 0
          0 0 0 0 0 0
          0 0 0 0 0 0
          0 0 0 0 0 0
          0 0 0 0 0 0
          0 0 0 0 0 0
          0 0 0 0 0 0
          0 0 0 0
        </DataArray>
        <DataArray type="Float64" Name="PStrain" NumberOfComponents="6" format="ascii" RangeMin="7.276782864991792e-8" RangeMax="0.49533511789232076">
          0.09999999999999999 0.09999999999999999 0 0.09999999999999999 0 0
          0.0000019140194130146315 0.0000019140194130146315 0 0.0000019140194130146315 0 0
          0.000008940595905856279 0.000008940595905856279 0 0.000008940595905856279 0 0
          0.0000017180224235811476 0.0000017180224235811476 0 0.0000017180224235811476 0 0
          0.000001759556335794612 0.000001759556335794612 0 0.000001759556335794612 0 0
          2.5382936784600377e-7 2.5382936784600377e-7 0 2.5382936784600377e-7 0 0
          0.0000011653907624691968 0.0000011653907624691968 0 0.0000011653907624691968 0 0
          1.6476173444768141e-7 1.6476173444768141e-7 0 1.6476173444768141e-7 0 0
          5.500791300629041e-7 5.500791300629041e-7 0 5.500791300629041e-7 0 0
          4.77697207331101e-7 4.77697207331101e-7 0 4.77697207331101e-7 0 0
          1.2064864710807195e-7 1.2064864710807195e-7 0 1.2064864710807195e-7 0 0
          2.1504148519728486e-7 2.1504148519728486e-7 0 2.1504148519728486e-7 0 0
          0.000014281657434174823 0.000014281657434174823 0 0.000014281657434174823 0 0
          9.09676677469999e-8 9.09676677469999e-8 0 9.09676677469999e-8 0 0
          9.09676677469999e-8 9.09676677469999e-8 0 9.09676677469999e-8 0 0
          0.00001428165743417482 0.00001428165743417482 0 0.00001428165743417482 0 0
          4.2012525459374665e-8 4.2012525459374665e-8 0 4.2012525459374665e-8 0 0
          0.000010508034570263712 0.000010508034570263712 0 0.000010508034570263712 0 0
          0.009525906659789389 0.009525906659789389 0 0.009525906659789389 0 0
          0.006061207341639044 0.006061207341639044 0 0.006061207341639044 0 0
          0.008812330455422816 0.008812330455422816 0 0.008812330455422816 0 0
          0.004975792034112822 0.004975792034112822 0 0.004975792034112822 0 0
          0.005796587550053219 0.005796587550053219 0 0.005796587550053219 0 0
          0.005668693549716447 0.005668693549716447 0 0.005668693549716447 0 0
          0.005490613555440144 0.005490613555440144 0 0.005490613555440144 0 0
          0.0030059233309825506 0.0030059233309825506 0 0.0030059233309825506 0 0
          0.002291777507325067 0.002291777507325067 0 0.002291777507325067 0 0
          0.004266283022102517 0.004266283022102517 0 0.004266283022102517 0 0
          0.0055211076952232105 0.0055211076952232105 0 0.0055211076952232105 0 0
          0.002189119807917259 0.002189119807917259 0 0.002189119807917259 0 0
          0.0010651232483525463 0.0010651232483525463 0 0.0010651232483525463 0 0
          0.00259195957747045 0.00259195957747045 0 0.00259195957747045 0 0
          0.003856082732723351 0.003856082732723351 0 0.003856082732723351 0 0
          0.001820026144190301 0.001820026144190301 0 0.001820026144190301 0 0
          0.0046265748832161665 0.0046265748832161665 0 0.0046265748832161665 0 0
          0.0023002922711714328 0.0023002922711714328 0 0.0023002922711714328 0 0
          0.002563681822526011 0.002563681822526011 0 0.002563681822526011 0 0
          0.0018461052259687518 0.0018461052259687518 0 0.0018461052259687518 0 0
          0.0006537591142945817 0.0006537591142945817 0 0.0006537591142945817 0 0
          0.0008550576761573699 0.0008550576761573699 0 0.0008550576761573699 0 0
          0.0009081483461058982 0.0009081483461058982 0 0.0009081483461058982 0 0
          0.0007456340601086289 0.0007456340601086289 0 0.0007456340601086289 0 0
          0.0010089023523058992 0.0010089023523058992 0 0.0010089023523058992 0 0
          0.0012172063946628486 0.0012172063946628486 0 0.0012172063946628486 0 0
          0.002356371619674318 0.002356371619674318 0 0.002356371619674318 0 0
          0.0011421126390789814 0.0011421126390789814 0 0.0011421126390789814 0 0
          0.0008356729364174081 0.0008356729364174081 0 0.0008356729364174081 0 0
          0.00032686845640534696 0.00032686845640534696 0 0.00032686845640534696 0 0
          0.00028108804537695694 0.00028108804537695694 0 0.00028108804537695694 0 0
          0.00031295718606099565 0.00031295718606099565 0 0.00031295718606099565 0 0
          0.00034275656825883733 0.00034275656825883733 0 0.00034275656825883733 0 0
          0.00020011042627681634 0.00020011042627681634 0 0.00020011042627681634 0 0
          0.00025405093054220034 0.00025405093054220034 0 0.00025405093054220034 0 0
          0.00012288339009439245 0.00012288339009439245 0 0.00012288339009439245 0 0
          0.00008051519763575826 0.00008051519763575826 0 0.00008051519763575826 0 0
          0.00007778507775331689 0.00007778507775331689 0 0.00007778507775331689 0 0
          0.00011010674080630088 0.00011010674080630088 0 0.00011010674080630088 0 0
          0.0003289059885662333 0.0003289059885662333 0 0.0003289059885662333 0 0
          0.00013742036260410833 0.00013742036260410833 0 0.00013742036260410833 0 0
          0.00042182834965786566 0.00042182834965786566 0 0.00042182834965786566 0 0
          0.000055979884224170175 0.000055979884224170175 0 0.000055979884224170175 0 0
          0.000058199646965163574 0.000058199646965163574 0 0.000058199646965163574 0 0
          0.00009051895159872823 0.00009051895159872823 0 0.00009051895159872823 0 0
          0.09470157214073363 0.09470157214073363 0 0.09470157214073363 0 0
          0.09669379543500287 0.09669379543500287 0 0.09669379543500287 0 0
          0.04789360430864407 0.04789360430864407 0 0.04789360430864407 0 0
          0.11855735760418967 0.11855735760418967 0 0.11855735760418967 0 0
          0.1407423180502667 0.1407423180502667 0 0.1407423180502667 0 0
          0.10400407954810555 0.10400407954810555 0 0.10400407954810555 0 0
          0.07734885970831501 0.07734885970831501 0 0.07734885970831501 0 0
          0.1600539998183028 0.1600539998183028 0 0.1600539998183028 0 0
          0.05294071926801751 0.05294071926801751 0 0.05294071926801751 0 0
          0.05743982695583033 0.05743982695583033 0 0.05743982695583033 0 0
          0.02973125120092355 0.02973125120092355 0 0.02973125120092355 0 0
          0.043950451379612704 0.043950451379612704 0 0.043950451379612704 0 0
          0.025823026160985144 0.025823026160985144 0 0.025823026160985144 0 0
          0.057725748297465546 0.057725748297465546 0 0.057725748297465546 0 0
          0.0709160016494019 0.0709160016494019 0 0.0709160016494019 0 0
          0.08004753987039875 0.08004753987039875 0 0.08004753987039875 0 0
          0.04575908686246542 0.04575908686246542 0 0.04575908686246542 0 0
          0.05282617699825236 0.05282617699825236 0 0.05282617699825236 0 0
          0.04123496454107978 0.04123496454107978 0 0.04123496454107978 0 0
          0.08214277952235624 0.08214277952235624 0 0.08214277952235624 0 0
          0.030321375243140554 0.030321375243140554 0 0.030321375243140554 0 0
          0.029721784802343575 0.029721784802343575 0 0.029721784802343575 0 0
          0.017977106772907765 0.017977106772907765 0 0.017977106772907765 0 0
          0.033432730797506575 0.033432730797506575 0 0.033432730797506575 0 0
          0.0185571822010386 0.0185571822010386 0 0.0185571822010386 0 0
          0.030834770440758365 0.030834770440758365 0 0.030834770440758365 0 0
          0.04742060232453569 0.04742060232453569 0 0.04742060232453569 0 0
          0.05038298618629382 0.05038298618629382 0 0.05038298618629382 0 0
          0.030439402039761587 0.030439402039761587 0 0.030439402039761587 0 0
          0.041760763944407565 0.041760763944407565 0 0.041760763944407565 0 0
          0.02724966153190271 0.02724966153190271 0 0.02724966153190271 0 0
          0.02875231754497927 0.02875231754497927 0 0.02875231754497927 0 0
          0.022477585508841394 0.022477585508841394 0 0.022477585508841394 0 0
          0.018448282425062454 0.018448282425062454 0 0.018448282425062454 0 0
          0.010303955324881858 0.010303955324881858 0 0.010303955324881858 0 0
          0.01617947273641366 0.01617947273641366 0 0.01617947273641366 0 0
          0.013839273308966473 0.013839273308966473 0 0.013839273308966473 0 0
          0.056517236080934716 0.056517236080934716 0 0.056517236080934716 0 0
          0.01720524870336722 0.01720524870336722 0 0.01720524870336722 0 0
          0.019341417889508595 0.019341417889508595 0 0.019341417889508595 0 0
          0.013287688425415434 0.013287688425415434 0 0.013287688425415434 0 0
          0.04814122160139676 0.04814122160139676 0 0.04814122160139676 0 0
          0.062496821391432464 0.062496821391432464 0 0.062496821391432464 0 0
          0.017989300855683975 0.017989300855683975 0 0.017989300855683975 0 0
          0.03477181065919168 0.03477181065919168 0 0.03477181065919168 0 0
          0.02956480281494695 0.02956480281494695 0 0.02956480281494695 0 0
          0.01831884726535357 0.01831884726535357 0 0.01831884726535357 0 0
          0.02192805147126868 0.02192805147126868 0 0.02192805147126868 0 0
          0.011370343287368722 0.011370343287368722 0 0.011370343287368722 0 0
          0.034926346844173825 0.034926346844173825 0 0.034926346844173825 0 0
          0.021134697807479827 0.021134697807479827 0 0.021134697807479827 0 0
          0.01736811760440569 0.01736811760440569 0 0.01736811760440569 0 0
          0.013573342673195727 0.013573342673195727 0 0.013573342673195727 0 0
          0.008321050306014988 0.008321050306014988 0 0.008321050306014988 0 0
          0.04100711875744206 0.04100711875744206 0 0.04100711875744206 0 0
          0.02007856553481989 0.02007856553481989 0 0.02007856553481989 0 0
          0.011435794782897447 0.011435794782897447 0 0.011435794782897447 0 0
          0.016020701633911814 0.016020701633911814 0 0.016020701633911814 0 0
          0.04094603189217063 0.04094603189217063 0 0.04094603189217063 0 0
          0.025311961600717057 0.025311961600717057 0 0.025311961600717057 0 0
          0.025398785784971994 0.025398785784971994 0 0.025398785784971994 0 0
          0.011725278032051197 0.011725278032051197 0 0.011725278032051197 0 0
          0.024566660074350478 0.024566660074350478 0 0.024566660074350478 0 0
          0.01570035719562799 0.01570035719562799 0 0.01570035719562799 0 0
          0.026753217438404715 0.026753217438404715 0 0.026753217438404715 0 0
          0.018905450542963748 0.018905450542963748 0 0.018905450542963748 0 0
          0.015071239280712734 0.015071239280712734 0 0.015071239280712734 0 0
          0.01206458444969562 0.01206458444969562 0 0.01206458444969562 0 0
          0.019081321642844377 0.019081321642844377 0 0.019081321642844377 0 0
          0.011178197283505772 0.011178197283505772 0 0.011178197283505772 0 0
          0.007287501376415952 0.007287501376415952 0 0.007287501376415952 0 0
          0.007660801246444861 0.007660801246444861 0 0.007660801246444861 0 0
          0.012091099678011983 0.012091099678011983 0 0.012091099678011983 0 0
          0.012869532803410012 0.012869532803410012 0 0.012869532803410012 0 0
          0.030078528351070326 0.030078528351070326 0 0.030078528351070326 0 0
          0.2859818636542064 0.2859818636542064 0 0.2859818636542064 0 0