<?xml version="1.0"?>
<VTKFile type="UnstructuredGrid" version="0.1" byte_order="LittleEndian" header_type="UInt32" compressor="vtkZLibDataCompressor">
  <UnstructuredGrid>
    <Piece NumberOfPoints="94" NumberOfCells="150">
      <PointData>
        <DataArray type="Float64" Name="Velocity" NumberOfComponents="3" format="ascii" RangeMin="1.614724413256168e-23" RangeMax="2.6508667536652486">
          2.4802398217745387 0 0 2.4267379760629053 0.17533065610949805 0
          2.5806172016976805 0.23698930208855032 0 2.159427274416799 0 0
          2.019000782879349 0.24706202113629014 0 2.2749075492320903 0.2663062222944769 0
          2.537886474535696 0.4316415601928208 0 2.109069798992779 0.24295954485020518 0
          1.1793685229858193 0.22998366568688017 0 1.7437150183838668 0 0
          2.273435429955508 0.43300695147294305 0 2.098387752487193 0.3610541180716676 0
          2.464491486245635 0.669793598695472 0 0.36613020736638924 0.20372593791037213 0
          1.364604906472629 0.36127780569773377 0 2.5023476135819553 0.7468964671732577 0
          0.07482744426859807 0.19436155047639944 0 2.2128151317428477 0.6771168030607205 0
          0.5014852747621488 0.26767606283032075 0 1.7806391757334272 0.7326853678218652 0
          -0.006096785563513773 0.002539137921058638 0 2.4288828949491257 1.061895676755155 0
          1.6839339407832756 0.2579000821452099 0 -0.0014814629750992628 0.0008555539715023423 0
          0.9945472431024259 0.5084116304992561 0 2.096391652380004 0.8317664550343341 0
          2.142733280425038 1.3126544677502732 0 -0.0071397156584412196 -0.0006454884866487751 0
          -0.002379945258928177 -0.0017984095184442185 0 2.0560558260383317 1.0476515659624737 0
          1.7709714102712713 1.510838311629996 0 1.381969112161545 0 0
          0.0011913406375200948 -0.0019673040914672474 0 0.0026836583011770132 -0.0014695236642699142 0
          1.8881665074853435 1.332792825240648 0 1.138093248971457 1.6489198038150883 0
          1.6633631387123764 0.5855073842934498 0 0.002486111885963942 -0.0006516176839676933 0
          1.737848133652295 0.9667587371979232 0 1.5848794255892937 1.4987720249798497 0
          0.0009546983918389969 0.0000470180914674403 0 1.1262187387277374 1.5769481763118534 0
          0.3350376767358428 0.7996882366283078 0 1.614724413256168e-23 0 0
          1.5416759063240237 1.084871479956959 0 1.2498868226160007 1.4165958164679227 0
          0.9602491634329232 1.3883987592815619 0 1.445545911188744 0.6965683882211156 0
          1.2621674939743701 0.1815843102994551 0 0.4538743823976777 0.7451030458204456 0
          1.3335358942794397 1.0169610304383028 0 1.093153259242028 1.1534765780113276 0
          1.3639918869794758 0.7892524107681655 0 0.8030724198200501 1.0249427837581522 0
          0.19740725215381674 0 0 1.1554423057363807 0.9366485180873495 0
          1.2937684074379936 0.6131568731597018 0 0.3508197893700983 0.27322268372822256 0
          0.9569364165218379 0.9154040855339115 0 0.6605469642870181 0.5491442048124227 0
          1.2316612200480628 0.366691944743075 0 1.2135152419872055 0.5785576739680189 0
          1.1145271433885122 0 0 1.0478823299217876 0.6624395236236966 0
          0.4993948290019337 0 0 0.8905420921999695 0.612940412109619 0
          0.8303504410626074 0.48136910292822116 0 1.0414917758777125 0.12609368249266184 0
          0.7729146380518803 0.2819972167294818 0 0.7365287855974065 0 0
          1.050712712768755 0.22853016621371783 0 1.0477622440825982 0.35045655422230904 0
          0.9809505151168006 0.32401955745021704 0 0.9518060957523977 0.2549243955119212 0
          0.9097282794318146 0.15242214662769218 0 0.9191965568175823 0 0
          0.9999999999941807 0 0 0.9999999999941807 0 0
          0.9999999999941805 0 0 1.002022804073935 0 0
          0.9999999999941807 0 0 0.9999999999941807 0 0
          0.9999999999941807 0 0 0.9999999999941807 0 0
          2.585952642464974 0.21980263278925416 0 2.6492377851385083 0 0
          0.19771790901085678 0.2719412873941558 0 0.3947328992770996 0.19144358533443961 0
          1.1708403059850743 0.09791416459367669 0 1.2302049821338457 0.13372722623803374 0
          2.0277491981855724 0.16387500713773862 0 2.059596509378288 0.1770316752530056 0
          0.12906066788724102 0.2824278381721675 0 0.001797657167529115 -0.0006296786330052006 0
          <InformationKey name="L2_NORM_RANGE" location="vtkDataArray" length="2">
            <Value index="0">
              1.6147244133e-23
            </Value>
            <Value index="1">
              2.6508667537
            </Value>
          </InformationKey>
        </DataArray>
        <DataArray type="Float64" Name="Pressure" format="ascii" RangeMin="-3.082052994763562" RangeMax="6.11650416407524">
          -1.9951302333622338 -1.8051017223899284 -2.250265107285543 -0.7902265257597383 -2.646825979901677 -0.8704137207370478
          -1.6611078144989515 -2.573619819554262 -2.964603122754514 0.8136828443771543 -2.4218726311051126 0.05039317051553171
          -1.601306028047152 -3.065622811892173 -2.9923558303200033 -1.9844340753786853 -2.9595531039765017 -0.1679697743022504
          -3.082052994763562 -2.7649522075833737 -2.777094489115027 -0.9289572859776588 1.3048681083131448 -2.862177946603817
          -2.6016367330672177 0.4264263964603051 -1.339069099554751 -0.4128231825699121 2.6398596309319053 0.513116347290534
          -1.0352287067593093 2.0705142065189106 4.119896309795035 5.207038387606281 0.5538284207392202 0.9316460034813754
          1.639946741706128 5.834446312616735 1.5294057597199198 1.364844505413076 6.024165731976797 2.8159100558811536
          4.729559158691863 6.09878428251588 2.0408714625253146 2.6185823422573664 3.938536457093914 2.27840506116101
          2.464641980787501 5.474278096721225 2.7140863272390603 3.5838460770199068 2.7013068641868974 4.904017042974996
          6.11650416407524 3.4244460702750232 2.7505109344303897 6.036539057425236 4.3531728858557175 5.7872957718912845
          2.8349536381779834 3.227695006861525 2.8993657249425167 3.9598946318993042 6.02429512684362 4.735831814849974
          5.374802138120772 3.0482515078386694 5.702068847990656 5.746986712479393 3.4150722444077988 3.8733618762633193
          4.548527729562279 5.058148978435416 5.407794200487194 5.565818234997979 3.054074291858795 3.261287700269787
          3.781135988525575 5.456838282266043 4.445445320800316 4.974010687125383 5.293687447364454 5.400238718606908
          -2.8368734389517263 -2.5487687932960674 -2.975238645366694 -2.977881875360577 -2.8487477055725847 -2.8068277147628753
          -2.6050370225708495 -2.7873125858778085 -2.9196398135848898 -2.753525466195463
        </DataArray>
        <DataArray type="Float64" Name="BTraction" NumberOfComponents="3" format="ascii" RangeMin="0" RangeMax="6.064830355005532">
          -0.0029674973148581174 1.8607751425074213 0 0 0 0
          0 0 0 -0.008097968237842274 0.68270236187665 0
          0 0 0 0 0 0
          0 0 0 0 0 0
          0 0 0 -0.008760884482014881 -0.8056884923945998 0
          0 0 0 0 0 0
          0 0 0 0 0 0
          0 0 0 0 0 0
          0 0 0 0 0 0
          0 0 0 0 0 0
          -1.9666926547376964 -0.3673910792500029 0 0 0 0
          0 0 0 -2.7126333007897303 0.834327124965337 0
          0 0 0 0 0 0
          0 0 0 -0.7809687523022864 -0.6119660945124229 0
          -2.5372702646151533 0.5276752320559014 0 0 0 0
          0 0 0 -0.0018667699299422986 -2.042870308539935 0
          -4.024881855270233 1.0720331639709093 0 -4.9976864422632845 1.343008879620936 0
          0 0 0 0 0 0
          0 0 0 -5.640464106772948 1.3536804579335648 0
          0 0 0 0 0 0
          -5.971026491352777 0.9333966644252669 0 0 0 0
          0 0 0 -3.0415895829475974 3.3539481789925927 0
          0 0 0 0 0 0
          0 0 0 0 0 0
          0 0 0 0 0 0
          0 0 0 0 0 0
          0 0 0 0 0 0
          -0.004202916173918511 6.0648288986988055 0 0 0 0
          0 0 0 0 0 0
          0 0 0 0 0 0
          0 0 0 0 0 0
          0.00303370087271579 -2.8142366457962833 0 0 0 0
          -0.006877888586490066 5.932566045448066 0 0 0 0
          0 0 0 0 0 0
          0 0 0 -0.007499705703360597 5.7157650099564945 0
          0 0 0 0 0 0
          0 0 0 0 0 0
          0 0 0 -0.003083178972188617 5.539910509679824 0
          1.559469507242286 -1.513865666118905 0 3.300156249705721 -0.009777573666099255 0
          3.7883903536632633 -0.015889650158631995 0 0.0004573528294453892 5.452716598290632 0
          4.403511657148787 -0.01867767987278222 0 4.933807267768565 -0.017207473348303318 0
          5.257729406363943 -0.008055076638621093 0 3.094224708459134 2.293242765251792 0
          0 0 0 -0.0010751682057105368 2.4686884434607665 0
          0 0 0 0 0 0
          0 0 0 0 0 0
          0 0 0 0 0 0
          0 0 0 -2.6350873331712585 0.7875061234465801 0
          <InformationKey name="L2_NORM_RANGE" location="vtkDataArray" length="2">
            <Value index="0">
              0
            </Value>
            <Value index="1">
              6.064830355
            </Value>
          </InformationKey>
        </DataArray>
        <DataArray type="Float64" Name="ALEdispl" NumberOfComponents="3" format="ascii" RangeMin="0" RangeMax="2.6913629550569134">
          0 0 0 0.8430789433874095 -0.10140925694875293 0
          1.6616587657141142 -0.36002883144102743 0 0 0 0
          2.130137449961186 -0.5792076989606966 0 1.055958897497521 -0.16491487163107962 0
          1.9652492600601172 -0.43871085807435445 0 2.2963289043094233 -0.6065917641662496 0
          2.4556956910315013 -0.6676327736812042 0 0 0 0
          2.4088132408312766 -0.5493607570896357 0 1.362122884762447 -0.20321427773230358 0
          2.289087728697184 -0.420846695737548 0 2.4982764760375074 -0.6911547773058514 0
          2.5839433593937438 -0.5786682624538223 0 2.510614520213094 -0.44182411269630084 0
          2.4039079512306047 -0.6624233641066392 0 2.1433721945662763 -0.2901723356351091 0
          2.598548997726659 -0.5613597288403251 0 2.6608306953300827 -0.4042456760955021 0
          2.4798078940204236 -0.4984178841058641 0 2.553044997839511 -0.28176670284753236 0
          1.1539608673586563 -0.1004356025122292 0 2.016985400570708 -0.42524344900764033 0
          2.649707789240337 -0.3307111626737322 0 2.301842817472571 -0.20309584252749008 0
          2.647675674911106 -0.22312108598733213 0 2.5283667278312647 -0.19041538259500135 0
          2.068208576123069 -0.1187027737479463 0 2.4723765856694677 -0.13702578424085066 0
          2.6036445209211254 -0.11155125371675212 0 0 0 0
          1.5751766648526913 -0.04609148534552966 0 1.0351113945196049 0.023430580139757 0
          2.544637267210738 -0.05287316616613515 0 2.4096071788877182 0.003999904557502826 0
          2.0195343615484145 -0.09122718646275198 0 0.5149193772045115 0.073718393939671 0
          2.35405510175945 -0.02465909150229532 0 2.463051669990457 0.0558642532566215 0
          0.1528979733099589 0.0699971335757589 0 2.066335697488858 0.1363017185210836 0
          1.3467828831843165 0.15664471451096423 0 0 0 0
          2.3527648991696717 0.06828436461093704 0 2.2561521520041303 0.18410212070086857 0
          1.6430011654518741 0.23298446558047733 0 2.11884512961538 0.012493330580698491 0
          0.9765296353485081 -0.1373386789427241 0 0.9231726498539812 0.26354193147386323 0
          2.234724574529612 0.17183138081782007 0 1.9216004495894528 0.30512637222468675 0
          2.1193265177591085 0.11658130643491624 0 1.2884609767203639 0.34487381158784336 0
          0 0 0 2.0160316448863145 0.2935327047278995 0
          1.9053006227515235 0.08675327403763046 0 0.24796817963784484 0.18867926987588995 0
          1.5569319366074452 0.38964645975194206 0 0.5910615866450568 0.3047051087527151 0
          1.5210540328248912 -0.05242140314731226 0 1.8608087772560995 0.17960111998563671 0
          0 0 0 1.6930609417911595 0.3777119450662047 0
          0 0 0 1.2282735955552084 0.4561165131618708 0
          0.7985952778511956 0.4477124416081198 0 0.7849929411769936 -0.17254354284518503 0
          0.3795988154256239 0.29288811822517 0 0 0 0
          0.9666192961303505 0.021410331937753962 0 1.1211937544874506 0.2337973066021122 0
          0.8994012825542003 0.36513379535228263 0 0.6631230198851732 0.40066941493358693 0
          0.3724486728694595 0.31528353172466594 0 0 0 0
          0 0 0 0 0 0
          0 0 0 0 0 0
          0 0 0 0 0 0
          0 0 0 0 0 0
          1.3708938264684398 -0.14721796887249067 0 0 0 0
          2.3231823713208817 -0.784083442767442 0 2.3765432980423475 -0.7650448886772908 0
          2.312308287102363 -0.700492148331331 0 2.14866163150032 -0.6741445005609612 0
          1.9190474824489856 -0.4990581343840839 0 1.7258488305114041 -0.3963136132329136 0
          2.1032827596246157 -0.7206643681899425 0 1.51431303415234 -0.34369331911415574 0
          <InformationKey name="L2_NORM_RANGE" location="vtkDataArray" length="2">
            <Value index="0">
              0
            </Value>
            <Value index="1">
              2.6913629551
            </Value>
          </InformationKey>
        </DataArray>
        <DataArray type="Float64" Name="ALEveloc" NumberOfComponents="3" format="ascii" RangeMin="0" RangeMax="0.03429286243244189">
          0 0 0 -0.009098977315616263 0.004446246409315652 0
          -0.017995459851200213 0.010479245876134358 0 0 0 0
          -0.023257552320199437 0.015163025605887115 0 -0.012312954046647784 0.005059929769872351 0
          -0.022866769244685337 0.011956994155693401 0 -0.02574699846063666 0.01605324378796269 0
          -0.027275693120471622 0.017846020658734973 0 0 0 0
          -0.0278887866182842 0.015272918661071944 0 -0.016828534671264883 0.005279980974828347 0
          -0.027380655064028314 0.012025580279813264 0 -0.027201322496133606 0.018849355121096423 0
          -0.029688015945843027 0.016784138532022652 0 -0.030071624164685673 0.01324670922613358 0
          -0.025000991456225474 0.018710279625891113 0 -0.026422560489073987 0.008373697365193222 0
          -0.02909485003044887 0.01703401225107848 0 -0.031483750405565836 0.013593155417724656 0
          -0.02590734724212318 0.015741034663183884 0 -0.031092678329214696 0.01045414503814468 0
          -0.014579831155161482 0.0025279914004299464 0 -0.017546387537926034 0.01229253635034444 0
          -0.030246441875673824 0.012413731196075806 0 -0.028568340286884375 0.007957431973383888 0
          -0.031561130546805316 0.010010296979958089 0 -0.02781648785049695 0.009909094626152803 0
          -0.01918326527691061 0.007187147326073368 0 -0.030534480530772345 0.007735000534000336 0
          -0.02996154921143024 0.008083005705038504 0 0 0 0
          -0.012230673563290217 0.005056684498462916 0 -0.007255023237119573 0.003148199471674634 0
          -0.03050153813515477 0.006574045792388156 0 -0.02627024579173831 0.00583840467384514 0
          -0.02578464532870761 0.005659049372864405 0 -0.0036760969908695706 0.0014740225277660723 0
          -0.029175777294343064 0.0054710229285341305 0 -0.028477070073173127 0.004632489675661669 0
          -0.0012109706282889265 0.000318752689273602 0 -0.020868894184202347 0.003469935162698168 0
          -0.010856578887351809 0.0025993842396981326 0 0 0 0
          -0.02839383611197599 0.003926087358145966 0 -0.024896615968447833 0.002402559578951191 0
          -0.01528529695037717 0.0018923232312006433 0 -0.0266243950748426 0.0041598435204561225 0
          -0.012748446167630823 0.0039934026364733255 0 -0.0071664995777336316 0.0009195744254251181 0
          -0.026204416401011343 0.002079154585413301 0 -0.019944169492771113 0.0005171972046985052 0
          -0.02589038759648732 0.0025436599240881153 0 -0.011297659208588717 0.00016140469169090288 0
          0 0 0 -0.02253942670023701 0.00017988882269814876 0
          -0.02379904781391895 0.002506328032624544 0 -0.0019104507575327112 -0.00043386055619620834 0
          -0.015375884620983271 -0.0007978383277985612 0 -0.004580745404721087 -0.0004627350158047383 0
          -0.020240135649742363 0.003819959220642752 0 -0.022729452207184142 0.0008908366066694429 0
          0 0 0 -0.018574418632077982 -0.00152862164093015 0
          0 0 0 -0.011703277798607248 -0.0021986592941880545 0
          -0.006748374948797986 -0.0021755530023320757 0 -0.01100053019861047 0.004044631874059346 0
          -0.002965085869949702 -0.0014224804928745782 0 0 0 0
          -0.012572747507328286 0.0011764292629580578 0 -0.013230998531012395 -0.0012877230937386464 0
          -0.009498511128382292 -0.0027988277567847497 0 -0.006084575153436855 -0.0030144102696983976 0
          -0.0030369467516929705 -0.0022728585180589733 0 0 0 0
          0 0 0 0 0 0
          0 0 0 0 0 0
          0 0 0 0 0 0
          0 0 0 0 0 0
          -0.014191736592280346 0.006256788844086342 0 0 0 0
          -0.02417228388093262 0.019695080968278322 0 -0.025357335681948978 0.01912391449347517 0
          -0.02504230588695666 0.017636818456291836 0 -0.02286178716957865 0.01636536573739389 0
          -0.02045399061633235 0.01305314349834319 0 -0.018079988533449942 0.010863378835183068 0
          -0.0204104351399943 0.018195280929931057 0 -0.010956195674757918 0.00848997989628164 0
          <InformationKey name="L2_NORM_RANGE" location="vtkDataArray" length="2">
            <Value index="0">
              0
            </Value>
            <Value index="1">
              0.034292862432
            </Value>
          </InformationKey>
        </DataArray>
      </PointData>
      <CellData>
        <DataArray type="UInt8" Name="vtkGhostType" format="ascii" RangeMin="0" RangeMax="1">
          0 0 0 0 0 0
          0 0 1 0 0 1
          0 1 0 0 1 1
          1 0 0 0 0 0
          1 1 0 1 1 0
          1 1 0 1 0 0
          0 0 0 0 0 0
          0 0 0 0 0 0
          0 0 0 0 0 0
          0 0 0 0 0 0
          0 0 0 0 0 0
          0 0 0 0 0 0
          0 0 0 0 0 0
          0 0 0 0 0 0
          0 1 0 0 0 0
          0 0 0 1 0 0
          0 0 0 0 0 1
          0 0 0 0 0 0
          0 0 0 0 0 0
          0 0 0 0 0 0
          0 0 0 0 0 0
          0 0 0 0 0 0
          0 1 0 0 0 0
          0 0 0 0 0 0
          0 0 0 0 0 0
        </DataArray>
        <DataArray type="Float64" Name="PStrain" NumberOfComponents="6" format="ascii" RangeMin="0.006890439243410749" RangeMax="2.3532331493841956">
          0.01034384149131062 0.01034384149131062 0 0.01034384149131062 0 0
          0.012563172952475015 0.012563172952475015 0 0.012563172952475015 0 0
          0.01535908376796261 0.01535908376796261 0 0.01535908376796261 0 0
          0.012330692493716235 0.012330692493716235 0 0.012330692493716235 0 0
          0.008978429590567872 0.008978429590567872 0 0.008978429590567872 0 0
          0.008557389506239714 0.008557389506239714 0 0.008557389506239714 0 0
          0.007784682451477171 0.007784682451477171 0 0.007784682451477171 0 0
          0.010996174503269809 0.010996174503269809 0 0.010996174503269809 0 0
          0.009428260315998045 0.009428260315998045 0 0.009428260315998045 0 0
          0.007758497522992723 0.007758497522992723 0 0.007758497522992723 0 0
          0.009656007482748514 0.009656007482748514 0 0.009656007482748514 0 0
          0.006003045966539885 0.006003045966539885 0 0.006003045966539885 0 0
          0.007402106276201314 0.007402106276201314 0 0.007402106276201314 0 0
          0.004921086933594487 0.004921086933594487 0 0.004921086933594487 0 0
          0.07936119662685041 0.07936119662685041 0 0.07936119662685041 0 0
          0.05352408216588626 0.05352408216588626 0 0.05352408216588626 0 0
          0.09352315974658296 0.09352315974658296 0 0.09352315974658296 0 0
          0.09550174584206272 0.09550174584206272 0 0.09550174584206272 0 0
          0.04735210617135828 0.04735210617135828 0 0.04735210617135828 0 0
          0.05494877977763256 0.05494877977763256 0 0.05494877977763256 0 0
          0.04234803112918936 0.04234803112918936 0 0.04234803112918936 0 0
          0.02443150196120927 0.02443150196120927 0 0.02443150196120927 0 0
          0.020802611250410108 0.020802611250410108 0 0.020802611250410108 0 0
          0.024453850843314962 0.024453850843314962 0 0.024453850843314962 0 0
          0.0434585547498015 0.0434585547498015 0 0.0434585547498015 0 0
          0.025547548502174146 0.025547548502174146 0 0.025547548502174146 0 0
          0.02205633338012878 0.02205633338012878 0 0.02205633338012878 0 0
          0.029383377768881974 0.029383377768881974 0 0.029383377768881974 0 0
          0.01778651312118871 0.01778651312118871 0 0.01778651312118871 0 0
          0.025413902202824058 0.025413902202824058 0 0.025413902202824058 0 0
          0.016011194203429613 0.016011194203429613 0 0.016011194203429613 0 0
          0.013684418461924527 0.013684418461924527 0 0.013684418461924527 0 0
          0.015376607438227163 0.015376607438227163 0 0.015376607438227163 0 0
          0.007210868609895751 0.007210868609895751 0 0.007210868609895751 0 0
          0.09999999999999999 0.09999999999999999 0 0.09999999999999999 0 0
          0.005073852484948135 0.005073852484948135 0 0.005073852484948135 0 0
          0.012113874355191298 0.012113874355191298 0 0.012113874355191298 0 0
          0.007781672525263182 0.007781672525263182 0 0.007781672525263182 0 0
          0.005757819589636537 0.005757819589636537 0 0.005757819589636537 0 0
          0.014727308613956918 0.014727308613956918 0 0.014727308613956918 0 0
          0.029089764856359453 0.029089764856359453 0 0.029089764856359453 0 0
          0.03474824449229754 0.03474824449229754 0 0.03474824449229754 0 0
          0.013993112480734444 0.013993112480734444 0 0.013993112480734444 0 0
          0.04532842235339339 0.04532842235339339 0 0.04532842235339339 0 0
          0.020745436483775644 0.020745436483775644 0 0.020745436483775644 0 0
          0.058913979724362686 0.058913979724362686 0 0.058913979724362686 0 0
          0.01303446351129019 0.01303446351129019 0 0.01303446351129019 0 0
          0.008467717993062188 0.008467717993062188 0 0.008467717993062188 0 0
          0.052398226051461064 0.052398226051461064 0 0.052398226051461064 0 0
          0.03345201298022306 0.03345201298022306 0 0.03345201298022306 0 0
          0.0390220030668928 0.0390220030668928 0 0.0390220030668928 0 0
          0.02580806394820056 0.02580806394820056 0 0.02580806394820056 0 0
          0.010632556778779043 0.010632556778779043 0 0.010632556778779043 0 0
          0.01639582504302472 0.01639582504302472 0 0.01639582504302472 0 0
          0.03129703472817196 0.03129703472817196 0 0.03129703472817196 0 0
          0.03136638555809743 0.03136638555809743 0 0.03136638555809743 0 0
          0.028918994048089307 0.028918994048089307 0 0.028918994048089307 0 0
          0.013894469103048604 0.013894469103048604 0 0.013894469103048604 0 0
          0.017890160317149857 0.017890160317149857 0 0.017890160317149857 0 0
          0.012783428438145259 0.012783428438145259 0 0.012783428438145259 0 0
          0.004478105986204564 0.004478105986204564 0 0.004478105986204564 0 0
          0.007893188412320748 0.007893188412320748 0 0.007893188412320748 0 0
          0.014395211354223773 0.014395211354223773 0 0.014395211354223773 0 0
          0.011697945055440175 0.011697945055440175 0 0.011697945055440175 0 0
          0.009721188704161828 0.009721188704161828 0 0.009721188704161828 0 0
          0.006591768708457195 0.006591768708457195 0 0.006591768708457195 0 0
          0.003978196952017957 0.003978196952017957 0 0.003978196952017957 0 0
          1.3586397922629163 1.3586397922629163 0 1.3586397922629163 0 0
          0.8741636140215645 0.8741636140215645 0 0.8741636140215645 0 0
          0.892173765821483 0.892173765821483 0 0.892173765821483 0 0
          0.9294131432042161 0.9294131432042161 0 0.9294131432042161 0 0
          0.21876936962376686 0.21876936962376686 0 0.21876936962376686 0 0
          0.24579717892978675 0.24579717892978675 0 0.24579717892978675 0 0
          1.1840120532438312 1.1840120532438312 0 1.1840120532438312 0 0
          0.5935530494844213 0.5935530494844213 0 0.5935530494844213 0 0
          0.15632138151290775 0.15632138151290775 0 0.15632138151290775 0 0
          0.24105209780754422 0.24105209780754422 0 0.24105209780754422 0 0
          0.06307109752291094 0.06307109752291094 0 0.06307109752291094 0 0
          0.3133522322450558 0.3133522322450558 0 0.3133522322450558 0 0
          0.2161161647963426 0.2161161647963426 0 0.2161161647963426 0 0
          0.20542236407294495 0.20542236407294495 0 0.20542236407294495 0 0
          0.5800109024464855 0.5800109024464855 0 0.5800109024464855 0 0
          0.1634149016609941 0.1634149016609941 0 0.1634149016609941 0 0
          0.2555686250599411 0.2555686250599411 0 0.2555686250599411 0 0
          0.12776480228624645 0.12776480228624645 0 0.12776480228624645 0 0
          0.2818666805986026 0.2818666805986026 0 0.2818666805986026 0 0
          0.08637003771052751 0.08637003771052751 0 0.08637003771052751 0 0
          0.0571866200770713 0.0571866200770713 0 0.0571866200770713 0 0
          0.37818825213599805 0.37818825213599805 0 0.37818825213599805 0 0
          0.07372171343956499 0.07372171343956499 0 0.07372171343956499 0 0
          0.02273038441177348 0.02273038441177348 0 0.02273038441177348 0 0
          0.08429759267585095 0.08429759267585095 0 0.08429759267585095 0 0
          0.028788232745078544 0.028788232745078544 0 0.028788232745078544 0 0
          0.2599404893935845 0.2599404893935845 0 0.2599404893935845 0 0
          0.15111425397308928 0.15111425397308928 0 0.15111425397308928 0 0
          0.08456069290685178 0.08456069290685178 0 0.08456069290685178 0 0
          0.3217230960298153 0.3217230960298153 0 0.3217230960298153 0 0
          0.09652781103409222 0.09652781103409222 0 0.09652781103409222 0 0
          0.05452928052772901 0.05452928052772901 0 0.05452928052772901 0 0
          0.15193412085194033 0.15193412085194033 0 0.15193412085194033 0 0
          0.0775521693772554 0.0775521693772554 0 0.0775521693772554 0 0
          0.15229940067072942 0.15229940067072942 0 0.15229940067072942 0 0
          0.03495069422621966 0.03495069422621966 0 0.03495069422621966 0 0
          0.18620645736892855 0.18620645736892855 0 0.18620645736892855 0 0
          0.1739361167232574 0.1739361167232574 0 0.1739361167232574 0 0
          0.1962566070207319 0.1962566070207319 0 0.1962566070207319 0 0
          0.033700510645564515 0.033700510645564515 0 0.033700510645564515 0 0
          0.030569949918171142 0.030569949918171142 0 0.030569949918171142 0 0
          0.1538242497082286 0.1538242497082286 0 0.1538242497082286 0 0
          0.09267174769593843 0.09267174769593843 0 0.09267174769593843 0 0
          0.08738418092935182 0.08738418092935182 0 0.08738418092935182 0 0
          0.028591433651657873 0.028591433651657873 0 0.028591433651657873 0 0
          0.1826570590278478 0.1826570590278478 0 0.1826570590278478 0 0
          0.046507134032429336 0.046507134032429336 0 0.046507134032429336 0 0
          0.0737364479584825 0.0737364479584825 0 0.0737364479584825 0 0
          0.05116520542025675 0.05116520542025675 0 0.05116520542025675 0 0
          0.07498454160255752 0.07498454160255752 0 0.07498454160255752 0 0
          0.059171126889974904 0.059171126889974904 0 0.059171126889974904 0 0
          0.03875651151164989 0.03875651151164989 0 0.03875651151164989 0 0
          0.08871972048420099 0.08871972048420099 0 0.08871972048420099 0 0
          0.10512354091473977 0.10512354091473977 0 0.10512354091473977 0 0
          0.09734135347437259 0.09734135347437259 0 0.09734135347437259 0 0
          0.015536575375554782 0.015536575375554782 0 0.015536575375554782 0 0
          0.10930388844167267 0.10930388844167267 0 0.10930388844167267 0 0
          0.09554762797507073 0.09554762797507073 0 0.09554762797507073 0 0
          0.029354514930729693 0.029354514930729693 0 0.029354514930729693 0 0
          0.05211256004391394 0.05211256004391394 0 0.05211256004391394 0 0
          0.06977703903704463 0.06977703903704463 0 0.06977703903704463 0 0
          0.07180323476275438 0.07180323476275438 0 0.07180323476275438 0 0
          0.27295796425060426 0.27295796425060426 0 0.27295796425060426 0 0
          0.032600336466933284 0.032600336466933284 0 0.032600336466933284 0 0
          0.017566253288856425 0.017566253288856425 0 0.017566253288856425 0 0
          0.05945140140113153 0.05945140140113153 0 0.05945140140113153 0 0
          0.263858894550412 0.263858894550412 0 0.263858894550412 0 0
          0.07644174263847114 0.07644174263847114 0 0.07644174263847114 0 0
          0.12296193001371086 0.12296193001371086 0 0.12296193001371086 0 0
          0.11936207248683109 0.11936207248683109 0 0.11936207248683109 0 0
          0.057568509600401455 0.057568509600401455 0 0.057568509600401455 0 0
          0.018682020545298376 0.018682020545298376 0 0.018682020545298376 0 0
          0.01562846219130295 0.01562846219130295 0 0.01562846219130295 0 0
          0.0393896470385206 0.0393896470385206 0 0.0393896470385206 0 0
          0.012113874355191305 0.012113874355191305 0 0.012113874355191305 0 0
          0.0843449413847968 0.0843449413847968 0 0.0843449413847968 0 0
          0.01575400730835337 0.01575400730835337 0 0.01575400730835337 0 0
          0.04397375636191576 0.04397375636191576 0 0.04397375636191576 0 0
          0.02720493645803428 0.02720493645803428 0 0.02720493645803428 0 0
          0.027114868972502017 0.027114868972502017 0 0.027114868972502017 0 0
          0.03872802792304982 0.03872802792304982 0 0.03872802792304982 0 0
          0.0414831213396449 0.0414831213396449 0 0.0414831213396449 0 0
          0.02755224531287294 0.02755224531287294 0 0.02755224531287294 0 0