<?xml version="1.0"?>
<VTKFile type="UnstructuredGrid" version="0.1" byte_order="LittleEndian" header_type="UInt32" compressor="vtkZLibDataCompressor">
  <UnstructuredGrid>
    <Piece NumberOfPoints="97" NumberOfCells="154">
      <PointData>
        <DataArray type="Float64" Name="Velocity" NumberOfComponents="3" format="ascii" RangeMin="0" RangeMax="2.7931396507607205">
          1.052671752231473 0.020349120384289883 0 1.0962885016583006 0 0
          0.9707815244242234 -0.013405932884513576 0 0.9792064964186644 -0.020561588954900553 0
          0.9698646155080194 -0.018274395267495108 0 1.2012063181437562 0 0
          0.9862513529538625 0.0006574895789459499 0 0.9560984436278143 0 0
          0.961847680208377 0.008220457465662703 0 0.9357719248607821 -0.04766119662611587 0
          1.4021152279857907 0 0 0.928864191433726 0 0
          0.8160893895956599 0 0 2.001126902072906 0 0
          0.9073359283351636 -0.6222115162739004 0 1.9206300052553713 -0.4301918276475179 0
          0.17324599958724432 0 0 2.5751461616068396 0 0
          0.12316915753581947 -0.5548286443264644 0 1.2074957955640444 -0.5721767120874415 0
          2.450968799216155 -0.19241394319078942 0 -0.4009345096652187 0 0
          2.752301186581509 0 0 -0.37936005213082147 -0.48815519776649935 0
          1.1268527852265624 -0.3469037091934434 0 2.702450509328568 -0.0611581147514174 0
          -1.037772115815431 0 0 2.7547357555108527 0 0
          -0.6785416390693971 -0.06615383436593182 0 1.7301153581589885 -0.14024078160289266 0
          0.2221330555320666 -0.016182975175750625 0 2.7931217838987825 0.009990443523870778 0
          -1.1100875124645269 0 0 2.707369360924433 0 0
          2.059044337663422 -0.09891786993228982 0 0.37520950957639637 0.13781315312972636 0
          -0.6604006164961235 0.12739172780455646 0 -0.9573437298435505 0 0
          2.747106576343032 0.10752945052893514 0 0.8121335386366564 0.20466735919793333 0
          -0.20132923434441524 0.32047381501852684 0 2.0894753269781496 0.1189849020867138 0
          -0.5576393827990208 0.20669089578080205 0 0.33036708485851063 0.37545505198352624 0
          0.6647570242466454 0.28392870440402207 0 0.0545432762878046 0.41222699386124756 0
          -0.6751979644685379 0 0 1.2662276904866903 0.1495376199571963 0
          -0.3050298385247682 0.32028826872430066 0 2.025426893908363 0.22150661845675113 0
          0.3039395318260847 0.41247236209449234 0 -0.4871810760396143 0.1686063518363326 0
          -0.09981214862523285 0.39032846569882107 0 0.46695848784071403 0.2948739221298624 0
          -0.36772035427410854 0.2826776480993471 0 0.10215095509649691 0.41924399673798574 0
          1.0825473689330678 0.253348482543795 0 -0.203780236743083 0.35866984218716397 0
          0.24895181493793023 0.3770981823848394 0 -0.40165031052192773 0 0
          -0.03156083813013868 0.4004219207842723 0 -0.3136613337350684 0.16932596002101516 0
          0.3637395909631981 0.2971531088485571 0 -0.23237597970012197 0.26519490443466254 0
          0.11755630449840493 0.4077338067818426 0 1.0175496727434066 0.26372606948737687 0
          -0.10744493432281159 0.3288322498046582 0 0.2021257561087413 0.3790927661409976 0
          0.03099287437563972 0.36827475242550883 0 0.2794638408746168 0.3109684591346602 0
          -0.1769899763164911 0.1442902137917344 0 0.13008980664692776 0.36599750401334213 0
          -0.2092428650705266 0 0 -0.1221422230086508 0.21927862742181412 0
          0.15240699062469434 0.30796562781770465 0 -0.01919776578383413 0.29096115018681423 0
          0.05851178177711166 0.29770267851461313 0 0.0941817523724479 0.269485086075397 0
          -0.08012482765519194 1.452703323302416e-23 0 -0.026749860097728374 0.17225257560146442 0
          0.02876647225376529 0.16721080194306834 0 -0.025358106655315245 0.0593605337784894 0
          -0.013327505367857019 -0.006696828927207108 0 -0.021892882781922557 -2.3281742640968526e-23 0
          -0.00750257326747354 -0.006992117741266332 0 -0.003923027571147974 -0.005478179637881041 0
          -0.0018034129848645095 -0.0026923511715486403 0 0 0 0
          2.601855560279897 0.1834488548828337 0 2.711856117348648 0.29265442311121853 0
          2.6214711781679583 0 0 0.28960528364285004 0.26734554721763615 0
          1.0249084502122996 0.3521329662002037 0 2.011479230948362 0.38231849050793265 0
          1.9682776054734608 0.37882008806825196 0 0.06232453632145343 0.19391432332130884 0
          -0.02289228516243273 -0.0035728541175229214 0
          <InformationKey name="L2_NORM_RANGE" location="vtkDataArray" length="2">
            <Value index="0">
              0
            </Value>
            <Value index="1">
              2.7931396508
            </Value>
          </InformationKey>
        </DataArray>
        <DataArray type="Float64" Name="Pressure" format="ascii" RangeMin="-3.987563454216021" RangeMax="0.060760839436306065">
          -0.05323811001886446 -0.03164850166762263 -0.008757167448881213 -0.052291649856143194 -0.06595210493713505 0.00563009959888857
          -0.0012385732919230395 -0.05856428413770057 -0.12700244563054428 -0.16043052738989044 -0.19937322165932808 -0.12955592342654493
          0.060760839436306065 -0.46003010616351014 -0.4484803861059393 -1.3530350942493135 -0.22935185057205124 -1.8956142312540711
          -1.1231819593531935 -2.2668279922952768 -2.427481195707797 -1.3116492344122692 -2.8030860532291637 -2.422737694114198
          -3.611384719495921 -3.0356647183988033 -2.90226328599039 -3.002024582067666 -3.668732261497748 -3.8231372161489703
          -3.987563454216021 -3.1180462681086634 -3.602101406656821 -2.7864491301626413 -3.6464987916206835 -3.982828473847786
          -3.870754646947226 -3.501945399380464 -3.1338834900095596 -3.715783767841729 -3.689292952209243 -3.222099855654004
          -3.3780497854983573 -3.5633927895211155 -3.451485866290672 -3.454661134528555 -3.1938718991125405 -3.286896329047582
          -3.3346856694929374 -3.035871886147288 -3.3676933830516793 -3.153544633792185 -3.300161714322751 -3.2654251575177353
          -3.156048980025166 -3.2546182762680154 -3.159263794887745 -3.1584889022609506 -3.1814250307486214 -2.998867926064902
          -3.1406192976113454 -3.0148155539793464 -3.098083109078333 -3.0240359975649618 -3.1042858157474837 -2.9657321485092853
          -3.029035236199797 -3.0518143288720996 -3.020299069433044 -2.9776828693906463 -2.9391432704756646 -2.9927757417120833
          -2.927462342684734 -2.9407502237663876 -2.945233171117866 -2.943005622690909 -2.9233409667637082 -2.8872354063708126
          -2.9174957329932516 -2.905048133609292 -2.8911125825014015 -2.912463155614922 -2.846871874799988 -2.9234370541764765
          -2.8647101789074196 -2.90409378889225 -2.9250917895902866 -2.927764047277534 -1.9635133086433878 -2.553305602528108
          -2.1995182230350534 -2.8731895620883843 -2.8349580826281313 -2.631939392452003 -2.9249960663987857 -2.8026665744400088
          -2.8111240867972036
        </DataArray>
        <DataArray type="Float64" Name="BTraction" NumberOfComponents="3" format="ascii" RangeMin="0" RangeMax="3.491512753518823">
          0.02040388373935447 0.023237723379335946 0 0.0034895084492767296 0.03028251605471979 0
          0.014074343752746826 0.0010084231442274278 0 0 0 0
          0 0 0 0.006867018667852169 0.03643847439694667 0
          0.0018819881736830235 -0.008954640979039327 0 -0.0005855669859776688 -0.059582577244290086 0
          0 0 0 0 0 0
          0.014986229773644676 0.22221826176258175 0 -0.0009057386633772694 -0.08564772010349464 0
          -0.007536031829711191 -0.007151251044221156 0 0.020260085087630064 0.6548737121170493 0
          0 0 0 0 0 0
          -0.013567980782729125 -0.3016559531018991 0 0.015517375695307967 1.7861090936711663 0
          0 0 0 0 0 0
          0 0 0 -0.014026954179782131 -1.2868852622819011 0
          0.00716252630062769 2.6825484377166835 0 0 0 0
          0 0 0 0 0 0
          -0.01756832719589305 -2.6893105446879937 0 0.0001247961216306021 2.9363067903828903 0
          0 0 0 0 0 0
          0 0 0 0 0 0
          -0.01974296070113021 -3.463813907092685 0 -0.0031209868378138683 2.7247903073078055 0
          0 0 0 0 0 0
          0 0 0 -0.015761108086508113 -3.4914771795697703 0
          0 0 0 0 0 0
          0 0 0 0 0 0
          0 0 0 0 0 0
          0 0 0 0 0 0
          -0.011321431278034214 -3.256641668784107 0 0 0 0
          0 0 0 0 0 0
          0 0 0 0 0 0
          0 0 0 0 0 0
          0 0 0 0 0 0
          0 0 0 0 0 0
          0 0 0 -0.007999944891568099 -3.0593585599523543 0
          0 0 0 0 0 0
          0 0 0 0 0 0
          0 0 0 0 0 0
          0 0 0 0 0 0
          0 0 0 0 0 0
          0 0 0 0 0 0
          -0.004014722454122128 -2.9688611755698 0 0 0 0
          0 0 0 0 0 0
          0 0 0 0 0 0
          -0.0014716909740913173 -2.939902932895868 0 0 0 0
          0 0 0 0 0 0
          -2.729551292387894 0.8067555410478577 0 -0.00039387047213847886 -2.928838939796384 0
          -2.7557655404800383 0.7649959885662525 0 -2.808023614097371 0.6759528015518399 0
          -2.874566557375179 0.45105056194875925 0 -1.4032747379157657 -1.3771970923925867 0
          0 0 0 0 0 0
          -0.005537680634307624 2.0403096673425334 0 0 0 0
          0 0 0 0 0 0
          0 0 0 0 0 0
          -2.6638732609299147 0.8097246567533128 0
          <InformationKey name="L2_NORM_RANGE" location="vtkDataArray" length="2">
            <Value index="0">
              0
            </Value>
            <Value index="1">
              3.4915127535
            </Value>
          </InformationKey>
        </DataArray>
        <DataArray type="Float64" Name="ALEdispl" NumberOfComponents="3" format="ascii" RangeMin="0" RangeMax="2.551497554853661">
          0 0 0 0 0 0
          0 0 0 0.20195150298327644 0.03365504722295878 0
          0.13210791703370064 -0.05206300589270713 0 0 0 0
          0 0 0 0 0 0
          0.18866900628965938 -0.018357437943998772 0 0.32228807410081384 0.004213207429462091 0
          0 0 0 0 0 0
          0 0 0 0 0 0
          0.5692942258900625 0.008597234732615434 0 0.412348854862516 0.06872607302755482 0
          0 0 0 0 0 0
          0.4219418626858298 -0.1345835471823185 0 0.8301197061899223 -0.05993546377500767 0
          0.4422371432946137 0.09305351128018628 0 0 0 0
          0 0 0 0.46969666661978215 -0.19978532235293273 0
          1.0622183128446814 -0.15129247164258822 0 0.5447930319683517 0.08688375978909688 0
          0 0 0 0 0 0
          0.6012854281678317 -0.270044205462581 0 1.1852960203449423 -0.1902750453087122 0
          1.1439686377691585 -0.3693320996494335 0 0.7138314502107957 0.04923267672056986 0
          0 0 0 0 0 0
          1.3070252423048405 -0.24656859430775097 0 1.4111072996134844 -0.5257769091469864 0
          0.8124538773354754 -0.4560121753655117 0 0 0 0
          1.3509443043255223 -0.1439372303151388 0 1.7530021318911808 -0.5902821379727435 0
          1.3935554079371115 -0.7694382852046355 0 1.700434394752589 -0.3892301433485012 0
          0.7018353390663304 -0.504353176928657 0 1.7358709119284947 -0.7656568893219349 0
          1.9175170907969412 -0.6756012005321912 0 1.654893123827667 -0.8422402172904438 0
          0 0 0 1.9234093856412058 -0.591291669130582 0
          1.1365523951724756 -0.7468421658598483 0 1.8908869680610716 -0.49014253157253107 0
          1.8962098615413518 -0.82334383084653 0 0.47929145548807645 -0.38047209099344786 0
          1.4674552137031551 -0.8582302195627254 0 2.062869610746176 -0.7515751102129293 0
          0.864002665475172 -0.6388528817361677 0 1.7871367500344684 -0.8909086970279178 0
          2.1165128187398237 -0.6624520736617981 0 1.2365116951142834 -0.8122544362100745 0
          2.040610809659701 -0.8556632340473979 0 0 0 0
          1.5881834357288873 -0.8847778447455961 0 0.5447210723608061 -0.448433968148042 0
          2.208151309436635 -0.7763320856225521 0 0.9211722298194889 -0.6819177206499345 0
          1.909434799478387 -0.8881469620922763 0 2.2776954537082443 -0.6878818482084766 0
          1.3006966743921942 -0.8019695012408556 0 2.1705636341613816 -0.8368659992304399 0
          1.6723769755216844 -0.8410472911524476 0 2.3400469210732155 -0.7511199186897218 0
          0.552823524992617 -0.45889837916451204 0 2.0097994635158525 -0.8311170739551275 0
          0 0 0 0.9207702473397379 -0.6285883003773961 0
          2.2863054649995544 -0.76947423474448 0 1.3167751996867272 -0.7041807803557207 0
          1.667302343516667 -0.6939742712229845 0 2.068261436148281 -0.7063137948806376 0
          0 0 0 0.8976153806335104 -0.4968563820657344 0
          1.304761933544351 -0.506892952833596 0 0.3699263286516707 -0.2673222435819057 0
          1.4854250752197256 -0.33323393989181366 0 0 0 0
          0.9435839294826607 -0.24413002488977673 0 0.4667198661873397 -0.15808408848241892 0
          0.1371210833457661 -0.0802473396700138 0 0 0 0
          0.8311095515445565 -0.0989309010543524 0 1.6377634770038356 -0.3531693640652587 0
          0 0 0 2.4599369248571996 -0.6773847489782423 0
          2.4189813650940972 -0.6547407726992257 0 2.26269753689188 -0.5950977183415604 0
          2.0988895042600717 -0.5687048655636041 0 2.365568648645801 -0.6484677039301319 0
          1.9819136624951041 -0.4132836648896141 0
          <InformationKey name="L2_NORM_RANGE" location="vtkDataArray" length="2">
            <Value index="0">
              0
            </Value>
            <Value index="1">
              2.5514975549
            </Value>
          </InformationKey>
        </DataArray>
        <DataArray type="Float64" Name="ALEveloc" NumberOfComponents="3" format="ascii" RangeMin="0" RangeMax="0.05632370914937802">
          0 0 0 0 0 0
          0 0 0 -0.004165890915476755 -0.0006966566660752127 0
          -0.0027241798203057055 0.0010716849754309615 0 0 0 0
          0 0 0 0 0 0
          -0.0038914753405679403 0.0003756161295828675 0 -0.006648092335422517 -0.00009369238924265486 0
          0 0 0 0 0 0
          0 0 0 0 0 0
          -0.011756774598602027 -0.00010892160804804041 0 -0.008542637528545116 -0.001318388031743195 0
          0 0 0 0 0 0
          -0.008679910696344217 0.0028863330079677563 0 -0.01715923943911135 0.001377786396264305 0
          -0.009085513861548988 -0.0016849541570288507 0 0 0 0
          0 0 0 -0.009696979166141206 0.0042926584138496815 0
          -0.02200173974287467 0.003477111142707323 0 -0.011062592370002955 -0.0014477169450372307 0
          0 0 0 0 0 0
          -0.012495755149311671 0.00571683489761432 0 -0.02442640450351674 0.004276052701699562 0
          -0.023843776832299213 0.007612647863804112 0 -0.014190096011277076 -0.0005185351586018405 0
          0 0 0 0 0 0
          -0.02689082655548125 0.005323730446155972 0 -0.029534949695690038 0.010823857536972126 0
          -0.017278431946279982 0.00930815669224705 0 0 0 0
          -0.026504290469718583 0.004023700751760867 0 -0.036655294193170374 0.012080885846695089 0
          -0.030757931678937922 0.015741527390137122 0 -0.03390828467095952 0.008820815863706644 0
          -0.01565921924304492 0.010458643563828418 0 -0.037422744042050926 0.015664383818146055 0
          -0.0400514419880853 0.014139814042134269 0 -0.03670931965978763 0.01731160260066167 0
          0 0 0 -0.03925013806653421 0.012874450579737573 0
          -0.026086164028681136 0.015452096985600239 0 -0.0375012066356093 0.01138331862943942 0
          -0.041108427963693295 0.01718319535215529 0 -0.01102853767680767 0.008049360149126161 0
          -0.033705398199884495 0.01787397455121642 0 -0.04332994155745551 0.016228003616027387 0
          -0.020524265065025915 0.013475184824854658 0 -0.04027909797668805 0.018860301216436115 0
          -0.04314503681480275 0.01505518802619954 0 -0.02960258117488035 0.01728929285008096 0
          -0.04464310206507305 0.01863314730549459 0 0 0 0
          -0.03733171089982523 0.019194458675944936 0 -0.013312084721630146 0.009608618419492676 0
          -0.046570030238314075 0.017749125035101843 0 -0.023338864158126693 0.014969055749187277 0
          -0.04365491497377594 0.0198256202553333 0 -0.04646320467145415 0.016730468999922588 0
          -0.032484675067863567 0.01809398554498287 0 -0.04781218531266962 0.019545087492454982 0
          -0.040245902456740534 0.0195683143938421 0 -0.0494701441881471 0.01877022280523799 0
          -0.014680950770828316 0.010073017214919378 0 -0.04655471596109173 0.02023526194693903 0
          0 0 0 -0.02521706848402472 0.015195086536573532 0
          -0.05056508033585505 0.020017474350793263 0 -0.03465382548548135 0.017673540895654316 0
          -0.04170402186662869 0.01859479042118317 0 -0.04850236191204793 0.0198798209057236 0
          0 0 0 -0.026758309995654317 0.01394476202874062 0
          -0.03677821764176592 0.015995404175617067 0 -0.012873840718881202 0.00832688808020371 0
          -0.04166355076048278 0.01516375236403733 0 0 0 0
          -0.031153237983212678 0.011765775581072557 0 -0.01906228480271721 0.00812763475854289 0
          -0.007023008153001276 0.00446656409912137 0 0 0 0
          -0.01571493128445045 0.0032363870312669962 0 -0.03154259125236081 0.008860663648421752 0
          0 0 0 -0.052018357920060154 0.019367861443123635 0
          -0.04933649327099765 0.01774613527920954 0 -0.044800243385163974 0.01552520273645508 0
          -0.041593761247253 0.01374788522303283 0 -0.05260860980613291 0.02011701733880511 0
          -0.04843468248024729 0.017636482584883706 0
          <InformationKey name="L2_NORM_RANGE" location="vtkDataArray" length="2">
            <Value index="0">
              0
            </Value>
            <Value index="1">
              0.056323709149
            </Value>
          </InformationKey>
        </DataArray>
      </PointData>
      <CellData>
        <DataArray type="UInt8" Name="vtkGhostType" format="ascii" RangeMin="0" RangeMax="0">
          0 0 0 0 0 0
          0 0 0 0 0 0
          0 0 0 0 0 0
          0 0 0 0 0 0
          0 0 0 0 0 0
          0 0 0 0 0 0
          0 0 0 0 0 0
          0 0 0 0 0 0
          0 0 0 0 0 0
          0 0 0 0 0 0
          0 0 0 0 0 0
          0 0 0 0 0 0
          0 0 0 0 0 0
          0 0 0 0 0 0
          0 0 0 0 0 0
          0 0 0 0 0 0
          0 0 0 0 0 0
          0 0 0 0 0 0
          0 0 0 0 0 0
          0 0 0 0 0 0
          0 0 0 0 0 0
          0 0 0 0 0 0
          0 0 0 0 0 0
          0 0 0 0 0 0
          0 0 0 0 0 0
          0 0 0 0
        </DataArray>
        <DataArray type="Float64" Name="PStrain" NumberOfComponents="6" format="ascii" RangeMin="6.943880932803721e-8" RangeMax="0.47334814439299366">
          0.09999999999999999 0.09999999999999999 0 0.09999999999999999 0 0
          0.00000182643613207947 0.00000182643613207947 0 0.00000182643613207947 0 0
          0.000008530899387935739 0.000008530899387935739 0 0.000008530899387935739 0 0
          0.0000016393923044011107 0.0000016393923044011107 0 0.0000016393923044011107 0 0
          0.000001679045347590311 0.000001679045347590311 0 0.000001679045347590311 0 0
          2.42214745890192e-7 2.42214745890192e-7 0 2.42214745890192e-7 0 0
          0.0000011120628741724137 0.0000011120628741724137 0 0.0000011120628741724137 0 0
          1.5722532353830872e-7 1.5722532353830872e-7 0 1.5722532353830872e-7 0 0
          5.249181885730264e-7 5.249181885730264e-7 0 5.249181885730264e-7 0 0
          4.5584471385947674e-7 4.5584471385947674e-7 0 4.5584471385947674e-7 0 0
          1.1512794168567041e-7 1.1512794168567041e-7 0 1.1512794168567041e-7 0 0
          2.0520151367436858e-7 2.0520151367436858e-7 0 2.0520151367436858e-7 0 0
          0.000013628220168009836 0.000013628220168009836 0 0.000013628220168009836 0 0
          8.680609021770367e-8 8.680609021770367e-8 0 8.680609021770367e-8 0 0
          8.680609021770367e-8 8.680609021770367e-8 0 8.680609021770367e-8 0 0
          0.000013628220168009836 0.000013628220168009836 0 0.000013628220168009836 0 0
          4.009051525774938e-8 4.009051525774938e-8 0 4.009051525774938e-8 0 0
          0.000010027824018625533 0.000010027824018625533 0 0.000010027824018625533 0 0
          0.00914353107629159 0.00914353107629159 0 0.00914353107629159 0 0
          0.005822931621744509 0.005822931621744509 0 0.005822931621744509 0 0
          0.008376531296374078 0.008376531296374078 0 0.008376531296374078 0 0
          0.004764382323863487 0.004764382323863487 0 0.004764382323863487 0 0
          0.005524379738918391 0.005524379738918391 0 0.005524379738918391 0 0
          0.005385745786300375 0.005385745786300375 0 0.005385745786300375 0 0
          0.005227222133999574 0.005227222133999574 0 0.005227222133999574 0 0
          0.002861616027923112 0.002861616027923112 0 0.002861616027923112 0 0
          0.002186647133836675 0.002186647133836675 0 0.002186647133836675 0 0
          0.004073308068356023 0.004073308068356023 0 0.004073308068356023 0 0
          0.005276048165631427 0.005276048165631427 0 0.005276048165631427 0 0
          0.0020942479237587644 0.0020942479237587644 0 0.0020942479237587644 0 0
          0.0010147096234562106 0.0010147096234562106 0 0.0010147096234562106 0 0
          0.0024719579923440952 0.0024719579923440952 0 0.0024719579923440952 0 0
          0.0036972714884231156 0.0036972714884231156 0 0.0036972714884231156 0 0
          0.0017419122036780583 0.0017419122036780583 0 0.0017419122036780583 0 0
          0.004418625606789543 0.004418625606789543 0 0.004418625606789543 0 0
          0.002204085062195716 0.002204085062195716 0 0.002204085062195716 0 0
          0.0024522473969038373 0.0024522473969038373 0 0.0024522473969038373 0 0
          0.0017624319512039555 0.0017624319512039555 0 0.0017624319512039555 0 0
          0.0006238953470213758 0.0006238953470213758 0 0.0006238953470213758 0 0
          0.0008169490197887769 0.0008169490197887769 0 0.0008169490197887769 0 0
          0.0008680942741427753 0.0008680942741427753 0 0.0008680942741427753 0 0
          0.0007129003553924837 0.0007129003553924837 0 0.0007129003553924837 0 0
          0.0009613007440646239 0.0009613007440646239 0 0.0009613007440646239 0 0
          0.0011604834299006673 0.0011604834299006673 0 0.0011604834299006673 0 0
          0.002242498460383599 0.002242498460383599 0 0.002242498460383599 0 0
          0.0010911286149960266 0.0010911286149960266 0 0.0010911286149960266 0 0
          0.0007960655902750243 0.0007960655902750243 0 0.0007960655902750243 0 0
          0.00031211290174899706 0.00031211290174899706 0 0.00031211290174899706 0 0
          0.0002685164986112306 0.0002685164986112306 0 0.0002685164986112306 0 0
          0.000298350532959278 0.000298350532959278 0 0.000298350532959278 0 0
          0.00032678859210415895 0.00032678859210415895 0 0.00032678859210415895 0 0
          0.00019116912556734004 0.00019116912556734004 0 0.00019116912556734004 0 0
          0.00024217585182650302 0.00024217585182650302 0 0.00024217585182650302 0 0
          0.00011728119979313248 0.00011728119979313248 0 0.00011728119979313248 0 0
          0.00007686652679243126 0.00007686652679243126 0 0.00007686652679243126 0 0
          0.00007418843655376547 0.00007418843655376547 0 0.00007418843655376547 0 0
          0.00010503177744905685 0.00010503177744905685 0 0.00010503177744905685 0 0
          0.0003138105062444852 0.0003138105062444852 0 0.0003138105062444852 0 0
          0.0001311254217033523 0.0001311254217033523 0 0.0001311254217033523 0 0
          0.00040259162907535474 0.00040259162907535474 0 0.00040259162907535474 0 0
          0.00005338790176119489 0.00005338790176119489 0 0.00005338790176119489 0 0
          0.00005556410765975916 0.00005556410765975916 0 0.00005556410765975916 0 0
          0.00008640540388522175 0.00008640540388522175 0 0.00008640540388522175 0 0
          0.09071974551216166 0.09071974551216166 0 0.09071974551216166 0 0
          0.09267392218519699 0.09267392218519699 0 0.09267392218519699 0 0
          0.04594242660723326 0.04594242660723326 0 0.04594242660723326 0 0
          0.11330682406054066 0.11330682406054066 0 0.11330682406054066 0 0
          0.13413385549647983 0.13413385549647983 0 0.13413385549647983 0 0
          0.099315390839312 0.099315390839312 0 0.099315390839312 0 0
          0.07375416430705733 0.07375416430705733 0 0.07375416430705733 0 0
          0.15238848800851462 0.15238848800851462 0 0.15238848800851462 0 0
          0.05067849740982045 0.05067849740982045 0 0.05067849740982045 0 0
          0.055005831299329 0.055005831299329 0 0.055005831299329 0 0
          0.028499663145097658 0.028499663145097658 0 0.028499663145097658 0 0
          0.04218772360593525 0.04218772360593525 0 0.04218772360593525 0 0
          0.024785373599017408 0.024785373599017408 0 0.024785373599017408 0 0
          0.0551510795933879 0.0551510795933879 0 0.0551510795933879 0 0
          0.0674692628678024 0.0674692628678024 0 0.0674692628678024 0 0
          0.07629337584025263 0.07629337584025263 0 0.07629337584025263 0 0
          0.04356446166844741 0.04356446166844741 0 0.04356446166844741 0 0
          0.05045369380832527 0.05045369380832527 0 0.05045369380832527 0 0
          0.039319879220772125 0.039319879220772125 0 0.039319879220772125 0 0
          0.07812526113091081 0.07812526113091081 0 0.07812526113091081 0 0
          0.029011655804420403 0.029011655804420403 0 0.029011655804420403 0 0
          0.028497109139002226 0.028497109139002226 0 0.028497109139002226 0 0
          0.017249026702069067 0.017249026702069067 0 0.017249026702069067 0 0
          0.03199422279924373 0.03199422279924373 0 0.03199422279924373 0 0
          0.017776773333531278 0.017776773333531278 0 0.017776773333531278 0 0
          0.029447282344574367 0.029447282344574367 0 0.029447282344574367 0 0
          0.045080622414522986 0.045080622414522986 0 0.045080622414522986 0 0
          0.04795272787230169 0.04795272787230169 0 0.04795272787230169 0 0
          0.028950310510940908 0.028950310510940908 0 0.028950310510940908 0 0
          0.03981581533351235 0.03981581533351235 0 0.03981581533351235 0 0
          0.025946961523446395 0.025946961523446395 0 0.025946961523446395 0 0
          0.027459749642749165 0.027459749642749165 0 0.027459749642749165 0 0
          0.02143307004664871 0.02143307004664871 0 0.02143307004664871 0 0
          0.017672418843836815 0.017672418843836815 0 0.017672418843836815 0 0
          0.009870374072490638 0.009870374072490638 0 0.009870374072490638 0 0
          0.015535889996349913 0.015535889996349913 0 0.015535889996349913 0 0
          0.013257429873516156 0.013257429873516156 0 0.013257429873516156 0 0
          0.05367214984116634 0.05367214984116634 0 0.05367214984116634 0 0
          0.016452771248517704 0.016452771248517704 0 0.016452771248517704 0 0
          0.018498588703250822 0.018498588703250822 0 0.018498588703250822 0 0
          0.012729714144571103 0.012729714144571103 0 0.012729714144571103 0 0
          0.04571219440277897 0.04571219440277897 0 0.04571219440277897 0 0
          0.0591670005600584 0.0591670005600584 0 0.0591670005600584 0 0
          0.017171689768940922 0.017171689768940922 0 0.017171689768940922 0 0
          0.033026241351646855 0.033026241351646855 0 0.033026241351646855 0 0
          0.028144910129628595 0.028144910129628595 0 0.028144910129628595 0 0
          0.01742770413107061 0.01742770413107061 0 0.01742770413107061 0 0
          0.020910852956961608 0.020910852956961608 0 0.020910852956961608 0 0
          0.010834009925904655 0.010834009925904655 0 0.010834009925904655 0 0
          0.033188618232935785 0.033188618232935785 0 0.033188618232935785 0 0
          0.020087333408954893 0.020087333408954893 0 0.020087333408954893 0 0
          0.01658164208342775 0.01658164208342775 0 0.01658164208342775 0 0
          0.012934357215810337 0.012934357215810337 0 0.012934357215810337 0 0
          0.007954647559798873 0.007954647559798873 0 0.007954647559798873 0 0
          0.038850697268349506 0.038850697268349506 0 0.038850697268349506 0 0
          0.019088899082888085 0.019088899082888085 0 0.019088899082888085 0 0
          0.010876989807413872 0.010876989807413872 0 0.010876989807413872 0 0
          0.01525605961306854 0.01525605961306854 0 0.01525605961306854 0 0
          0.03881676522862709 0.03881676522862709 0 0.03881676522862709 0 0
          0.024026981500085497 0.024026981500085497 0 0.024026981500085497 0 0
          0.024058575999347787 0.024058575999347787 0 0.024058575999347787 0 0
          0.011187670166732173 0.011187670166732173 0 0.011187670166732173 0 0
          0.023308729077154925 0.023308729077154925 0 0.023308729077154925 0 0
          0.014914916847568419 0.014914916847568419 0 0.014914916847568419 0 0
          0.025308959649980662 0.025308959649980662 0 0.025308959649980662 0 0
          0.01791596176435268 0.01791596176435268 0 0.01791596176435268 0 0
          0.01431340128557572 0.01431340128557572 0 0.01431340128557572 0 0
          0.011450704996948249 0.011450704996948249 0 0.011450704996948249 0 0
          0.018097170499033904 0.018097170499033904 0 0.018097170499033904 0 0
          0.01068840799310149 0.01068840799310149 0 0.01068840799310149 0 0
          0.006983832726168508 0.006983832726168508 0 0.006983832726168508 0 0
          0.007340892882749828 0.007340892882749828 0 0.007340892882749828 0 0
          0.011493208938362788 0.011493208938362788 0 0.011493208938362788 0 0
          0.012218605549092742 0.012218605549092742 0 0.012218605549092742 0 0
          0.028369471426921603 0.028369471426921603 0 0.028369471426921603 0 0
          0.27328767858570474 0.27328767858570474 0 0.27328767858570474 0 0
          0.2520905698783573 0.2520905698783573 0 0.2520905698783573 0 0
          0.14707876519437887 0.14707876519437887 0 0.14707876519437887 0 0
          0.08602922656535895 0.08602922656535895 0 0.08602922656535895 0 0