<?xml version="1.0"?>
<VTKFile type="UnstructuredGrid" version="0.1" byte_order="LittleEndian" header_type="UInt32" compressor="vtkZLibDataCompressor">
  <UnstructuredGrid>
    <Piece NumberOfPoints="97" NumberOfCells="154">
      <PointData>
        <DataArray type="Float64" Name="Velocity" NumberOfComponents="3" format="ascii" RangeMin="0" RangeMax="2.816508571204324">
          1.068152812517921 0.023678760761791276 0 1.1180862586379194 0 0
          0.9619345438617103 -0.014771075521459925 0 0.9694674676086348 -0.023456203394638244 0
          0.9652842712009753 -0.019498451604304856 0 1.2398752441556615 0 0
          0.9841675581717484 -0.0005427500968014736 0 0.9494812163165615 0 0
          0.9568667021505786 0.0002628771623872407 0 0.9277334211240335 -0.07646484945658046 0
          1.4896904588945892 0 0 0.9189781722807631 0 0
          0.7669626391620071 0 0 2.1188603281097262 0 0
          0.9150661015843253 -0.642756128974998 0 1.985762122175523 -0.3866435742893407 0
          0.08608437048871886 0 0 2.62793139959235 0 0
          0.07328615264392546 -0.5235658861047631 0 1.2356399798692266 -0.49982599703925457 0
          2.477158861044112 -0.17181936086137478 0 -0.5017619794491491 0 0
          2.780506808073716 0 0 -0.4170078727407695 -0.4294450147015363 0
          1.1299854016258803 -0.32027556804083157 0 2.720360961196184 -0.07171358477565416 0
          -1.0831540135352276 0 0 2.799095068314839 0 0
          -0.6974665362747896 -0.055304097381131595 0 1.721174325525787 -0.1480185857135241 0
          0.20993341811108554 -0.0031292387710362968 0 2.816494392118967 0.008937048161068085 0
          -1.1409680745001676 0 0 2.752995875271832 0 0
          2.0545464121852177 -0.08991338425814827 0 0.34378583570981014 0.14903584705421288 0
          -0.6559215848732245 0.13803510586976409 0 -0.9798062127040602 0 0
          2.7478038556505795 0.12770931158584056 0 0.7841374797082543 0.23523814415427294 0
          -0.19984978361518296 0.3303590137782154 0 2.070664334514102 0.14648486845500894 0
          -0.545859855094203 0.2107837428071295 0 0.3220699645721154 0.39809295151672736 0
          0.6403953403080491 0.31327775289490406 0 0.05804560227308301 0.42336820738805414 0
          -0.6949720619130919 0 0 1.2407194139495399 0.17983076811487245 0
          -0.292879811141484 0.3252013912675542 0 1.995771640132567 0.2418119205725435 0
          0.30291018477717363 0.4247479775152489 0 -0.48571292562149787 0.17212540140160554 0
          -0.09035915180002713 0.3970891594722327 0 0.4578096482948592 0.3136682510589315 0
          -0.3519153323929495 0.28638151260216893 0 0.10707791790919124 0.42417330944245013 0
          1.0546932794669386 0.26677783632233987 0 -0.18978687441267106 0.36267521691215043 0
          0.25398485170363627 0.381453873619461 0 -0.4151704693613718 0 0
          -0.023099452756934685 0.40183100757549567 0 -0.30788949722967446 0.17421437823599314 0
          0.3611735561169258 0.29890550669847116 0 -0.21754880823173267 0.26941295423966427 0
          0.12267484654573665 0.4061520323120138 0 0.994341341116692 0.261886959321028 0
          -0.09669175717637543 0.32891835352317067 0 0.20752568649863706 0.37416915418049296 0
          0.03643509660222198 0.3637227516151755 0 0.27783071676229487 0.30242566758750017 0
          -0.16921923220123164 0.14713876927514782 0 0.13418441475971735 0.35894542459455153 0
          -0.21467232535989086 0 0 -0.11164145625876354 0.2185772762226734 0
          0.15619422141353648 0.2986020272302246 0 -0.013400213799259693 0.28465143947566135 0
          0.061991498381389606 0.28908993338259104 0 0.09806819005629511 0.2613762410931883 0
          -0.0808355781160516 1.3934787632398557e-23 0 -0.02192553310264715 0.16756171285086824 0
          0.03229440898363696 0.1614301343425843 0 -0.021645129961647816 0.05785646124531521 0
          -0.008964223677341517 -0.008819297023143843 0 -0.021895770001511453 -1.363770629325421e-23 0
          -0.0035165632094579548 -0.008528919048149302 0 -0.0007954777389121536 -0.0066162378309666285 0
          -0.00038832384771572974 -0.0034777303683023618 0 0 0 0
          2.610595216937417 0.19551061926217184 0 2.70473355964179 0.309636618635584 0
          2.6532603591264614 0 0 0.28748038211493215 0.2569590691133051 0
          1.007338013724334 0.3446354817749139 0 1.9863172209249478 0.3825035280339341 0
          1.936798348736371 0.3892893470365656 0 0.06603344536487102 0.18723250081517775 0
          -0.017954208832163192 -0.006583833498122786 0
          <InformationKey name="L2_NORM_RANGE" location="vtkDataArray" length="2">
            <Value index="0">
              0
            </Value>
            <Value index="1">
              2.8165085712
            </Value>
          </InformationKey>
        </DataArray>
        <DataArray type="Float64" Name="Pressure" format="ascii" RangeMin="-4.007650808452788" RangeMax="0.030775708250099662">
          -0.06367131301212094 -0.021646731807911265 -0.010407026263856554 -0.04696478273405219 -0.07490220968634712 0.030775708250099662
          -0.0018719890431146584 -0.07100861625359345 -0.15753767236827387 -0.1836878793211311 -0.26116550688033446 -0.1766231738096413
          0.0025401113495774827 -0.6737228764719133 -0.6302216419286512 -1.5300297206101612 -0.40970567047438844 -2.0570062164770917
          -1.3192411201360326 -2.430089041555421 -2.5365251361303467 -1.5103017663314935 -2.8827717361648943 -2.5776999628172694
          -3.6433237699571475 -3.103766216713616 -3.0493136479266036 -3.0620629155093777 -3.7247591402215283 -3.868081051522732
          -4.007650808452788 -3.1784612292440753 -3.6238313136255513 -2.8040476413312043 -3.7114074777861608 -3.9965133513613758
          -3.8509221371946216 -3.4623459029928485 -3.1482431551104604 -3.709550899811937 -3.6336612536134276 -3.1958060908280865
          -3.306622145415574 -3.511548497834469 -3.395475531736734 -3.3827894242208787 -3.1150957121031384 -3.2211376988184224
          -3.248952021462406 -2.9709911181373014 -3.293312994703233 -3.0642253868207767 -3.2123109197566864 -3.1814250166543467
          -3.0592076448158245 -3.1672480333173634 -3.065551494986402 -3.0592500222759047 -3.0932917082999842 -2.8863682005574223
          -3.042823497481388 -2.901086683298849 -3.0027692245788073 -2.9103994499805106 -3.0100933843420186 -2.868773093284526
          -2.9186185312727777 -2.9614418589161766 -2.9160697767094206 -2.8894107674046405 -2.803032876768322 -2.8987077819619254
          -2.7867735040211192 -2.8099329028914184 -2.8622982900159593 -2.822419479085583 -2.812841526009674 -2.798727344424546
          -2.7506557437648893 -2.7584815474091804 -2.7605092179804815 -2.7329823310262804 -2.726387633045712 -2.732962906489813
          -2.6993938144732854 -2.7082785454921234 -2.7177608154168187 -2.720587837577179 -1.9356730956126755 -2.5065094572183053
          -2.180568991220884 -2.8005742604655013 -2.7531923971070724 -2.5491637263955798 -2.842007622716957 -2.7322157385279158
          -2.7241428628250492
        </DataArray>
        <DataArray type="Float64" Name="BTraction" NumberOfComponents="3" format="ascii" RangeMin="0" RangeMax="3.499660775954777">
          0.024515346056954924 0.02531550284168625 0 0.004340474685667262 0.021337235964214756 0
          0.016844821426094395 0.0012213581580798698 0 0 0 0
          0 0 0 0.008306523147330444 0.029060761599657172 0
          0.0023414102884827597 -0.011117050255645092 0 -0.000656261725081273 -0.07574022059185283 0
          0 0 0 0 0 0
          0.016941624720228247 0.2959222980782355 0 -0.0010533094276935961 -0.12849591212797418 0
          -0.008570635480734742 -0.08319262172209212 0 0.02169195706567647 0.8314711783777513 0
          0 0 0 0 0 0
          -0.015446479160345479 -0.4627670557008235 0 0.016147530363331154 1.9424647300351692 0
          0 0 0 0 0 0
          0 0 0 -0.016012167483958402 -1.4787655199331966 0
          0.008012995832003428 2.773468306777374 0 0 0 0
          0 0 0 0 0 0
          -0.019213965763046906 -2.830538400891598 0 0.001181430848642127 2.9939253192253585 0
          0 0 0 0 0 0
          0 0 0 0 0 0
          -0.021054911026923914 -3.4995974393461373 0 -0.0017909021730487952 2.7431522712158984 0
          0 0 0 0 0 0
          0 0 0 -0.017618570360325148 -3.457204074283145 0
          0 0 0 0 0 0
          0 0 0 0 0 0
          0 0 0 0 0 0
          0 0 0 0 0 0
          -0.01345569091162285 -3.1809634650820042 0 0 0 0
          0 0 0 0 0 0
          0 0 0 0 0 0
          0 0 0 0 0 0
          0 0 0 0 0 0
          0 0 0 0 0 0
          0 0 0 -0.009890412981688036 -2.949535654693261 0
          0 0 0 0 0 0
          0 0 0 0 0 0
          0 0 0 0 0 0
          0 0 0 0 0 0
          0 0 0 0 0 0
          0 0 0 0 0 0
          -0.0054663933243801555 -2.8298137962954417 0 0 0 0
          0 0 0 0 0 0
          0 0 0 0 0 0
          -0.002260863712791138 -2.7741878170850653 0 0 0 0
          0 0 0 0 0 0
          -2.6145360325350095 0.7620816596698616 0 -0.0006832695638844379 -2.7395702194008313 0
          -2.601324130404954 0.714454592243159 0 -2.622735185631632 0.6267053285398015 0
          -2.672551676177021 0.41773392639458456 0 -1.3034144083934494 -1.2831265270049579 0
          0 0 0 0 0 0
          -0.004245040005194275 2.0212712829711044 0 0 0 0
          0 0 0 0 0 0
          0 0 0 0 0 0
          -2.583725810705552 0.7720454879787776 0
          <InformationKey name="L2_NORM_RANGE" location="vtkDataArray" length="2">
            <Value index="0">
              0
            </Value>
            <Value index="1">
              3.499660776
            </Value>
          </InformationKey>
        </DataArray>
        <DataArray type="Float64" Name="ALEdispl" NumberOfComponents="3" format="ascii" RangeMin="0" RangeMax="2.5248734596147124">
          0 0 0 0 0 0
          0 0 0 0.1998311662993639 0.03330273290779389 0
          0.13072039010112865 -0.05151539834425322 0 0 0 0
          0 0 0 0 0 0
          0.1866877592166313 -0.018163091526325635 0 0.31890425406294176 0.004172510159532287 0
          0 0 0 0 0 0
          0 0 0 0 0 0
          0.5633206471932166 0.008497395521654455 0 0.40804599847560113 0.06800070929390305 0
          0 0 0 0 0 0
          0.41748803628219844 -0.13318086387176198 0 0.8214215712587446 -0.05928980249942491 0
          0.4376134953238251 0.09205002174706703 0 0 0 0
          0 0 0 0.46473785527546013 -0.19769904096074145 0
          1.0510952549207606 -0.14967381426219245 0 0.5390708749648205 0.0859605702018601 0
          0 0 0 0 0 0
          0.5949563262024209 -0.26716658187213327 0 1.1728840613497034 -0.1881056104143201 0
          1.1320014256507194 -0.3652111137200518 0 0.7062393223990173 0.04875694820260772 0
          0 0 0 0 0 0
          1.293351341716799 -0.24359560320833043 0 1.3964117161068677 -0.5198171889118246 0
          0.8040252534691447 -0.4509837201824409 0 0 0 0
          1.3364145857818892 -0.1421043261610983 0 1.7348112481116276 -0.5832743282980999 0
          1.3795440178327767 -0.7607873726361037 0 1.6822847654226536 -0.38442785008846836 0
          0.6948235117949021 -0.4988387889939497 0 1.7182042937320132 -0.7567537953901984 0
          1.8976169982108777 -0.6675553617716657 0 1.6383566509815082 -0.8325837483634732 0
          0 0 0 1.9031590742679352 -0.5841510662805559 0
          1.1254636786223071 -0.7385509824154355 0 1.8705902063122501 -0.4842031751778069 0
          1.8770038525706754 -0.8137155487372382 0 0.47464696126945105 -0.3763973412642503 0
          1.4531717451628496 -0.8485839655052912 0 2.041545112393949 -0.7426221111108166 0
          0.855847314341839 -0.6319360106296432 0 1.7695278653297706 -0.8807110850815932 0
          2.09417313180132 -0.6544894253417769 0 1.2249024972427451 -0.803368509596075 0
          2.0200997179968248 -0.8456606504750318 0 0 0 0
          1.5730496771094702 -0.8749342832242467 0 0.5397653055166315 -0.4437378878863068 0
          2.185376549116556 -0.7671276308693001 0 0.91303790306871 -0.6748074270998016 0
          1.890883799304772 -0.8780345036709705 0 2.2535847083917533 -0.6797238383796754 0
          1.28902495767638 -0.7935020950758762 0 2.1488737785057017 -0.8271341045623545 0
          1.656843163666318 -0.8319017883787496 0 2.3159015608323132 -0.7423387214518148 0
          0.5482369082232066 -0.45433645623949503 0 1.9905755480645622 -0.8217984155993282 0
          0 0 0 0.913405108901233 -0.6227094840914018 0
          2.2635309632181904 -0.7606744636519094 0 1.305765058015402 -0.6973743628915507 0
          1.6525757574183637 -0.6870645767977429 0 2.0488645787796504 -0.6988238774985395 0
          0 0 0 0.8913392607244235 -0.4932524005276499 0
          1.2951754516130238 -0.5034878876671146 0 0.3678508835199602 -0.2661570470727723 0
          1.4748023100163867 -0.3328753438110408 0 0 0 0
          0.938394994808138 -0.24485540922305216 0 0.46516374784834863 -0.15923608232265776 0
          0.13690304618535196 -0.08110764559503282 0 0 0 0
          0.821924348658618 -0.0977393523232537 0 1.6198386801211557 -0.3489028851365517 0
          0 0 0 2.4344272903803112 -0.6697385720699861 0
          2.393197392709768 -0.6472124772322376 0 2.238104747470506 -0.5881759819170408 0
          2.0762491916805486 -0.5618769215850296 0 2.34214653626444 -0.6414332080617642 0
          1.9646590542766145 -0.41113310235557193 0
          <InformationKey name="L2_NORM_RANGE" location="vtkDataArray" length="2">
            <Value index="0">
              0
            </Value>
            <Value index="1">
              2.5248734596
            </Value>
          </InformationKey>
        </DataArray>
        <DataArray type="Float64" Name="ALEveloc" NumberOfComponents="3" format="ascii" RangeMin="0" RangeMax="0.040290805964223894">
          0 0 0 0 0 0
          0 0 0 -0.0031805050258688072 -0.00052847147274733 0
          -0.0020812903988580156 0.0008214113226808761 0 0 0 0
          0 0 0 0 0 0
          -0.002971870609542071 0.0002915196265097057 0 -0.005075730056808114 -0.00006104590489470693 0
          0 0 0 0 0 0
          0 0 0 0 0 0
          -0.008960368045268896 -0.00014975881644146635 0 -0.006454284580372227 -0.0010880456004776634 0
          0 0 0 0 0 0
          -0.006680739605447017 0.002104024965834783 0 -0.013047202396766489 0.0009684919133741421 0
          -0.006935471956182937 -0.0015052342996788592 0 0 0 0
          0 0 0 -0.007438217016483062 0.003129422088286926 0
          -0.016684586885881147 0.002427986070593663 0 -0.008583235505296716 -0.001384784380855153 0
          0 0 0 0 0 0
          -0.009493652948116216 0.004316435385671613 0 -0.01861793849285842 0.003254152341588157 0
          -0.017950818177658645 0.00618147889407239 0 -0.011388191717667695 -0.0007135927769432171 0
          0 0 0 0 0 0
          -0.020510850882062392 0.004459486649130817 0 -0.022043375259924947 0.008939580352742671 0
          -0.012642935799495936 0.007542682774606235 0 0 0 0
          -0.02179457781544958 0.0027493562310607345 0 -0.02728632566932987 0.01051171451196542 0
          -0.021017085156501913 0.012976368852797737 0 -0.02722444399490298 0.007203439890049235 0
          -0.010517740907142414 0.008271581902060898 0 -0.02649992729472217 0.01335464089760463 0
          -0.029850138879095045 0.012068758140788116 0 -0.0248047092692385 0.014484703390456044 0
          0 0 0 -0.030375467059906125 0.010710904275039068 0
          -0.01663307482525278 0.012436775166619007 0 -0.03044514262323217 0.008909034592086251 0
          -0.02880901345601483 0.014442423163937734 0 -0.006966741327938064 0.0061121245937963975 0
          -0.021425202810458455 0.014469381086151367 0 -0.03198674752834041 0.013429498653169114 0
          -0.012233026699999483 0.01037530665978681 0 -0.026413327057046576 0.015296417919486771 0
          -0.03350953040775506 0.011943972480031873 0 -0.017413796807307147 0.013328889920999343 0
          -0.03076663749431452 0.01500387535854908 0 0 0 0
          -0.022700637929125467 0.014765342282024196 0 -0.007433650266261971 0.007044120392602715 0
          -0.03416214048011845 0.0138066821298779 0 -0.012201490126168224 0.010665440325199338 0
          -0.02782650026042255 0.015168687631958555 0 -0.03616611797473679 0.012237014743201824 0
          -0.01750757507372147 0.012701109247469144 0 -0.0325347834835199 0.014597842002127992 0
          -0.023300717783049762 0.01371825416054695 0 -0.036218040361353676 0.01317179585686068 0
          -0.006879925154115618 0.006842884387525561 0 -0.02883587317693559 0.013977987533698943 0
          0 0 0 -0.011047707657757089 0.008818224428991495 0
          -0.034161752672046575 0.013199656638855917 0 -0.01651521250698762 0.010209626196254984 0
          -0.02208987914745464 0.010364541637862379 0 -0.029095286052945646 0.011234876073147326 0
          0 0 0 -0.009414179863630467 0.005405972307126805 0
          -0.014379722896990632 0.005107597749722137 0 -0.003113167697565644 0.0017477947637000724 0
          -0.015934147805007903 0.0005378941211593435 0 0 0 0
          -0.0077834020117837355 -0.0010880764999131598 0 -0.0023341775084865235 -0.001727990760358289 0
          -0.000327055740621196 -0.001290458887528545 0 0 0 0
          -0.01377780432890785 0.0017873230966480302 0 -0.026887195324019952 0.006399718393060416 0
          0 0 0 -0.03826445171533255 0.011469265362384462 0
          -0.03867595857649331 0.01129244320048206 0 -0.03688918413206155 0.010382604636779424 0
          -0.03396046886928472 0.010241915967861726 0 -0.03513316857204174 0.010551743802551528 0
          -0.02588191232773429 0.0032258438010632773 0
          <InformationKey name="L2_NORM_RANGE" location="vtkDataArray" length="2">
            <Value index="0">
              0
            </Value>
            <Value index="1">
              0.040290805964
            </Value>
          </InformationKey>
        </DataArray>
      </PointData>
      <CellData>
        <DataArray type="UInt8" Name="vtkGhostType" format="ascii" RangeMin="0" RangeMax="0">
          0 0 0 0 0 0
          0 0 0 0 0 0
          0 0 0 0 0 0
          0 0 0 0 0 0
          0 0 0 0 0 0
          0 0 0 0 0 0
          0 0 0 0 0 0
          0 0 0 0 0 0
          0 0 0 0 0 0
          0 0 0 0 0 0
          0 0 0 0 0 0
          0 0 0 0 0 0
          0 0 0 0 0 0
          0 0 0 0 0 0
          0 0 0 0 0 0
          0 0 0 0 0 0
          0 0 0 0 0 0
          0 0 0 0 0 0
          0 0 0 0 0 0
          0 0 0 0 0 0
          0 0 0 0 0 0
          0 0 0 0 0 0
          0 0 0 0 0 0
          0 0 0 0 0 0
          0 0 0 0 0 0
          0 0 0 0
        </DataArray>
        <DataArray type="Float64" Name="PStrain" NumberOfComponents="6" format="ascii" RangeMin="6.822251400190557e-8" RangeMax="0.46369715772951836">
          0.09999999999999999 0.09999999999999999 0 0.09999999999999999 0 0
          0.0000017944539819601353 0.0000017944539819601353 0 0.0000017944539819601353 0 0
          0.000008381809042212213 0.000008381809042212213 0 0.000008381809042212213 0 0
          0.0000016106931062096388 0.0000016106931062096388 0 0.0000016106931062096388 0 0
          0.00000164964199744044 0.00000164964199744044 0 0.00000164964199744044 0 0
          2.3797324412428183e-7 2.3797324412428183e-7 0 2.3797324412428183e-7 0 0
          0.000001092590375882936 0.000001092590375882936 0 0.000001092590375882936 0 0
          1.544707593737168e-7 1.544707593737168e-7 0 1.544707593737168e-7 0 0
          5.157215129397349e-7 5.157215129397349e-7 0 5.157215129397349e-7 0 0
          4.4785938716516945e-7 4.4785938716516945e-7 0 4.4785938716516945e-7 0 0
          1.1311195498582587e-7 1.1311195498582587e-7 0 1.1311195498582587e-7 0 0
          2.0160825732372344e-7 2.0160825732372344e-7 0 2.0160825732372344e-7 0 0
          0.000013389543488569545 0.000013389543488569545 0 0.000013389543488569545 0 0
          8.528555981642739e-8 8.528555981642739e-8 0 8.528555981642739e-8 0 0
          8.528555981642739e-8 8.528555981642739e-8 0 8.528555981642739e-8 0 0
          0.000013389543488569545 0.000013389543488569545 0 0.000013389543488569545 0 0
          3.9388286823793196e-8 3.9388286823793196e-8 0 3.9388286823793196e-8 0 0
          0.00000985191871242957 0.00000985191871242957 0 0.00000985191871242957 0 0
          0.008963696561027246 0.008963696561027246 0 0.008963696561027246 0 0
          0.005708929078937415 0.005708929078937415 0 0.005708929078937415 0 0
          0.008245468177512701 0.008245468177512701 0 0.008245468177512701 0 0
          0.004674659534179532 0.004674659534179532 0 0.004674659534179532 0 0
          0.005428049894464496 0.005428049894464496 0 0.005428049894464496 0 0
          0.005300694559290222 0.005300694559290222 0 0.005300694559290222 0 0
          0.005139704790597891 0.005139704790597891 0 0.005139704790597891 0 0
          0.0028140584656040626 0.0028140584656040626 0 0.0028140584656040626 0 0
          0.002147888475434293 0.002147888475434293 0 0.002147888475434293 0 0
          0.003999658818761552 0.003999658818761552 0 0.003999658818761552 0 0
          0.005178691107820109 0.005178691107820109 0 0.005178691107820109 0 0
          0.002055805977668456 0.002055805977668456 0 0.002055805977668456 0 0
          0.0009974283632524215 0.0009974283632524215 0 0.0009974283632524215 0 0
          0.0024290170132830586 0.0024290170132830586 0 0.0024290170132830586 0 0
          0.003627089018381634 0.003627089018381634 0 0.003627089018381634 0 0
          0.0017098939091547594 0.0017098939091547594 0 0.0017098939091547594 0 0
          0.004338821889387228 0.004338821889387228 0 0.004338821889387228 0 0
          0.0021624380495444562 0.0021624380495444562 0 0.0021624380495444562 0 0
          0.00240722375732986 0.00240722375732986 0 0.00240722375732986 0 0
          0.0017311170580942992 0.0017311170580942992 0 0.0017311170580942992 0 0
          0.0006129229428953795 0.0006129229428953795 0 0.0006129229428953795 0 0
          0.0008022784930135462 0.0008022784930135462 0 0.0008022784930135462 0 0
          0.0008524760361960377 0.0008524760361960377 0 0.0008524760361960377 0 0
          0.0007000843374109954 0.0007000843374109954 0 0.0007000843374109954 0 0
          0.0009449083037133472 0.0009449083037133472 0 0.0009449083037133472 0 0
          0.0011403127487152106 0.0011403127487152106 0 0.0011403127487152106 0 0
          0.0022050303483673516 0.0022050303483673516 0 0.0022050303483673516 0 0
          0.0010716735631463472 0.0010716735631463472 0 0.0010716735631463472 0 0
          0.0007824727477465458 0.0007824727477465458 0 0.0007824727477465458 0 0
          0.00030659188070839396 0.00030659188070839396 0 0.00030659188070839396 0 0
          0.000263746020255417 0.000263746020255417 0 0.000263746020255417 0 0
          0.000293197240695859 0.000293197240695859 0 0.000293197240695859 0 0
          0.0003211480546611576 0.0003211480546611576 0 0.0003211480546611576 0 0
          0.00018778062758546165 0.00018778062758546165 0 0.00018778062758546165 0 0
          0.00023798602129612153 0.00023798602129612153 0 0.00023798602129612153 0 0
          0.00011522559663942403 0.00011522559663942403 0 0.00011522559663942403 0 0
          0.00007551459992056613 0.00007551459992056613 0 0.00007551459992056613 0 0
          0.00007289722051466029 0.00007289722051466029 0 0.00007289722051466029 0 0
          0.00010319861610050848 0.00010319861610050848 0 0.00010319861610050848 0 0
          0.00030835479182413723 0.00030835479182413723 0 0.00030835479182413723 0 0
          0.0001288332901626855 0.0001288332901626855 0 0.0001288332901626855 0 0
          0.0003954881501618117 0.0003954881501618117 0 0.0003954881501618117 0 0
          0.00005245706502440842 0.00005245706502440842 0 0.00005245706502440842 0 0
          0.000054588609527579464 0.000054588609527579464 0 0.000054588609527579464 0 0
          0.00008488172919994529 0.00008488172919994529 0 0.00008488172919994529 0 0
          0.08891752249188103 0.08891752249188103 0 0.08891752249188103 0 0
          0.09079675162869807 0.09079675162869807 0 0.09079675162869807 0 0
          0.045031528321892444 0.045031528321892444 0 0.045031528321892444 0 0
          0.11106759261188759 0.11106759261188759 0 0.11106759261188759 0 0
          0.13160983653666633 0.13160983653666633 0 0.13160983653666633 0 0
          0.09732182009525309 0.09732182009525309 0 0.09732182009525309 0 0
          0.07238316001726482 0.07238316001726482 0 0.07238316001726482 0 0
          0.14933479077509532 0.14933479077509532 0 0.14933479077509532 0 0
          0.049678157588222825 0.049678157588222825 0 0.049678157588222825 0 0
          0.053912092004472764 0.053912092004472764 0 0.053912092004472764 0 0
          0.027939097375042077 0.027939097375042077 0 0.027939097375042077 0 0
          0.04133413516667459 0.04133413516667459 0 0.04133413516667459 0 0
          0.024295645684394115 0.024295645684394115 0 0.024295645684394115 0 0
          0.05409108390294963 0.05409108390294963 0 0.05409108390294963 0 0
          0.06629083018473933 0.06629083018473933 0 0.06629083018473933 0 0
          0.0748197659064204 0.0748197659064204 0 0.0748197659064204 0 0
          0.04280675388930434 0.04280675388930434 0 0.04280675388930434 0 0
          0.04946695839447111 0.04946695839447111 0 0.04946695839447111 0 0
          0.03860429272280301 0.03860429272280301 0 0.03860429272280301 0 0
          0.07680330187220005 0.07680330187220005 0 0.07680330187220005 0 0
          0.028445869514529383 0.028445869514529383 0 0.028445869514529383 0 0
          0.027929607459861804 0.027929607459861804 0 0.027929607459861804 0 0
          0.01691039624811906 0.01691039624811906 0 0.01691039624811906 0 0
          0.031370965079381405 0.031370965079381405 0 0.031370965079381405 0 0
          0.017430526056119416 0.017430526056119416 0 0.017430526056119416 0 0
          0.028895185155085268 0.028895185155085268 0 0.028895185155085268 0 0
          0.0443529140778179 0.0443529140778179 0 0.0443529140778179 0 0
          0.04711328763529841 0.04711328763529841 0 0.04711328763529841 0 0
          0.028472470434761227 0.028472470434761227 0 0.028472470434761227 0 0
          0.03907070512709655 0.03907070512709655 0 0.03907070512709655 0 0
          0.025498561570162382 0.025498561570162382 0 0.025498561570162382 0 0
          0.026934515861585705 0.026934515861585705 0 0.026934515861585705 0 0
          0.021050286636242657 0.021050286636242657 0 0.021050286636242657 0 0
          0.017326985354828586 0.017326985354828586 0 0.017326985354828586 0 0
          0.009680632426647295 0.009680632426647295 0 0.009680632426647295 0 0
          0.015225815544585675 0.015225815544585675 0 0.015225815544585675 0 0
          0.013001255875729374 0.013001255875729374 0 0.013001255875729374 0 0
          0.05285302095933868 0.05285302095933868 0 0.05285302095933868 0 0
          0.016137642883235548 0.016137642883235548 0 0.016137642883235548 0 0
          0.018146482609928676 0.018146482609928676 0 0.018146482609928676 0 0
          0.012482304156906057 0.012482304156906057 0 0.012482304156906057 0 0
          0.045032273110562585 0.045032273110562585 0 0.045032273110562585 0 0
          0.058495965930830326 0.058495965930830326 0 0.058495965930830326 0 0
          0.016854638207403783 0.016854638207403783 0 0.016854638207403783 0 0
          0.03251952410090554 0.03251952410090554 0 0.03251952410090554 0 0
          0.027653727919528692 0.027653727919528692 0 0.027653727919528692 0 0
          0.01714009202911583 0.01714009202911583 0 0.01714009202911583 0 0
          0.02052674920127482 0.02052674920127482 0 0.02052674920127482 0 0
          0.010643676004078801 0.010643676004078801 0 0.010643676004078801 0 0
          0.032656152779563075 0.032656152779563075 0 0.032656152779563075 0 0
          0.019765481583362044 0.019765481583362044 0 0.019765481583362044 0 0
          0.016272052405166076 0.016272052405166076 0 0.016272052405166076 0 0
          0.012709453106603895 0.012709453106603895 0 0.012709453106603895 0 0
          0.007803525099274062 0.007803525099274062 0 0.007803525099274062 0 0
          0.03833754132752391 0.03833754132752391 0 0.03833754132752391 0 0
          0.018779569877313253 0.018779569877313253 0 0.018779569877313253 0 0
          0.010697927131556663 0.010697927131556663 0 0.010697927131556663 0 0
          0.014991017372927112 0.014991017372927112 0 0.014991017372927112 0 0
          0.03831304821738322 0.03831304821738322 0 0.03831304821738322 0 0
          0.023664834352783756 0.023664834352783756 0 0.023664834352783756 0 0
          0.023762365406016655 0.023762365406016655 0 0.023762365406016655 0 0
          0.010984741514760522 0.010984741514760522 0 0.010984741514760522 0 0
          0.022966633042019353 0.022966633042019353 0 0.022966633042019353 0 0
          0.014684259641852406 0.014684259641852406 0 0.014684259641852406 0 0
          0.025004315639101285 0.025004315639101285 0 0.025004315639101285 0 0
          0.017671000844392014 0.017671000844392014 0 0.017671000844392014 0 0
          0.01409370194522868 0.01409370194522868 0 0.01409370194522868 0 0
          0.011279545726228819 0.011279545726228819 0 0.011279545726228819 0 0
          0.01784861154244611 0.01784861154244611 0 0.01784861154244611 0 0
          0.010488552965258859 0.010488552965258859 0 0.010488552965258859 0 0
          0.006851712517869708 0.006851712517869708 0 0.006851712517869708 0 0
          0.007199685491344329 0.007199685491344329 0 0.007199685491344329 0 0
          0.011307166517890276 0.011307166517890276 0 0.011307166517890276 0 0
          0.012037602426601266 0.012037602426601266 0 0.012037602426601266 0 0
          0.028165947383965467 0.028165947383965467 0 0.028165947383965467 0 0
          0.2677156788376018 0.2677156788376018 0 0.2677156788376018 0 0
          0.2467613543479515 0.2467613543479515 0 0.2467613543479515 0 0