<?xml version="1.0"?>
<VTKFile type="UnstructuredGrid" version="0.1" byte_order="LittleEndian" header_type="UInt32" compressor="vtkZLibDataCompressor">
  <UnstructuredGrid>
    <Piece NumberOfPoints="94" NumberOfCells="150">
      <PointData>
        <DataArray type="Float64" Name="Velocity" NumberOfComponents="3" format="ascii" RangeMin="2.4552746864347537e-23" RangeMax="2.7957254540071252">
          2.6798272250586224 0 0 2.614362330488782 0.20523366997085005 0
          2.697395506506939 0.32003834729933084 0 2.3208350243906635 0 0
          1.9134158688778777 0.3920235856125489 0 2.4142894186473356 0.3132729294294939 0
          2.5875317917375824 0.5381379291889264 0 1.9713555090522756 0.37382057387666395 0
          0.998533110818214 0.33085625509686123 0 1.8396319054113004 0 0
          2.145452285639212 0.5294863535028319 0 2.1792535206807786 0.422951240047162 0
          2.4264348374932068 0.7685139526957754 0 0.2808083826297723 0.2441554594756603 0
          1.2087693614180886 0.40458712474705827 0 2.41573000483243 0.8196040313442723 0
          0.07094581101460964 0.18419188173005444 0 2.2447654430840323 0.7610665579953947 0
          0.4302204167960787 0.27009503846592886 0 1.6641983890423984 0.7672386299725893 0
          0.02109742982643638 0.013780978529375962 0 2.366013330947344 1.1206870943170615 0
          1.7264614117004244 0.29958249191925823 0 0.012730309175761687 0.015872851318248393 0
          0.9357064815111802 0.5097266456556595 0 2.0978443425797852 0.90932601520788 0
          2.0665364999668068 1.339832081246672 0 0.022892830863335774 0.019290677149095874 0
          0.014511692687561318 0.020469515679077777 0 2.039402718410854 1.115466549292855 0
          1.719442642935035 1.5175959915796007 0 1.4104148782325125 0 0
          0.007501748697775049 0.018685769657584072 0 0.0032747436680175867 0.014665535856290737 0
          1.8534759362266136 1.3782926651555916 0 1.1126831738143497 1.651963281189091 0
          1.674704362794587 0.6421508817939022 0 0.0013898901589723374 0.009517123141696587 0
          1.730947847603119 1.0185923311019631 0 1.5604208160969655 1.5308840774761758 0
          0.001453235831937668 0.004560737320779672 0 1.0997059501240565 1.585658675113018 0
          0.32364117006314513 0.8054727673143209 0 2.4552746864347537e-23 0 0
          1.5294204330592112 1.1289826088995638 0 1.2362026624132216 1.4427598690753407 0
          0.9408359024683942 1.3946339893267967 0 1.4475625908090806 0.7410136737681425 0
          1.26680351800738 0.19751579946779077 0 0.4394269413344559 0.7477418518116475 0
          1.3268934334834526 1.0532984528456022 0 1.0830525530169017 1.1772483351409537 0
          1.3606651773217449 0.8256195674620779 0 0.7902469990726586 1.0333339727218158 0
          0.19199469435075706 0 0 1.1516811175996065 0.9641080191927801 0
          1.296429118827181 0.6419719072320695 0 0.3431587154663966 0.2722843741776164 0
          0.9532190004595363 0.9338042847899864 0 0.6508637992999325 0.5500695491194459 0
          1.2321405231321116 0.38111846288206197 0 1.215312482316654 0.5997287012153065 0
          1.114645243367114 0 0 1.0463970141459573 0.6813536819974574 0
          0.49089296328691656 0 0 0.8905569726910921 0.6282690470073586 0
          0.8278042069419681 0.4908864523164475 0 1.040663633028106 0.12521107034940784 0
          0.7682069961603513 0.2869742758768876 0 0.7325465459439986 0 0
          1.0508404363315635 0.2263281320907501 0 1.0496151027333687 0.3517225008411031 0
          0.9800553826174998 0.3245530414667415 0 0.9528949008226638 0.2566825992312898 0
          0.9084501967377805 0.1538424122960555 0 0.9182129834731212 0 0
          1.0000000001551186 0 0 1.0000000001551186 0 0
          1.0000000001551186 0 0 1.0019403813604784 0 0
          1.0000000001551186 0 0 1.0000000001551186 0 0
          1.0000000001551186 0 0 1.0000000001551186 0 0
          2.743634503103132 0.1501054022555168 0 2.7957254540071252 0 0
          0.1523356202083559 0.29065496181216566 0 0.2720272679014382 0.2881372611439696 0
          0.9794834619699597 0.25049068976071265 0 1.0331189804576393 0.27049519551620055 0
          1.9719713875130798 0.2530554737856844 0 2.0528351283012727 0.16928924441186763 0
          0.10216585968725946 0.257683233380418 0 0.005977244869102729 0.016173993731211315 0
          <InformationKey name="L2_NORM_RANGE" location="vtkDataArray" length="2">
            <Value index="0">
              2.4552746864e-23
            </Value>
            <Value index="1">
              2.795725454
            </Value>
          </InformationKey>
        </DataArray>
        <DataArray type="Float64" Name="Pressure" format="ascii" RangeMin="-2.8786312478241047" RangeMax="6.887695384428924">
          -1.8862191404154678 -1.62818458883191 -2.1763096105341835 -0.4213774216510354 -2.4782112158283622 -0.49657258464807075
          -1.3256092704153883 -2.1928258559161353 -2.4091373244459646 1.4021615075293288 -1.944127454867741 0.5549131960146438
          -1.1625489921095213 -2.477361253989896 -2.3291804539157006 -1.4504204975402661 -2.4390734051771323 0.3344172482158729
          -2.433101188096873 -2.09358020490608 -2.2156061701602123 -0.39623540877426594 1.916941871230898 -2.4133308951362276
          -1.9685079559306902 0.9556239543880211 -0.7513706653444057 0.12951148194998607 3.2107654339828975 1.0537626072945763
          -0.44727330029447576 2.7162645341668403 4.770098338294737 5.938418352910355 1.1029364985787349 1.5049607254924564
          2.2362985377638886 6.613007595763916 2.0997856482113537 1.9210835609590957 6.81819493330686 3.4012348861847257
          5.39032881112844 6.887695384428924 2.6125806165267225 3.192886070624792 4.567328674956922 2.8738735127310857
          3.109094744146934 6.1643095373837244 3.2990873362373216 4.187293789519857 3.2975777051771287 5.560808867659842
          6.876897044012869 4.027309488959531 3.3621701816319556 6.77136020480616 4.9846129137382515 6.486702462212493
          3.465373260657079 3.845811214735188 3.540276329257062 4.585517168236767 6.745654845632351 5.385479291502994
          6.048756518795773 3.6857235921323976 6.3927055608360845 6.442647317714051 4.047056576470346 4.5076514256257
          5.196949352314173 5.721563206648835 6.084416407656756 6.2490663389640595 3.698297760405717 3.8992464689372404
          4.417778103972685 6.13178075987237 5.091530372882369 5.632755714123038 5.961146650597528 6.071745152129988
          -2.8786312478241047 -2.566799097020801 -2.5197949918581557 -2.5346774229091897 -2.499440096717836 -2.6922828373110925
          -2.6201240055796347 -2.878344764423382 -2.4737128966673603 -2.344696630148235
        </DataArray>
        <DataArray type="Float64" Name="BTraction" NumberOfComponents="3" format="ascii" RangeMin="0" RangeMax="6.8320327453364325">
          -0.00283376147389907 1.7291964787286351 0 0 0 0
          0 0 0 -0.007713598927633205 0.31338688453521485 0
          0 0 0 0 0 0
          0 0 0 0 0 0
          0 0 0 -0.00728649843918786 -1.374856783650888 0
          0 0 0 0 0 0
          0 0 0 0 0 0
          0 0 0 0 0 0
          0 0 0 0 0 0
          0 0 0 0 0 0
          -1.5832556962149675 -0.25389504270096447 0 0 0 0
          0 0 0 -2.2696624618091183 0.6848247201810181 0
          0 0 0 0 0 0
          0 0 0 -1.008677375237947 -0.29782223983203543 0
          -3.0822981524285162 0.6934707053492353 0 0 0 0
          0 0 0 -0.0003830584942194151 -2.6830488419916336 0
          -4.6500492635003985 1.2422310971655128 0 -5.70168425788224 1.5144418880602244 0
          0 0 0 0 0 0
          0 0 0 -6.396162888176519 1.508976877364375 0
          0 0 0 0 0 0
          -6.752772166939583 1.0376605874539897 0 0 0 0
          0 0 0 -3.433375318115458 3.7777928702824033 0
          0 0 0 0 0 0
          0 0 0 0 0 0
          0 0 0 0 0 0
          0 0 0 0 0 0
          0 0 0 0 0 0
          -0.004064898208066452 6.822843770490934 0 0 0 0
          0 0 0 0 0 0
          0 0 0 0 0 0
          0 0 0 0 0 0
          0.0035814526662369187 -3.457733478581962 0 0 0 0
          -0.006735621527678837 6.655189509141707 0 0 0 0
          0 0 0 0 0 0
          0 0 0 -0.007438453406615043 6.412974718655824 0
          0 0 0 0 0 0
          0 0 0 0 0 0
          0 0 0 -0.003022301738584069 6.223214833478929 0
          1.8802510050377563 -1.8357200439763794 0 3.939039957432212 -0.009738893866247973 0
          4.426617874915525 -0.015936508484255513 0 0.000483941684616721 6.128279841914278 0
          5.049737483763935 -0.0188208289399637 0 5.591669286735033 -0.017343967787571364 0
          5.924263687141888 -0.008138733407925373 0 3.480797552776881 2.577893784803595 0
          0 0 0 -0.00034506939637544715 2.506983666488522 0
          0 0 0 0 0 0
          0 0 0 0 0 0
          0 0 0 0 0 0
          0 0 0 -2.247811378719836 0.6592783531012617 0
          <InformationKey name="L2_NORM_RANGE" location="vtkDataArray" length="2">
            <Value index="0">
              0
            </Value>
            <Value index="1">
              6.8320327453
            </Value>
          </InformationKey>
        </DataArray>
        <DataArray type="Float64" Name="ALEdispl" NumberOfComponents="3" format="ascii" RangeMin="0" RangeMax="2.644670174439314">
          0 0 0 0.8295639389749527 -0.09711009296422074 0
          1.6347146732271503 -0.34930208465888013 0 0 0 0
          2.0949677906605517 -0.5634518860321308 0 1.0389169184845652 -0.15956865911865914 0
          1.9331209232330888 -0.4259632630528432 0 2.2582587042011255 -0.5897420181757501 0
          2.4144194258606424 -0.648966673538551 0 0 0 0
          2.368829006552815 -0.5330508893436997 0 1.3398301733276936 -0.19702767899704016 0
          2.251266926396607 -0.40745141186713063 0 2.4555786944328197 -0.6714712468226561 0
          2.5404008203329367 -0.560677219987336 0 2.468871810030947 -0.42676691094812 0
          2.3618489559658697 -0.6427409275877422 0 2.108251070329793 -0.27996251485620866 0
          2.554113396202326 -0.5428958147280777 0 2.616015544697862 -0.38825636049911993 0
          2.436585722463201 -0.4804247801505787 0 2.5103929935678826 -0.2684339966473619 0
          1.1353310976005866 -0.09675105482922504 0 1.9795641809642028 -0.40885010059621835 0
          2.604459976263909 -0.31496286087059006 0 2.2634280727400564 -0.192054556834426 0
          2.6029347387531385 -0.20922332360554796 0 2.4839677384510614 -0.17615644912385522 0
          2.029406329556259 -0.10659215742036673 0 2.4305915803097298 -0.12520728051664745 0
          2.55884811186342 -0.09852003995592959 0 0 0 0
          1.5440644362884948 -0.037275355076356695 0 1.0144644140575796 0.028305238400658423 0
          2.501016113385972 -0.04129462772445467 0 2.367287932438818 0.01533709902938202 0
          1.9854141382714845 -0.0818814270168644 0 0.505245842891463 0.07501166798745769 0
          2.3135578313383114 -0.014425425112939889 0 2.420251569204883 0.06592422892611438 0
          0.15067002337012048 0.0697572968373063 0 2.0292509837627764 0.14446738903733108 0
          1.3208576562338736 0.16104413616875138 0 0 0 0
          2.3117932151082865 0.07739280004121525 0 2.2166180954822767 0.19163193310245927 0
          1.6130493598481899 0.2376836229247396 0 2.0817558399295657 0.021507358178708715 0
          0.9601094834375539 -0.13080245129365425 0 0.9055376222668103 0.2637578470814306 0
          2.195509033981656 0.17890262446771782 0 1.8876035217105227 0.3095087813801904 0
          2.081985799727859 0.12393448696252538 0 1.2647851111376471 0.3459308445356435 0
          0 0 0 1.9807075226812427 0.29787027297879826 0
          1.8715193244330692 0.09379771738605233 0 0.24329286904872413 0.1864132553711798 0
          1.529336843032289 0.3910431265354547 0 0.5798048084492661 0.30263642760260884 0
          1.4934258327317707 -0.044262453241893165 0 1.8277083313394904 0.18464500513821333 0
          0 0 0 1.6634169254068643 0.3790939012905141 0
          0 0 0 1.2067014749122646 0.4548503272221793 0
          0.7842284739385803 0.44461925709454225 0 0.7700932242836996 -0.16531191628532238 0
          0.3723929026235329 0.28985597234875626 0 0 0 0
          0.94880677022612 0.025379781814735578 0 1.1013133017889019 0.23457611081401605 0
          0.883898714608946 0.36302593544790546 0 0.6516941648529544 0.3971232078068721 0
          0.3658013192442509 0.3117068999969086 0 0 0 0
          0 0 0 0 0 0
          0 0 0 0 0 0
          0 0 0 0 0 0
          0 0 0 0 0 0
          1.3487423983003115 -0.14126026506591746 0 0 0 0
          2.2827407739011805 -0.7632146379918308 0 2.336058248329218 -0.7449137209266891 0
          2.2735923837309717 -0.6819935651610659 0 2.11285876573531 -0.6568019501971727 0
          1.887559833081554 -0.485439801077465 0 1.6975910871841393 -0.38512916485434767 0
          2.0655405378310943 -0.7004042099659292 0 1.4849958212691 -0.3295512410734753 0
          <InformationKey name="L2_NORM_RANGE" location="vtkDataArray" length="2">
            <Value index="0">
              0
            </Value>
            <Value index="1">
              2.6446701744
            </Value>
          </InformationKey>
        </DataArray>
        <DataArray type="Float64" Name="ALEveloc" NumberOfComponents="3" format="ascii" RangeMin="0" RangeMax="0.0354987057726018">
          0 0 0 0.011459385474502204 0.0009438890385494447 0
          0.022313989658991673 -0.0005987992834926015 0 0 0 0
          0.028077898470004747 -0.0023624466706517744 0 0.014349362041333968 0.00007761927606103614 0
          0.026367577598735092 -0.0011908769681869824 0 0.030230935095929556 -0.002349054388063987 0
          0.03183304972631129 -0.0026312944594700793 0 0 0 0
          0.03186989262122841 -0.0013601907452844841 0 0.01848634133385829 -0.00020298255929562803 0
          0.03066609571587353 -0.0002082902867027725 0 0.031727106078762723 -0.0025990121290051516 0
          0.0336752112679779 -0.001001080079516381 0 0.033517138099823374 0.0004956624744077986 0
          0.029553629552144578 -0.001961579288967008 0 0.029252396340846865 0.0007854257950204446 0
          0.033224022937869524 -0.00036927949558684947 0 0.0351256886492588 0.002158517947475458 0
          0.030476566781019176 0.0009887749104805499 0 0.03422552811806279 0.0035064132814907056 0
          0.016134152906958743 0.0005444505173404224 0 0.02235769003138266 0.00342450263903038 0
          0.03435953707428352 0.004008695825835407 0 0.031051464911197257 0.003909425152362533 0
          0.035060279610585 0.005561915601422773 0 0.03221759013848002 0.006423109994128151 0
          0.024040118942599165 0.008204381528301719 0 0.0330043703123688 0.006380493120148323 0
          0.03394814657234013 0.007811108892215951 0 0 0 0
          0.016813051408328672 0.008320787231871789 0 0.010988792062444297 0.007239996607042241 0
          0.03348922133559196 0.00847936265738225 0 0.030599610470385397 0.009880501221503187 0
          0.0271588487077854 0.005680245676542378 0 0.006333052193757793 0.005431433813456205 0
          0.031000144330985968 0.008288381478800656 0 0.03190401978116508 0.010381939349666053 0
          0.0029178198250720544 0.0032300102123881957 0 0.025462585354320222 0.011426918609387798 0
          0.01502671070483963 0.009782194830118773 0 0 0 0
          0.03056121790858768 0.010030753314679716 0 0.02880244890953243 0.012084205590117247 0
          0.01978464123806445 0.011572762893005184 0 0.027465873632476878 0.008428906391607295 0
          0.013295141655139897 0.001935162807517793 0 0.010492420490622711 0.008998312783596751 0
          0.028711468454277078 0.01135932170271059 0 0.024164082425441435 0.013004198648056686 0
          0.027228126819696108 0.010011453545376026 0 0.015379421282542438 0.011635352924875497 0
          0 0 0 0.025829927819332354 0.012563025790572335 0
          0.024355798364910974 0.008910120087345652 0 0.003046863169670455 0.003837186775972723 0
          0.01951778142564109 0.012920006231881276 0 0.0068079735032475774 0.0076594518439633275 0
          0.01896348506113954 0.005891769405745567 0 0.02365509320432846 0.009892160700187058 0
          0 0 0 0.021693365593271174 0.012425284018970584 0
          0 0 0 0.015622453233818057 0.012398508182833945 0
          0.009898546947644249 0.010532662628978562 0 0.009239068516885052 0.0015876302538022635 0
          0.0043614099932722805 0.005949264473422866 0 0 0 0
          0.011805034458064023 0.004339694381331215 0 0.01426470405452851 0.007653075203071458 0
          0.011733823118633246 0.008816762797625888 0 0.008620456995112935 0.008490106603195935 0
          0.0046405787686661926 0.00592160457655222 0 0 0 0
          0 0 0 0 0 0
          0 0 0 0 0 0
          0 0 0 0 0 0
          0 0 0 0 0 0
          0.018491718777633448 0.0012660916427712776 0 0 0 0
          0.028814716024485598 -0.0038102615098822845 0 0.030235031245357202 -0.003862499212311521 0
          0.030011513008827873 -0.0034045901720858307 0 0.028028450900984492 -0.003468787283093633 0
          0.025454440153955815 -0.0018549388494870644 0 0.02295948264222858 -0.0010519721488190248 0
          0.025013938577165717 -0.0023704987010846335 0 0.015290266879069314 0.004986154106348284 0
          <InformationKey name="L2_NORM_RANGE" location="vtkDataArray" length="2">
            <Value index="0">
              0
            </Value>
            <Value index="1">
              0.035498705773
            </Value>
          </InformationKey>
        </DataArray>
      </PointData>
      <CellData>
        <DataArray type="UInt8" Name="vtkGhostType" format="ascii" RangeMin="0" RangeMax="1">
          0 0 0 0 0 0
          0 0 1 0 0 1
          0 1 0 0 1 1
          1 0 0 0 0 0
          1 1 0 1 1 0
          1 1 0 1 0 0
          0 0 0 0 0 0
          0 0 0 0 0 0
          0 0 0 0 0 0
          0 0 0 0 0 0
          0 0 0 0 0 0
          0 0 0 0 0 0
          0 0 0 0 0 0
          0 0 0 0 0 0
          0 1 0 0 0 0
          0 0 0 1 0 0
          0 0 0 0 0 1
          0 0 0 0 0 0
          0 0 0 0 0 0
          0 0 0 0 0 0
          0 0 0 0 0 0
          0 0 0 0 0 0
          0 1 0 0 0 0
          0 0 0 0 0 0
          0 0 0 0 0 0
        </DataArray>
        <DataArray type="Float64" Name="PStrain" NumberOfComponents="6" format="ascii" RangeMin="0.0065965596458955654" RangeMax="2.277449654867819">
          0.010023697775678249 0.010023697775678249 0 0.010023697775678249 0 0
          0.012181828527699494 0.012181828527699494 0 0.012181828527699494 0 0
          0.014806345888564599 0.014806345888564599 0 0.014806345888564599 0 0
          0.011970751072734948 0.011970751072734948 0 0.011970751072734948 0 0
          0.008702963546058479 0.008702963546058479 0 0.008702963546058479 0 0
          0.0082884373553827 0.0082884373553827 0 0.0082884373553827 0 0
          0.007533661484724343 0.007533661484724343 0 0.007533661484724343 0 0
          0.010570071454531605 0.010570071454531605 0 0.010570071454531605 0 0
          0.009137835181622365 0.009137835181622365 0 0.009137835181622365 0 0
          0.0075410335198969215 0.0075410335198969215 0 0.0075410335198969215 0 0
          0.009356507707114787 0.009356507707114787 0 0.009356507707114787 0 0
          0.00582254696920564 0.00582254696920564 0 0.00582254696920564 0 0
          0.0071717660411284145 0.0071717660411284145 0 0.0071717660411284145 0 0
          0.004759899459310953 0.004759899459310953 0 0.004759899459310953 0 0
          0.07689843768842444 0.07689843768842444 0 0.07689843768842444 0 0
          0.051872686081335426 0.051872686081335426 0 0.051872686081335426 0 0
          0.09044851197410755 0.09044851197410755 0 0.09044851197410755 0 0
          0.09242551846846961 0.09242551846846961 0 0.09242551846846961 0 0
          0.045851198595472785 0.045851198595472785 0 0.045851198595472785 0 0
          0.05329262153399315 0.05329262153399315 0 0.05329262153399315 0 0
          0.04104672781023991 0.04104672781023991 0 0.04104672781023991 0 0
          0.023676372983578445 0.023676372983578445 0 0.023676372983578445 0 0
          0.02018612841969724 0.02018612841969724 0 0.02018612841969724 0 0
          0.02372039505049505 0.02372039505049505 0 0.02372039505049505 0 0
          0.042112001789725455 0.042112001789725455 0 0.042112001789725455 0 0
          0.024752877230582608 0.024752877230582608 0 0.024752877230582608 0 0
          0.021417196307788537 0.021417196307788537 0 0.021417196307788537 0 0
          0.028445532932903306 0.028445532932903306 0 0.028445532932903306 0 0
          0.01722899619030906 0.01722899619030906 0 0.01722899619030906 0 0
          0.024633227761884157 0.024633227761884157 0 0.024633227761884157 0 0
          0.015520714730632348 0.015520714730632348 0 0.015520714730632348 0 0
          0.013239596181850371 0.013239596181850371 0 0.013239596181850371 0 0
          0.014912880810849734 0.014912880810849734 0 0.014912880810849734 0 0
          0.006978879542889178 0.006978879542889178 0 0.006978879542889178 0 0
          0.09999999999999999 0.09999999999999999 0 0.09999999999999999 0 0
          0.004915247800292534 0.004915247800292534 0 0.004915247800292534 0 0
          0.011738090688125409 0.011738090688125409 0 0.011738090688125409 0 0
          0.007550908831568127 0.007550908831568127 0 0.007550908831568127 0 0
          0.005576373534106357 0.005576373534106357 0 0.005576373534106357 0 0
          0.014228957554574869 0.014228957554574869 0 0.014228957554574869 0 0
          0.02804413068685356 0.02804413068685356 0 0.02804413068685356 0 0
          0.03349440398849087 0.03349440398849087 0 0.03349440398849087 0 0
          0.013521814751182824 0.013521814751182824 0 0.013521814751182824 0 0
          0.04368777121636243 0.04368777121636243 0 0.04368777121636243 0 0
          0.0200236729649306 0.0200236729649306 0 0.0200236729649306 0 0
          0.056760301160955234 0.056760301160955234 0 0.056760301160955234 0 0
          0.01259397852425297 0.01259397852425297 0 0.01259397852425297 0 0
          0.008185086607853227 0.008185086607853227 0 0.008185086607853227 0 0
          0.050450426478163876 0.050450426478163876 0 0.050450426478163876 0 0
          0.032241359684191485 0.032241359684191485 0 0.032241359684191485 0 0
          0.03753746645729429 0.03753746645729429 0 0.03753746645729429 0 0
          0.02488972418454905 0.02488972418454905 0 0.02488972418454905 0 0
          0.010206479912924829 0.010206479912924829 0 0.010206479912924829 0 0
          0.015711385504613574 0.015711385504613574 0 0.015711385504613574 0 0
          0.030090756674965913 0.030090756674965913 0 0.030090756674965913 0 0
          0.03017923685828853 0.03017923685828853 0 0.03017923685828853 0 0
          0.027835726155162457 0.027835726155162457 0 0.027835726155162457 0 0
          0.01333590182848213 0.01333590182848213 0 0.01333590182848213 0 0
          0.017183367505373495 0.017183367505373495 0 0.017183367505373495 0 0
          0.012271479498170444 0.012271479498170444 0 0.012271479498170444 0 0
          0.004291008944412813 0.004291008944412813 0 0.004291008944412813 0 0
          0.0075544816975327694 0.0075544816975327694 0 0.0075544816975327694 0 0
          0.013795773402568583 0.013795773402568583 0 0.013795773402568583 0 0
          0.011214924776876361 0.011214924776876361 0 0.011214924776876361 0 0
          0.009303638400084304 0.009303638400084304 0 0.009303638400084304 0 0
          0.006297293724352828 0.006297293724352828 0 0.006297293724352828 0 0
          0.003808525487283227 0.003808525487283227 0 0.003808525487283227 0 0
          1.3148861713037556 1.3148861713037556 0 1.3148861713037556 0 0
          0.8435537431038176 0.8435537431038176 0 0.8435537431038176 0 0
          0.8626926669462192 0.8626926669462192 0 0.8626926669462192 0 0
          0.8981136282171023 0.8981136282171023 0 0.8981136282171023 0 0
          0.21152757283374835 0.21152757283374835 0 0.21152757283374835 0 0
          0.2370624093324808 0.2370624093324808 0 0.2370624093324808 0 0
          1.143107146539115 1.143107146539115 0 1.143107146539115 0 0
          0.572052662294434 0.572052662294434 0 0.572052662294434 0 0
          0.1512379097130476 0.1512379097130476 0 0.1512379097130476 0 0
          0.23252366770351718 0.23252366770351718 0 0.23252366770351718 0 0
          0.06077149257546398 0.06077149257546398 0 0.06077149257546398 0 0
          0.3020059798651849 0.3020059798651849 0 0.3020059798651849 0 0
          0.20905704042842688 0.20905704042842688 0 0.20905704042842688 0 0
          0.1976107817861878 0.1976107817861878 0 0.1976107817861878 0 0
          0.562961458007313 0.562961458007313 0 0.562961458007313 0 0
          0.1582712209265666 0.1582712209265666 0 0.1582712209265666 0 0
          0.24586703160497952 0.24586703160497952 0 0.24586703160497952 0 0
          0.12284539370895983 0.12284539370895983 0 0.12284539370895983 0 0
          0.2721971578857469 0.2721971578857469 0 0.2721971578857469 0 0
          0.08303816980406611 0.08303816980406611 0 0.08303816980406611 0 0
          0.05541031197027714 0.05541031197027714 0 0.05541031197027714 0 0
          0.3648399743094858 0.3648399743094858 0 0.3648399743094858 0 0
          0.07123985362867971 0.07123985362867971 0 0.07123985362867971 0 0
          0.021955379960932338 0.021955379960932338 0 0.021955379960932338 0 0
          0.08103936457992479 0.08103936457992479 0 0.08103936457992479 0 0
          0.02766967501465494 0.02766967501465494 0 0.02766967501465494 0 0
          0.250731452486436 0.250731452486436 0 0.250731452486436 0 0
          0.1454964749726097 0.1454964749726097 0 0.1454964749726097 0 0
          0.08122014111366349 0.08122014111366349 0 0.08122014111366349 0 0
          0.31104868957088977 0.31104868957088977 0 0.31104868957088977 0 0
          0.09272720550059042 0.09272720550059042 0 0.09272720550059042 0 0
          0.052363735629322825 0.052363735629322825 0 0.052363735629322825 0 0
          0.14618539209293152 0.14618539209293152 0 0.14618539209293152 0 0
          0.07453663241804326 0.07453663241804326 0 0.07453663241804326 0 0
          0.1461615852830079 0.1461615852830079 0 0.1461615852830079 0 0
          0.03353515274884095 0.03353515274884095 0 0.03353515274884095 0 0
          0.17960652376948325 0.17960652376948325 0 0.17960652376948325 0 0
          0.1676275383906792 0.1676275383906792 0 0.1676275383906792 0 0
          0.189345270048506 0.189345270048506 0 0.189345270048506 0 0
          0.032442717144693975 0.032442717144693975 0 0.032442717144693975 0 0
          0.029335080405456494 0.029335080405456494 0 0.029335080405456494 0 0
          0.14831662319404082 0.14831662319404082 0 0.14831662319404082 0 0
          0.08929242127146203 0.08929242127146203 0 0.08929242127146203 0 0
          0.08412158858718236 0.08412158858718236 0 0.08412158858718236 0 0
          0.027670478327071875 0.027670478327071875 0 0.027670478327071875 0 0
          0.17639800997082095 0.17639800997082095 0 0.17639800997082095 0 0
          0.04463997132211987 0.04463997132211987 0 0.04463997132211987 0 0
          0.07086806273634393 0.07086806273634393 0 0.07086806273634393 0 0
          0.0491802754556678 0.0491802754556678 0 0.0491802754556678 0 0
          0.07212818871747685 0.07212818871747685 0 0.07212818871747685 0 0
          0.056889819551845355 0.056889819551845355 0 0.056889819551845355 0 0
          0.03720594708838136 0.03720594708838136 0 0.03720594708838136 0 0
          0.08551314459651752 0.08551314459651752 0 0.08551314459651752 0 0
          0.10128736095261112 0.10128736095261112 0 0.10128736095261112 0 0
          0.09374450761044156 0.09374450761044156 0 0.09374450761044156 0 0
          0.01516205035253072 0.01516205035253072 0 0.01516205035253072 0 0
          0.10538842223509792 0.10538842223509792 0 0.10538842223509792 0 0
          0.09200729861214937 0.09200729861214937 0 0.09200729861214937 0 0
          0.02818176902107921 0.02818176902107921 0 0.02818176902107921 0 0
          0.050273096216188286 0.050273096216188286 0 0.050273096216188286 0 0
          0.06726992723475714 0.06726992723475714 0 0.06726992723475714 0 0
          0.06918150441348281 0.06918150441348281 0 0.06918150441348281 0 0
          0.263697003706005 0.263697003706005 0 0.263697003706005 0 0
          0.03131859147414275 0.03131859147414275 0 0.03131859147414275 0 0
          0.017046264314908494 0.017046264314908494 0 0.017046264314908494 0 0
          0.057101524734487055 0.057101524734487055 0 0.057101524734487055 0 0
          0.2529801428336935 0.2529801428336935 0 0.2529801428336935 0 0
          0.0735195847124748 0.0735195847124748 0 0.0735195847124748 0 0
          0.11799028321861416 0.11799028321861416 0 0.11799028321861416 0 0
          0.114619553856312 0.114619553856312 0 0.114619553856312 0 0
          0.055384317918544326 0.055384317918544326 0 0.055384317918544326 0 0
          0.018171164601515515 0.018171164601515515 0 0.018171164601515515 0 0
          0.015182885961309251 0.015182885961309251 0 0.015182885961309251 0 0
          0.03799950486058219 0.03799950486058219 0 0.03799950486058219 0 0
          0.01173809068812541 0.01173809068812541 0 0.01173809068812541 0 0
          0.08083625044614055 0.08083625044614055 0 0.08083625044614055 0 0
          0.015240315186092878 0.015240315186092878 0 0.015240315186092878 0 0
          0.04239920704643056 0.04239920704643056 0 0.04239920704643056 0 0
          0.026271331537578928 0.026271331537578928 0 0.026271331537578928 0 0
          0.026187779868294576 0.026187779868294576 0 0.026187779868294576 0 0
          0.03732819396325284 0.03732819396325284 0 0.03732819396325284 0 0
          0.04000352354025459 0.04000352354025459 0 0.04000352354025459 0 0
          0.026421888240837303 0.026421888240837303 0 0.026421888240837303 0 0
          <InformationKey name="L2_NORM_RANGE" location="vtkDataArray" length="2">
            <Value index="0">