<?xml version="1.0"?>
<VTKFile type="UnstructuredGrid" version="0.1" byte_order="LittleEndian" header_type="UInt32" compressor="vtkZLibDataCompressor">
  <UnstructuredGrid>
    <Piece NumberOfPoints="97" NumberOfCells="154">
      <PointData>
        <DataArray type="Float64" Name="Velocity" NumberOfComponents="3" format="ascii" RangeMin="0" RangeMax="2.8491606240012333">
          1.0881115079675883 0.02772065706170406 0 1.1432637991161658 0 0
          0.9530859812659371 -0.014817349997612677 0 0.9607493968683015 -0.0296633354314991 0
          0.961793460553788 -0.02181624612814228 0 1.285790467797417 0 0
          0.9827718210698991 -0.0026414665772065984 0 0.9428550279200545 0 0
          0.9501055030563847 -0.013770539837526333 0 0.9235625198728133 -0.10821859786625526 0
          1.5839122132539083 0 0 0.9063069807094729 0 0
          0.7101878088265473 0 0 2.2276834411107984 0 0
          0.9253752510962223 -0.6466955432959131 0 2.0424348830436636 -0.34762208296993913 0
          0.007626365133905855 0 0 2.6769879663453713 0 0
          0.0345349240595072 -0.4884396051846249 0 1.2564690577826723 -0.44215328155012856 0
          2.5038449272109586 -0.16200352260837658 0 -0.5960703234791309 0 0
          2.819194776649486 0 0 -0.44607744287884854 -0.37905643068150374 0
          1.1274327280379919 -0.3083749337817284 0 2.7446236290570596 -0.07923476301085594 0
          -1.1177512277244546 0 0 2.8491606240012333 0 0
          -0.7130555332496524 -0.04936453252709119 0 1.714675208573088 -0.1454846413432941 0
          0.1967524847931525 0.008939589706205564 0 2.8400370016393954 0.015116348506321011 0
          -1.1622886224238196 0 0 2.7957254540071252 0 0
          2.0498457801989707 -0.07053790019312317 0 0.3204584278518301 0.17021505313922966 0
          -0.6521622313255276 0.14790342808854662 0 -0.9940639965277998 0 0
          2.743634503103132 0.1501054022555168 0 0.7638318294260952 0.2684690132548269 0
          -0.19180124087061268 0.34320809001697317 0 2.0528351283012727 0.16928924441186763 0
          -0.533510571730216 0.21495860875421896 0 0.320592542135511 0.41891927287093306 0
          0.6242616563429959 0.33754398945738695 0 0.06565227716082772 0.43436731455768135 0
          -0.7064762643273231 0 0 1.2205345318431977 0.19955238191781907 0
          -0.2770466424776873 0.3318924600491864 0 1.9719713875130798 0.2530554737856844 0
          0.3066505463766463 0.43428202661801396 0 -0.4801048854435821 0.17495494546727125 0
          -0.07773530511407892 0.4046062070886438 0 0.4521497457563773 0.324157424952747 0
          -0.3328985409304812 0.29117626928698426 0 0.11439545497496628 0.4290516922453337 0
          1.0331189804576393 0.27049519551620055 0 -0.17219764197630655 0.36869266675943857 0
          0.25969419113667935 0.38231196002619733 0 -0.4217434312388467 0 0
          -0.012335826485983574 0.4061380488640087 0 -0.2972528681128118 0.1799594024525455 0
          0.3581018545763577 0.2922187583040905 0 -0.19823646280963908 0.27677243675354585 0
          0.12744236893702993 0.40662586965373826 0 0.9794834619699597 0.25049068976071265 0
          -0.08199874824957011 0.334509058751095 0 0.20885264798316092 0.3678674517277893 0
          0.04341901527081764 0.36614740067913026 0 0.2720272679014382 0.2881372611439696 0
          -0.15538068045524467 0.1532061330784048 0 0.13548261122158445 0.35816452163437446 0
          -0.2133374749975514 0 0 -0.0950104076339641 0.22453549321718727 0
          0.1523356202083559 0.29065496181216566 0 -0.003108421864841518 0.2872572397307337 0
          0.06746667647137598 0.2873322409971131 0 0.10216585968725946 0.257683233380418 0
          -0.07450053023401901 -7.403783253843378e-24 0 -0.012560490454541915 0.16936026258902742 0
          0.037258440952537115 0.16367280344070026 0 -0.012381101025231626 0.06128531376382952 0
          0.005977244869102729 0.016173993731211315 0 -0.017578419711845136 4.655271198226574e-23 0
          0.002389188209717858 0.01367612561700065 0 0.0008921052991317426 0.00968508197071342 0
          0.0008218697556102218 0.004814476113521539 0 0 0 0
          2.614362330488782 0.20523366997085005 0 2.697395506506939 0.32003834729933084 0
          2.6798272250586224 0 0 0.2808083826297723 0.2441554594756603 0
          0.998533110818214 0.33085625509686123 0 1.9713555090522756 0.37382057387666395 0
          1.9134158688778777 0.3920235856125489 0 0.07094581101460964 0.18419188173005444 0
          0.012730309175761687 0.015872851318248393 0
          <InformationKey name="L2_NORM_RANGE" location="vtkDataArray" length="2">
            <Value index="0">
              0
            </Value>
            <Value index="1">
              2.849160624
            </Value>
          </InformationKey>
        </DataArray>
        <DataArray type="Float64" Name="Pressure" format="ascii" RangeMin="-3.835711253668669" RangeMax="0.16473870083541697">
          -0.08207624189778162 0.03965552267716418 -0.008586356733963366 0.04401716260452161 -0.02211054236945837 0.16473870083541697
          -0.007581611859954207 -0.03287276629809108 -0.07270601135057424 -0.06937497800774577 -0.17387842795115038 -0.11060989662333076
          0.08293279291843192 -0.7100385622211516 -0.6532026280714391 -1.5093126319233248 -0.46487136348868763 -2.0021297056094403
          -1.3805358638345453 -2.3860641825521878 -2.4351402074908717 -1.6243566941924068 -2.750045934702634 -2.576380506805495
          -3.489501550569568 -2.9593425186411975 -3.021775676437043 -2.8911419072761646 -3.595485350547273 -3.7082168278376972
          -3.835711253668669 -2.9989314272599676 -3.433632198666652 -2.566799097020801 -3.5208393465880485 -3.7749267966812736
          -3.6074949711442073 -3.1853679550474348 -2.8786312478241047 -3.424296450505522 -3.3169388627000957 -2.878344764423382
          -2.9686865000882783 -3.182731227543278 -3.055658193038488 -3.036351017656018 -2.7602986620804844 -2.868446289601311
          -2.8874256277153965 -2.6201240055796347 -2.9396212134865345 -2.687120463803309 -2.845481456502328 -2.816234680380597
          -2.6702395113939312 -2.799970443570031 -2.6922828373110925 -2.668803053050122 -2.726046346111044 -2.4626131961835327
          -2.658107460835082 -2.474532206384338 -2.631174784458834 -2.4860609185494216 -2.635318429369831 -2.499440096717836
          -2.506550666571922 -2.5965948961369785 -2.523890107250742 -2.5346774229091897 -2.33014008324526 -2.53325961662904
          -2.3051106073052066 -2.35444402887444 -2.5197949918581557 -2.3963016924069533 -2.4256483467764762 -2.4737128966673603
          -2.2228393697529674 -2.280012332748865 -2.336539030552617 -2.1988131114357596 -2.344696630148235 -2.1754318510427537
          -2.275707244330959 -2.199939039956132 -2.1654061693233695 -2.156387774014965 -1.62818458883191 -2.1763096105341835
          -1.8862191404154678 -2.477361253989896 -2.4091373244459646 -2.1928258559161353 -2.4782112158283622 -2.4390734051771323
          -2.4133308951362276
        </DataArray>
        <DataArray type="Float64" Name="BTraction" NumberOfComponents="3" format="ascii" RangeMin="0" RangeMax="3.325960239816968">
          0.030920387078928867 0.021938437044904217 0 0.005306446248560886 -0.03853561842829813 0
          0.01948485559647728 0.001495695970128967 0 0 0 0
          0 0 0 0.009841622711053842 -0.08409702169529452 0
          0.003961946007614215 -0.006943308890449531 0 -0.0007606195170440862 -0.04009805672416229 0
          0 0 0 0 0 0
          0.018818012003624773 0.22227798562191614 0 -0.001243463837175717 -0.06418439052846946 0
          -0.009564557812497132 -0.02724323153181293 0 0.023044706047246528 0.8299781806180113 0
          0 0 0 0 0 0
          -0.01731968102699001 -0.5027081055144555 0 0.016887488439331053 1.8911602825987557 0
          0 0 0 0 0 0
          0 0 0 -0.018065335594048566 -1.5652012045702728 0
          0.008989658625660892 2.6489213739807145 0 0 0 0
          0 0 0 0 0 0
          -0.02068588920083229 -2.8070876115223276 0 0.0023883640391067153 2.819596835292491 0
          0 0 0 0 0 0
          0 0 0 0 0 0
          -0.02198499919973564 -3.325887577272198 0 -0.00034506939637544715 2.506983666488522 0
          0 0 0 0 0 0
          0 0 0 -0.019055546803765984 -3.1838989423040918 0
          0 0 0 0 0 0
          0 0 0 0 0 0
          0 0 0 0 0 0
          0 0 0 0 0 0
          -0.015232302885740172 -2.8314935624276694 0 0 0 0
          0 0 0 0 0 0
          0 0 0 0 0 0
          0 0 0 0 0 0
          0 0 0 0 0 0
          0 0 0 0 0 0
          0 0 0 -0.011590237640205914 -2.530512294662756 0
          0 0 0 0 0 0
          0 0 0 0 0 0
          0 0 0 0 0 0
          0 0 0 0 0 0
          0 0 0 0 0 0
          0 0 0 0 0 0
          -0.006865175412129482 -2.3524314756738343 0 0 0 0
          0 0 0 0 0 0
          0 0 0 0 0 0
          -0.0030899452356092437 -2.25093583187642 0 0 0 0
          0 0 0 0 0 0
          -2.247811378719836 0.6592783531012617 0 -0.0009800918861261347 -2.187632588038408 0
          -2.1862700955783256 0.6032719714937803 0 -2.1380156732786073 0.5134559613109898 0
          -2.134819285861756 0.33645230885362976 0 -1.0353464760789823 -1.0179589912031843 0
          0 0 0 0 0 0
          -0.00283376147389907 1.7291964787286351 0 0 0 0
          0 0 0 0 0 0
          0 0 0 0 0 0
          -2.2696624618091183 0.6848247201810181 0
          <InformationKey name="L2_NORM_RANGE" location="vtkDataArray" length="2">
            <Value index="0">
              0
            </Value>
            <Value index="1">
              3.3259602398
            </Value>
          </InformationKey>
        </DataArray>
        <DataArray type="Float64" Name="ALEdispl" NumberOfComponents="3" format="ascii" RangeMin="0" RangeMax="2.545729828528936">
          0 0 0 0 0 0
          0 0 0 0.2016654662495578 0.03360906216473485 0
          0.13191957620061978 -0.05198763781000709 0 0 0 0
          0 0 0 0 0 0
          0.18840019698971622 -0.018327278491479613 0 0.32183159158093344 0.00421631110939417 0
          0 0 0 0 0 0
          0 0 0 0 0 0
          0.5684822822232973 0.008675800298656926 0 0.41180723836369665 0.06879339087500776 0
          0 0 0 0 0 0
          0.4212984054101743 -0.13424847210445426 0 0.8289643415583117 -0.059487315671192434 0
          0.44168456741323353 0.09317839295424629 0 0 0 0
          0 0 0 0.4689434031044454 -0.19926359069688968 0
          1.0607102208116075 -0.15026151278516833 0 0.5441298426576348 0.08724588144175095 0
          0 0 0 0 0 0
          0.6003162238936051 -0.26919425492861127 0 1.183676743862052 -0.18852510819616553 0
          1.1422607128689042 -0.3675179043565656 0 0.7128653507125059 0.05004321045901948 0
          0 0 0 0 0 0
          1.3051679548479764 -0.244074122200148 0 1.4091102218162928 -0.5227182732953163 0
          0.8111482637062587 -0.45428136601351443 0 0 0 0
          1.3487423983003115 -0.14126026506591746 0 1.7504140174383334 -0.5858485638010238 0
          1.3917080225714016 -0.7653082403035263 0 1.6975910871841393 -0.38512916485434767 0
          0.7007349311093343 -0.5020641664342148 0 1.733434553986605 -0.7605585325540339 0
          1.9145647744546115 -0.6703916656243467 0 1.6526764378695717 -0.8369360198608616 0
          0 0 0 1.9202548387931635 -0.586213371874752 0
          1.13515391402771 -0.7427209207304222 0 1.887559833081554 -0.485439801077465 0
          1.8934813612217882 -0.8175651467009645 0 0.4785289680729221 -0.3785918911446457 0
          1.4657229285885292 -0.8529731074568468 0 2.0595935164001373 -0.7457207163033964 0
          0.8630306408814723 -0.6352918452284909 0 1.7847972811696386 -0.8849156461350879 0
          2.11285876573531 -0.6568019501971727 0 1.2352842599091833 -0.8072688094645923 0
          2.0376067954503205 -0.8493865013419062 0 0 0 0
          1.5864115529164107 -0.8788901650731331 0 0.5440734285587782 -0.44576926640504255 0
          2.204521701990287 -0.77013861144039 0 0.9205475212098467 -0.6775935824764132 0
          1.90693514875856 -0.8817888458139941 0 2.2735923837309717 -0.6819935651610659 0
          1.2997103355677277 -0.7965502469451207 0 2.1672781275628092 -0.8304316937744767 0
          1.6706262667921354 -0.8349668646544047 0 2.336058248329218 -0.7449137209266891 0
          0.5525823124183834 -0.45561673877418035 0 2.0071516386578443 -0.8247677351596968 0
          0 0 0 0.9206518488363628 -0.6241083481115759 0
          2.2827407739011805 -0.7632146379918308 0 1.3161659167251503 -0.6988694721561088 0
          1.6658356737131208 -0.6883465406935977 0 2.0655405378310943 -0.7004042099659292 0
          0 0 0 0.8981542300155279 -0.49283411230015267 0
          1.3046673245433646 -0.5024883038286964 0 0.3709092409385775 -0.26519603592556656 0
          1.4849958212691 -0.3295512410734753 0 0 0 0
          0.9449225100053393 -0.24163411127749787 0 0.46883252499146555 -0.15681863836794913 0
          0.13844388569908744 -0.07996387130270453 0 0 0 0
          0.8295639389749527 -0.09711009296422074 0 1.6347146732271503 -0.34930208465888013 0
          0 0 0 2.4555786944328197 -0.6714712468226561 0
          2.4144194258606424 -0.648966673538551 0 2.2582587042011255 -0.5897420181757501 0
          2.0949677906605517 -0.5634518860321308 0 2.3618489559658697 -0.6427409275877422 0
          1.9795641809642028 -0.40885010059621835 0
          <InformationKey name="L2_NORM_RANGE" location="vtkDataArray" length="2">
            <Value index="0">
              0
            </Value>
            <Value index="1">
              2.5457298285
            </Value>
          </InformationKey>
        </DataArray>
        <DataArray type="Float64" Name="ALEveloc" NumberOfComponents="3" format="ascii" RangeMin="0" RangeMax="0.03194161494680951">
          0 0 0 0 0 0
          0 0 0 0.002751449925290861 0.00045949388541144387 0
          0.0017987791492367067 -0.0007083591986308119 0 0 0 0
          0 0 0 0 0 0
          0.0025686566596273552 -0.0002462804477309684 0 0.004391006276987519 0.00006570142479282552 0
          0 0 0 0 0 0
          0 0 0 0 0 0
          0.00774245254512107 0.0002676071655037058 0 0.00564185983214327 0.001189022371657078 0
          0 0 0 0 0 0
          0.005715553691963859 -0.0016014123490384335 0 0.011314155449350771 -0.0002962697576512907 0
          0.006106608134112679 0.0016925568107688804 0 0 0 0
          0 0 0 0.0063083217434779515 -0.0023468246042223084 0
          0.014422448836270307 -0.0008815477844638375 0 0.007588451539221386 0.0019279668598362887 0
          0 0 0 0 0 0
          0.008039846536776252 -0.003041509584716995 0 0.016189023768522715 -0.0006292466727681467 0
          0.015388930827277214 -0.0034601859547707114 0 0.009939042470232806 0.0019293933846176448 0
          0 0 0 0 0 0
          0.01772491969676615 -0.0007177784877263615 0 0.019047758564137762 -0.004351626575237466 0
          0.010684515355670943 -0.004946468746610311 0 0 0 0
          0.018491718777633448 0.0012660916427712776 0 0.023404153990058685 -0.0038613532543858575 0
          0.01824600710793689 -0.006781301501133763 0 0.02295948264222858 -0.0010519721488190248 0
          0.008867128971648208 -0.004838066160397725 0 0.022845390381887487 -0.005707105745753394 0
          0.025421664365600893 -0.004254455779021393 0 0.021479680332095796 -0.006528407246082724 0
          0 0 0 0.025643646787842478 -0.003093458391294157 0
          0.014535353108104276 -0.006254907472480031 0 0.025454440153955815 -0.0018549388494870644 0
          0.024716262976669512 -0.005774396945589455 0 0.005823010205206591 -0.0032918248205930922 0
          0.01882677513851938 -0.006583712927333396 0 0.02707260600928274 -0.0046479077888696985 0
          0.010774989809449798 -0.005033751898271599 0 0.022904123759801998 -0.006306841580241862 0
          0.028028450900984492 -0.003468787283093633 0 0.015572643999657299 -0.005850449802776048 0
          0.026260616180243446 -0.005588776300311515 0 0 0 0
          0.020042813710410723 -0.005933822773329656 0 0.006462184563220008 -0.003047067778103596 0
          0.028717729310596685 -0.004516470856634758 0 0.011264427211705064 -0.00417923306491752 0
          0.024077024180682027 -0.005631513214535255 0 0.030011513008827873 -0.0034045901720858307 0
          0.016028066837021848 -0.00457222780386668 0 0.02760652358566107 -0.004946383818183131 0
          0.020674654688726424 -0.00459761441348272 0 0.030235031245357202 -0.003862499212311521 0
          0.00651810629276528 -0.0019204238020280595 0 0.02486413588992331 -0.004453979340552916 0
          0 0 0 0.010870109902694436 -0.0020982960302611264 0
          0.028814716024485598 -0.0038102615098822845 0 0.015601288064622354 -0.002242663896836916 0
          0.019889874442135635 -0.0019229458437821645 0 0.025013938577165717 -0.0023704987010846335 0
          0 0 0 0.010222453936656661 0.0006274323412458482 0
          0.014237809395511114 0.0014993757576273747 0 0.004587536127925951 0.001441516720808611 0
          0.015290266879069314 0.004986154106348284 0 0 0 0
          0.00979127279580183 0.004831946918331442 0 0.005503165714675351 0.003626165932062969 0
          0.002311259270603244 0.001715661438492444 0 0 0 0
          0.011459385474502204 0.0009438890385494447 0 0.022313989658991673 -0.0005987992834926015 0
          0 0 0 0.031727106078762723 -0.0025990121290051516 0
          0.03183304972631129 -0.0026312944594700793 0 0.030230935095929556 -0.002349054388063987 0
          0.028077898470004747 -0.0023624466706517744 0 0.029553629552144578 -0.001961579288967008 0
          0.02235769003138266 0.00342450263903038 0
          <InformationKey name="L2_NORM_RANGE" location="vtkDataArray" length="2">
            <Value index="0">
              0
            </Value>
            <Value index="1">
              0.031941614947
            </Value>
          </InformationKey>
        </DataArray>
      </PointData>
      <CellData>
        <DataArray type="UInt8" Name="vtkGhostType" format="ascii" RangeMin="0" RangeMax="0">
          0 0 0 0 0 0
          0 0 0 0 0 0
          0 0 0 0 0 0
          0 0 0 0 0 0
          0 0 0 0 0 0
          0 0 0 0 0 0
          0 0 0 0 0 0
          0 0 0 0 0 0
          0 0 0 0 0 0
          0 0 0 0 0 0
          0 0 0 0 0 0
          0 0 0 0 0 0
          0 0 0 0 0 0
          0 0 0 0 0 0
          0 0 0 0 0 0
          0 0 0 0 0 0
          0 0 0 0 0 0
          0 0 0 0 0 0
          0 0 0 0 0 0
          0 0 0 0 0 0
          0 0 0 0 0 0
          0 0 0 0 0 0
          0 0 0 0 0 0
          0 0 0 0 0 0
          0 0 0 0 0 0
          0 0 0 0
        </DataArray>
        <DataArray type="Float64" Name="PStrain" NumberOfComponents="6" format="ascii" RangeMin="6.933723144004222e-8" RangeMax="0.47145930713396106">
          0.09999999999999999 0.09999999999999999 0 0.09999999999999999 0 0
          0.0000018237632616651507 0.0000018237632616651507 0 0.0000018237632616651507 0 0
          0.000008518382795139755 0.000008518382795139755 0 0.000008518382795139755 0 0
          0.0000016369923121500741 0.0000016369923121500741 0 0.0000016369923121500741 0 0
          0.0000016765884072904389 0.0000016765884072904389 0 0.0000016765884072904389 0 0
          2.4186029751574215e-7 2.4186029751574215e-7 0 2.4186029751574215e-7 0 0
          0.0000011104353889143107 0.0000011104353889143107 0 0.0000011104353889143107 0 0
          1.5699539353261972e-7 1.5699539353261972e-7 0 1.5699539353261972e-7 0 0
          5.241505565743561e-7 5.241505565743561e-7 0 5.241505565743561e-7 0 0
          4.5517796497456085e-7 4.5517796497456085e-7 0 4.5517796497456085e-7 0 0
          1.1495946135857366e-7 1.1495946135857366e-7 0 1.1495946135857366e-7 0 0
          2.0490121869817714e-7 2.0490121869817714e-7 0 2.0490121869817714e-7 0 0
          0.00001360828026295336 0.00001360828026295336 0 0.00001360828026295336 0 0
          8.667910991666327e-8 8.667910991666327e-8 0 8.667910991666327e-8 0 0
          8.667910991666327e-8 8.667910991666327e-8 0 8.667910991666327e-8 0 0
          0.00001360828026295336 0.00001360828026295336 0 0.00001360828026295336 0 0
          4.0031869236771754e-8 4.0031869236771754e-8 0 4.0031869236771754e-8 0 0
          0.000010013183302140975 0.000010013183302140975 0 0.000010013183302140975 0 0
          0.009137835181622365 0.009137835181622365 0 0.009137835181622365 0 0
          0.00582254696920564 0.00582254696920564 0 0.00582254696920564 0 0
          0.008360868511042995 0.008360868511042995 0 0.008360868511042995 0 0
          0.004759899459310953 0.004759899459310953 0 0.004759899459310953 0 0
          0.005512639946703904 0.005512639946703904 0 0.005512639946703904 0 0
          0.005373102133607406 0.005373102133607406 0 0.005373102133607406 0 0
          0.005216629095086635 0.005216629095086635 0 0.005216629095086635 0 0
          0.002856106905930857 0.002856106905930857 0 0.002856106905930857 0 0
          0.0021829013874306263 0.0021829013874306263 0 0.0021829013874306263 0 0
          0.004065885272291722 0.004065885272291722 0 0.004065885272291722 0 0
          0.005267765141962099 0.005267765141962099 0 0.005267765141962099 0 0
          0.0020923414673912673 0.0020923414673912673 0 0.0020923414673912673 0 0
          0.0010127517201979396 0.0010127517201979396 0 0.0010127517201979396 0 0
          0.002468020514079437 0.002468020514079437 0 0.002468020514079437 0 0
          0.0036959961168075576 0.0036959961168075576 0 0.0036959961168075576 0 0
          0.0017407241634265964 0.0017407241634265964 0 0.0017407241634265964 0 0
          0.004411842491953222 0.004411842491953222 0 0.004411842491953222 0 0
          0.0022026747078479347 0.0022026747078479347 0 0.0022026747078479347 0 0
          0.0024499149450004777 0.0024499149450004777 0 0.0024499149450004777 0 0
          0.0017598679971489702 0.0017598679971489702 0 0.0017598679971489702 0 0
          0.0006229760701097315 0.0006229760701097315 0 0.0006229760701097315 0 0
          0.0008159661318222915 0.0008159661318222915 0 0.0008159661318222915 0 0
          0.0008672503975234848 0.0008672503975234848 0 0.0008672503975234848 0 0
          0.0007123087971473525 0.0007123087971473525 0 0.0007123087971473525 0 0
          0.0009595146386897708 0.0009595146386897708 0 0.0009595146386897708 0 0
          0.001158374657176055 0.001158374657176055 0 0.001158374657176055 0 0
          0.0022375222314734338 0.0022375222314734338 0 0.0022375222314734338 0 0
          0.0010899309704321273 0.0010899309704321273 0 0.0010899309704321273 0 0
          0.0007944628513538558 0.0007944628513538558 0 0.0007944628513538558 0 0
          0.0003117173533271467 0.0003117173533271467 0 0.0003117173533271467 0 0
          0.0002682194374137863 0.0002682194374137863 0 0.0002682194374137863 0 0
          0.0002978206321431903 0.0002978206321431903 0 0.0002978206321431903 0 0
          0.0003262327661921713 0.0003262327661921713 0 0.0003262327661921713 0 0
          0.00019097118622923078 0.00019097118622923078 0 0.00019097118622923078 0 0
          0.0002417281499724815 0.0002417281499724815 0 0.0002417281499724815 0 0
          0.00011712038239507789 0.00011712038239507789 0 0.00011712038239507789 0 0
          0.00007676852280250617 0.00007676852280250617 0 0.00007676852280250617 0 0
          0.00007406624375486969 0.00007406624375486969 0 0.00007406624375486969 0 0
          0.00010486335733787239 0.00010486335733787239 0 0.00010486335733787239 0 0
          0.00031337017504945365 0.00031337017504945365 0 0.00031337017504945365 0 0
          0.00013093463176686165 0.00013093463176686165 0 0.00013093463176686165 0 0
          0.00040198775525286017 0.00040198775525286017 0 0.00040198775525286017 0 0
          0.00005329612669655846 0.00005329612669655846 0 0.00005329612669655846 0 0
          0.00005549630133187457 0.00005549630133187457 0 0.00005549630133187457 0 0
          0.00008628481682084838 0.00008628481682084838 0 0.00008628481682084838 0 0
          0.09044851197410755 0.09044851197410755 0 0.09044851197410755 0 0
          0.09242551846846961 0.09242551846846961 0 0.09242551846846961 0 0
          0.045851198595472785 0.045851198595472785 0 0.045851198595472785 0 0
          0.1129145460429285 0.1129145460429285 0 0.1129145460429285 0 0
          0.1334909483856407 0.1334909483856407 0 0.1334909483856407 0 0
          0.09888016459850264 0.09888016459850264 0 0.09888016459850264 0 0
          0.07346553889121166 0.07346553889121166 0 0.07346553889121166 0 0
          0.15145525923695047 0.15145525923695047 0 0.15145525923695047 0 0
          0.05053250478710196 0.05053250478710196 0 0.05053250478710196 0 0
          0.05486803761142006 0.05486803761142006 0 0.05486803761142006 0 0
          0.028445394518926796 0.028445394518926796 0 0.028445394518926796 0 0
          0.042112001789725455 0.042112001789725455 0 0.042112001789725455 0 0
          0.024752877230582608 0.024752877230582608 0 0.024752877230582608 0 0
          0.05498488881464543 0.05498488881464543 0 0.05498488881464543 0 0
          0.06711905201851318 0.06711905201851318 0 0.06711905201851318 0 0
          0.07592899330808828 0.07592899330808828 0 0.07592899330808828 0 0
          0.0433933420903079 0.0433933420903079 0 0.0433933420903079 0 0
          0.050268028723985 0.050268028723985 0 0.050268028723985 0 0
          0.03919354899099379 0.03919354899099379 0 0.03919354899099379 0 0
          0.0777394865775988 0.0777394865775988 0 0.0777394865775988 0 0
          0.028936344411878798 0.028936344411878798 0 0.028936344411878798 0 0
          0.028445532932903306 0.028445532932903306 0 0.028445532932903306 0 0
          0.01722899619030906 0.01722899619030906 0 0.01722899619030906 0 0
          0.03192206510001963 0.03192206510001963 0 0.03192206510001963 0 0
          0.017745183969985576 0.017745183969985576 0 0.017745183969985576 0 0
          0.029370854668582753 0.029370854668582753 0 0.029370854668582753 0 0
          0.044874703470263844 0.044874703470263844 0 0.044874703470263844 0 0
          0.047756055947417844 0.047756055947417844 0 0.047756055947417844 0 0
          0.028845522176800996 0.028845522176800996 0 0.028845522176800996 0 0
          0.03966541699789578 0.03966541699789578 0 0.03966541699789578 0 0
          0.025864328586002593 0.025864328586002593 0 0.025864328586002593 0 0
          0.027376090894391934 0.027376090894391934 0 0.027376090894391934 0 0
          0.021377348396668615 0.021377348396668615 0 0.021377348396668615 0 0
          0.017642935323425396 0.017642935323425396 0 0.017642935323425396 0 0
          0.009856718829176266 0.009856718829176266 0 0.009856718829176266 0 0
          0.015520714730632348 0.015520714730632348 0 0.015520714730632348 0 0
          0.013239596181850371 0.013239596181850371 0 0.013239596181850371 0 0
          0.05344673058876853 0.05344673058876853 0 0.05344673058876853 0 0
          0.016415094177707815 0.016415094177707815 0 0.016415094177707815 0 0
          0.01846313435650652 0.01846313435650652 0 0.01846313435650652 0 0
          0.012711124303560247 0.012711124303560247 0 0.012711124303560247 0 0
          0.04546512096814587 0.04546512096814587 0 0.04546512096814587 0 0
          0.0589575438348086 0.0589575438348086 0 0.0589575438348086 0 0
          0.0171304143045893 0.0171304143045893 0 0.0171304143045893 0 0
          0.03289232074948575 0.03289232074948575 0 0.03289232074948575 0 0
          0.028050416791568826 0.028050416791568826 0 0.028050416791568826 0 0
          0.017379018508503662 0.017379018508503662 0 0.017379018508503662 0 0
          0.020848144271322845 0.020848144271322845 0 0.020848144271322845 0 0
          0.01080454510020582 0.01080454510020582 0 0.01080454510020582 0 0
          0.03307393141090031 0.03307393141090031 0 0.03307393141090031 0 0
          0.020023782362551104 0.020023782362551104 0 0.020023782362551104 0 0
          0.01653893177814574 0.01653893177814574 0 0.01653893177814574 0 0
          0.01290437838911783 0.01290437838911783 0 0.01290437838911783 0 0
          0.007937284190245305 0.007937284190245305 0 0.007937284190245305 0 0
          0.03872656855677143 0.03872656855677143 0 0.03872656855677143 0 0
          0.019036898979922882 0.019036898979922882 0 0.019036898979922882 0 0
          0.010848345888505157 0.010848345888505157 0 0.010848345888505157 0 0
          0.015214411486985314 0.015214411486985314 0 0.015214411486985314 0 0
          0.03867034447541716 0.03867034447541716 0 0.03867034447541716 0 0
          0.023950793172589527 0.023950793172589527 0 0.023950793172589527 0 0
          0.024043765562458897 0.024043765562458897 0 0.024043765562458897 0 0
          0.011163443418978933 0.011163443418978933 0 0.011163443418978933 0 0
          0.023246455113350446 0.023246455113350446 0 0.023246455113350446 0 0
          0.014878773330721889 0.014878773330721889 0 0.014878773330721889 0 0
          0.02526498585807012 0.02526498585807012 0 0.02526498585807012 0 0
          0.017880555337361003 0.017880555337361003 0 0.017880555337361003 0 0
          0.014280574738254944 0.014280574738254944 0 0.014280574738254944 0 0
          0.011425113424242994 0.011425113424242994 0 0.011425113424242994 0 0
          0.01807323395929018 0.01807323395929018 0 0.01807323395929018 0 0
          0.01067119413533732 0.01067119413533732 0 0.01067119413533732 0 0
          0.006978879542889178 0.006978879542889178 0 0.006978879542889178 0 0
          0.007333262505248456 0.007333262505248456 0 0.007333262505248456 0 0
          0.011463290802666292 0.011463290802666292 0 0.011463290802666292 0 0
          0.012196941240808643 0.012196941240808643 0 0.012196941240808643 0 0
          0.028359214845609222 0.028359214845609222 0 0.028359214845609222 0 0
          0.2721971578857469 0.2721971578857469 0 0.2721971578857469 0 0
          0.250731452486436 0.250731452486436 0 0.250731452486436 0 0
          0.1461615852830079 0.1461615852830079 0 0.1461615852830079 0 0