<?xml version="1.0"?>
<VTKFile type="UnstructuredGrid" version="0.1" byte_order="LittleEndian" header_type="UInt32" compressor="vtkZLibDataCompressor">
  <UnstructuredGrid>
    <Piece NumberOfPoints="27" NumberOfCells="32">
      <PointData>
        <DataArray type="Float64" Name="Velocity" NumberOfComponents="3" format="ascii" RangeMin="2.6677841329462924" RangeMax="2.9">
          2.9 0 0 2.9 0 0
          2.6193 -0.5063 0 2.8756502566445588 -0.048779366693630186 0
          2.9 0 0 2.6193 -0.5063 0
          2.894683394157952 0 0 2.8743907034235954 -0.04746918286296644 0
          2.8941731597500358 0 0 2.6193 -0.5063 0
          2.8743269212921176 -0.0474637795462823 0 2.8941443863609018 0 0
          2.6193 -0.5063 0 2.8743249823003763 -0.04745889878452402 0
          2.8941443863609018 0 0 2.6193 -0.5063 0
          2.874293484371292 -0.04746827167580491 0 2.894162826353526 0 0
          2.6193 -0.5063 0 2.874075739291918 -0.04735676228932286 0
          2.8941929674311395 0 0 2.6193 -0.5063 0
          2.8731759599218796 -0.04582992575112909 0 2.896627307289499 0 0
          2.6193 -0.5063 0 2.8767532290936737 -0.027810486161402616 0
          2.883789691273236 0.005989356342595211 0
          <InformationKey name="L2_NORM_RANGE" location="vtkDataArray" length="2">
            <Value index="0">
              2.6677841329
            </Value>
            <Value index="1">
              2.9
            </Value>
          </InformationKey>
        </DataArray>
        <DataArray type="Float64" Name="Pressure" format="ascii" RangeMin="0.7179559205090916" RangeMax="1.5457895999999995">
          0.72124 0.72124 1.5457895999999995 0.7684212198843388 0.72124 1.5457895999999995
          0.7215271444368621 0.7673968500839057 0.7219425536159605 1.5457895999999995 0.7674835067271858 0.7219385153108072
          1.5457895999999995 0.7674835136489916 0.7219385153108072 1.5457895999999995 0.7674759816219808 0.7219405524905274
          1.5457895999999995 0.7673702046681915 0.721926578494568 1.5457895999999995 0.7667415185888994 0.7224213530416238
          1.5457895999999995 0.7609957040668026 0.7179559205090916
        </DataArray>
        <DataArray type="Float64" Name="Temperature" format="ascii" RangeMin="0.00247" RangeMax="0.003114">
          0.00247 0.00247 0.003114 0.002547225516017597 0.00247 0.003114
          0.0024817135145745305 0.002546595871989228 0.0024821752264892537 0.003114 0.0025467091239128464 0.0024821773232030094
          0.003114 0.002546711725332937 0.0024821773232030094 0.003114 0.0025467126648554645 0.0024821664498490465
          0.003114 0.0025465281538437456 0.0024818758155796352 0.003114 0.002544959445235958 0.0024813295114876747
          0.003114 0.0025289951058345885 0.002472769153359985
        </DataArray>
        <DataArray type="Float64" Name="Density" format="ascii" RangeMin="0.9943318603305351" RangeMax="1.7">
          1 1 1.7 1.0331160329557822 1 1.7
          0.99567631672536 1.0319938995047795 0.9960642500775582 1.7 1.032064537344936 0.9960578370491112
          1.7 1.0320634924176357 0.9960578370491112 1.7 1.0320529830812974 0.9960650110773914
          1.7 1.0319855089787908 0.9961623706933391 1.7 1.0317756235253797 0.997064564839393
          1.7 1.0305079932535506 0.9943318603305351
        </DataArray>
        <DataArray type="Float64" Name="Momentum" NumberOfComponents="3" format="ascii" RangeMin="2.867450152926306" RangeMax="4.535233026008696">
          2.9 0 0 2.9 0 0
          4.4528099999999995 -0.86071 0 2.9708803853129035 -0.05039474580861863 0
          2.9 0 0 4.4528099999999995 -0.86071 0
          2.8821676999812533 0 0 2.966353670726402 -0.04898790712905819 0
          2.882782417961016 0 0 4.4528099999999995 -0.86071 0
          2.9664908842014435 -0.048985683678075875 0 2.882735197586467 0 0
          4.4528099999999995 -0.86071 0 2.9664858795761853 -0.04898059682585095 0
          2.882735197586467 0 0 4.4528099999999995 -0.86071 0
          2.9664231647965287 -0.04898977138472792 0 2.8827743276915996 0 0
          4.4528099999999995 -0.86071 0 2.966004514656764 -0.04887149243473446 0
          2.883086127680194 0 0 4.4528099999999995 -0.86071 0
          2.9644729175465283 -0.04728620021799307 0 2.888124445644507 0 0
          4.4528099999999995 -0.86071 0 2.9645171971989934 -0.028658928285592647 0
          2.8674439685257362 0.005955407834315187 0
          <InformationKey name="L2_NORM_RANGE" location="vtkDataArray" length="2">
            <Value index="0">
              2.8674501529
            </Value>
            <Value index="1">
              4.535233026
            </Value>
          </InformationKey>
        </DataArray>
        <DataArray type="Float64" Name="Energy" format="ascii" RangeMin="5.899955276342499" RangeMax="9.850459752999999">
          5.97846 5.97846 9.850459752999999 6.162309678604308 5.97846 9.850459752999999
          5.9456475507929225 6.151347683419006 5.946823261704533 9.850459752999999 6.151663176692729 5.9467035268982835
          9.850459752999999 6.151652885000491 5.9467035268982835 9.850459752999999 6.151497962341251 5.946791739383594
          9.850459752999999 6.15030775676243 5.947252028296996 9.850459752999999 6.145153592840389 5.959274901901036
          9.850459752999999 6.1357061833466755 5.899955276342499
        </DataArray>
        <DataArray type="Float64" Name="stream" format="ascii" RangeMin="-2.8808420910920995" RangeMax="0.15201057252139272">
          -0.03508749999999994 -1.4397227418230318 -0.051456319667029314 -1.4351702308006626 -2.8808420910920995 -0.023038929861766328
          -2.8629619705127993 -1.4126624971547164 -2.842075601664524 -0.0038535424955136177 -1.3920253315227988 -2.821343767293474
          0.016786891196523324 -1.371337320186302 -2.800637946026564 0.037471140165462935 -1.3506589459511897 -2.779925564643685
          0.05808077873138414 -1.330083946609239 -2.7591728208728683 0.07810154566142813 -1.3094725278613428 -2.7468770334102133
          0.15201057252139272 -1.2988147894703184 -2.7484118059730034
        </DataArray>
      </PointData>
      <CellData>
        <DataArray type="UInt8" Name="vtkGhostType" format="ascii" RangeMin="0" RangeMax="0">
          0 0 0 0 0 0
          0 0 0 0 0 0
          0 0 0 0 0 0
          0 0 0 0 0 0
          0 0 0 0 0 0
          0 0
        </DataArray>
      </CellData>
      <Points>
        <DataArray type="Float32" Name="Points" NumberOfComponents="3" format="ascii" RangeMin="0" RangeMax="4.2201894765504395">
          0 1 0 0 0.5 0
          0.512499988079071 1 0 0.512499988079071 0.5 0
          0 0 0 1.024999976158142 1 0
          0.512499988079071 0 0 1.024999976158142 0.5 0
          1.024999976158142 0 0 1.537500023841858 1 0
          1.537500023841858 0.5 0 1.537500023841858 0 0
          2.049999952316284 1 0 2.049999952316284 0.5 0
          2.049999952316284 0 0 2.5625 1 0
          2.5625 0.5 0 2.5625 0 0
          3.075000047683716 1 0 3.075000047683716 0.5 0
          3.075000047683716 0 0 3.5875000953674316 1 0
          3.5875000953674316 0.5 0 3.5875000953674316 0 0
          4.099999904632568 1 0 4.099999904632568 0.5 0
          4.099999904632568 0 0
          <InformationKey name="L2_NORM_RANGE" location="vtkDataArray" length="2">
            <Value index="0">
              0
            </Value>
            <Value index="1">
              4.2201894766
            </Value>
          </InformationKey>
        </DataArray>
      </Points>
      <Cells>
        <DataArray type="Int64" Name="connectivity" format="ascii" RangeMin="0" RangeMax="26">
          6 3 4 3 1 4
          8 7 6 7 3 6
          11 10 8 10 7 8
          14 13 11 13 10 11
          17 16 14 16 13 14
          20 19 17 19 16 17
          23 22 20 22 19 20
          26 25 23 25 22 23
          3 2 1 2 0 1
          7 5 3 5 2 3
          10 9 7 9 5 7
          13 12 10 12 9 10
          16 15 13 15 12 13
          19 18 16 18 15 16
          22 21 19 21 18 19
          25 24 22 24 21 22
        </DataArray>
        <DataArray type="Int64" Name="offsets" format="ascii" RangeMin="3" RangeMax="96">
          3 6 9 12 15 18
          21 24 27 30 33 36
          39 42 45 48 51 54
          57 60 63 66 69 72
          75 78 81 84 87 90
          93 96
        </DataArray>
        <DataArray type="UInt8" Name="types" format="ascii" RangeMin="5" RangeMax="5">
          5 5 5 5 5 5
          5 5 5 5 5 5
          5 5 5 5 5 5
          5 5 5 5 5 5
          5 5 5 5 5 5
          5 5
        </DataArray>
      </Cells>
    </Piece>
  </UnstructuredGrid>
</VTKFile>
