<?xml version="1.0"?>
<VTKFile type="UnstructuredGrid" version="0.1" byte_order="LittleEndian" header_type="UInt32" compressor="vtkZLibDataCompressor">
  <UnstructuredGrid>
    <Piece NumberOfPoints="121" NumberOfCells="100">
      <PointData>
        <DataArray type="Float64" Name="tem_BC" format="ascii" RangeMin="0" RangeMax="0">
          0 0 0 0 0 0
          0 0 0 0 0 0
          0 0 0 0 0 0
          0 0 0 0 0 0
          0 0 0 0 0 0
          0 0 0 0 0 0
          0 0 0 0 0 0
          0 0 0 0 0 0
          0 0 0 0 0 0
          0 0 0 0 0 0
          0 0 0 0 0 0
          0 0 0 0 0 0
          0 0 0 0 0 0
          0 0 0 0 0 0
          0 0 0 0 0 0
          0 0 0 0 0 0
          0 0 0 0 0 0
          0 0 0 0 0 0
          0 0 0 0 0 0
          0 0 0 0 0 0
          0
        </DataArray>
        <DataArray type="Float64" Name="tem_FIXNO" format="ascii" RangeMin="-1" RangeMax="1">
          -1 -1 -1 -1 -1 -1
          -1 -1 -1 1 -1 -1
          -1 -1 -1 -1 -1 -1
          -1 1 -1 -1 -1 -1
          -1 -1 -1 -1 -1 1
          -1 -1 -1 -1 -1 -1
          -1 -1 -1 1 -1 -1
          -1 -1 -1 -1 -1 -1
          -1 1 -1 -1 -1 -1
          -1 -1 -1 -1 -1 1
          -1 -1 -1 -1 -1 -1
          -1 -1 -1 1 -1 -1
          -1 -1 -1 -1 -1 -1
          -1 1 -1 -1 -1 -1
          -1 -1 -1 -1 -1 1
          1 1 1 1 1 1
          1 1 1 1 -1 -1
          -1 -1 -1 -1 -1 -1
          -1 1 -1 -1 -1 -1
          -1 -1 -1 -1 -1 1
          -1
        </DataArray>
        <DataArray type="Float64" Name="Temperature" format="ascii" RangeMin="0" RangeMax="0.07348614299531413">
          0.07348614299531413 0.07209546433541038 0.06928029313480018 0.06497308058387358 0.059072855198688476 0.05144606306447412
          0.04192833009182132 0.03032755803501903 0.016428660220763575 0 0.07209546434522834 0.07073860835992826
          0.06799105608997137 0.06378504838052007 0.0580189136671116 0.050557487748425965 0.04123342014591943 0.0298499112389592
          0.016185344925407692 0 0.06928029315780528 0.06799105610199906 0.065378847401615 0.06137580112972119
          0.05587929053344937 0.048751433375578294 0.03981934658520409 0.028876981712419234 0.01568939888798446 0
          0.0649730806129535 0.06378504839650435 0.0613758011327064 0.057678110335073696 0.05258909219715142 0.04596818811275833
          0.03763547868948113 0.02737162234241048 0.014921081576294468 0 0.059072855227505466 0.05801891368175848
          0.05587929053441274 0.05258909219460845 0.04804741825787713 0.04211315431675338 0.03460004162037475 0.02527281213284937
          0.013847588225730633 0 0.051446063090183375 0.050557487761281904 0.04875143337576653 0.04596818810905508
          0.04211315431476502 0.03705011716237779 0.030591494853500073 0.02248721603464399 0.012417724410654387 0
          0.04192833011331638 0.041233420157802875 0.039819346587015046 0.037635478687461955 0.03460004161888547 0.030591494853281116
          0.025433888140853664 0.018872985249879067 0.010550944333678388 0 0.030327558050317328 0.029849911248713838
          0.02887698171565355 0.027371622342563278 0.025272812132680098 0.022487216034996906 0.01887298525026166 0.014207346373344401
          0.008112033292701293 0 0.01642866022824771 0.016185344930654523 0.01568939889036115 0.014921081576940522
          0.01384758822590797 0.012417724410968865 0.010550944333991117 0.008112033292648148 0.00484270778326967 0
          0 0 0 0 0 0
          0 0 0 0 0.07348614297706808 0.07209546432167543
          0.06928029312784868 0.06497308057926356 0.059072855191824786 0.051446063055276395 0.041928330082680286 0.03032755802779567
          0.016428660216401134 0 0.07348614297605713 0.07209546432332381 0.0692802931322176 0.0649730805863858
          0.05907285519947802 0.051446063061641685 0.04192833008785437 0.030327558032117757 0.016428660219339346 0
          0.0734861429874453
        </DataArray>
      </PointData>
      <CellData>
        <DataArray type="UInt8" Name="vtkGhostType" format="ascii" RangeMin="0" RangeMax="1">
          0 0 0 0 0 0
          0 0 0 0 0 0
          0 0 0 0 0 0
          0 0 0 0 0 0
          0 0 0 0 0 0
          0 0 0 0 0 0
          0 0 0 0 0 0
          0 0 0 0 0 0
          0 0 0 0 0 0
          0 0 0 0 0 0
          0 0 0 0 0 0
          0 0 0 0 0 0
          0 0 0 0 0 0
          0 0 0 1 1 1
          1 1 1 1 1 1
          1 1 1 1 1 1
          1 1 1 1
        </DataArray>
      </CellData>
      <Points>
        <DataArray type="Float32" Name="Points" NumberOfComponents="3" format="ascii" RangeMin="0.4736842215061188" RangeMax="1.1300479326393575">
          0.5263158082962036 0.4736842215061188 0 0.5263158082962036 0.42105263471603394 0
          0.5263158082962036 0.3684210479259491 0 0.5263158082962036 0.31578946113586426 0
          0.5263158082962036 0.2631579041481018 0 0.5263158082962036 0.21052631735801697 0
          0.5263158082962036 0.15789473056793213 0 0.5263158082962036 0.10526315867900848 0
          0.5263158082962036 0.05263157933950424 0 0.5263158082962036 5.551115123125783e-17 0
          0.5789473652839661 0.4736842215061188 0 0.5789473652839661 0.42105263471603394 0
          0.5789473652839661 0.3684210479259491 0 0.5789473652839661 0.31578946113586426 0
          0.5789473652839661 0.2631579041481018 0 0.5789473652839661 0.21052631735801697 0
          0.5789473652839661 0.15789473056793213 0 0.5789473652839661 0.10526315867900848 0
          0.5789473652839661 0.05263157933950424 0 0.5789473652839661 5.551115123125783e-17 0
          0.6315789222717285 0.4736842215061188 0 0.6315789222717285 0.42105263471603394 0
          0.6315789222717285 0.3684210479259491 0 0.6315789222717285 0.31578946113586426 0
          0.6315789222717285 0.2631579041481018 0 0.6315789222717285 0.21052631735801697 0
          0.6315789222717285 0.15789473056793213 0 0.6315789222717285 0.10526315867900848 0
          0.6315789222717285 0.05263157933950424 0 0.6315789222717285 5.551115123125783e-17 0
          0.6842105388641357 0.4736842215061188 0 0.6842105388641357 0.42105263471603394 0
          0.6842105388641357 0.3684210479259491 0 0.6842105388641357 0.31578946113586426 0
          0.6842105388641357 0.2631579041481018 0 0.6842105388641357 0.21052631735801697 0
          0.6842105388641357 0.15789473056793213 0 0.6842105388641357 0.10526315867900848 0
          0.6842105388641357 0.05263157933950424 0 0.6842105388641357 5.551115123125783e-17 0
          0.7368420958518982 0.4736842215061188 0 0.7368420958518982 0.42105263471603394 0
          0.7368420958518982 0.3684210479259491 0 0.7368420958518982 0.31578946113586426 0
          0.7368420958518982 0.2631579041481018 0 0.7368420958518982 0.21052631735801697 0
          0.7368420958518982 0.15789473056793213 0 0.7368420958518982 0.10526315867900848 0
          0.7368420958518982 0.05263157933950424 0 0.7368420958518982 5.551115123125783e-17 0
          0.7894737124443054 0.4736842215061188 0 0.7894737124443054 0.42105263471603394 0
          0.7894737124443054 0.3684210479259491 0 0.7894737124443054 0.31578946113586426 0
          0.7894737124443054 0.2631579041481018 0 0.7894737124443054 0.21052631735801697 0
          0.7894737124443054 0.15789473056793213 0 0.7894737124443054 0.10526315867900848 0
          0.7894737124443054 0.05263157933950424 0 0.7894737124443054 5.551115123125783e-17 0
          0.8421052694320679 0.4736842215061188 0 0.8421052694320679 0.42105263471603394 0
          0.8421052694320679 0.3684210479259491 0 0.8421052694320679 0.31578946113586426 0
          0.8421052694320679 0.2631579041481018 0 0.8421052694320679 0.21052631735801697 0
          0.8421052694320679 0.15789473056793213 0 0.8421052694320679 0.10526315867900848 0
          0.8421052694320679 0.05263157933950424 0 0.8421052694320679 5.551115123125783e-17 0
          0.8947368264198303 0.4736842215061188 0 0.8947368264198303 0.42105263471603394 0
          0.8947368264198303 0.3684210479259491 0 0.8947368264198303 0.31578946113586426 0
          0.8947368264198303 0.2631579041481018 0 0.8947368264198303 0.21052631735801697 0
          0.8947368264198303 0.15789473056793213 0 0.8947368264198303 0.10526315867900848 0
          0.8947368264198303 0.05263157933950424 0 0.8947368264198303 5.551115123125783e-17 0
          0.9473684430122375 0.4736842215061188 0 0.9473684430122375 0.42105263471603394 0
          0.9473684430122375 0.3684210479259491 0 0.9473684430122375 0.31578946113586426 0
          0.9473684430122375 0.2631579041481018 0 0.9473684430122375 0.21052631735801697 0
          0.9473684430122375 0.15789473056793213 0 0.9473684430122375 0.10526315867900848 0
          0.9473684430122375 0.05263157933950424 0 0.9473684430122375 5.551115123125783e-17 0
          1 0.4736842215061188 0 1 0.42105263471603394 0
          1 0.3684210479259491 0 1 0.31578946113586426 0
          1 0.2631579041481018 0 1 0.21052631735801697 0
          1 0.15789473056793213 0 1 0.10526315867900848 0
          1 0.05263157933950424 0 1 5.551115123125783e-17 0
          0.5263158082962036 0.5263158082962036 0 0.5789473652839661 0.5263158082962036 0
          0.6315789222717285 0.5263158082962036 0 0.6842105388641357 0.5263158082962036 0
          0.7368420958518982 0.5263158082962036 0 0.7894737124443054 0.5263158082962036 0
          0.8421052694320679 0.5263158082962036 0 0.8947368264198303 0.5263158082962036 0
          0.9473684430122375 0.5263158082962036 0 1 0.5263158082962036 0
          0.4736842215061188 0.4736842215061188 0 0.4736842215061188 0.42105263471603394 0
          0.4736842215061188 0.3684210479259491 0 0.4736842215061188 0.31578946113586426 0
          0.4736842215061188 0.2631579041481018 0 0.4736842215061188 0.21052631735801697 0
          0.4736842215061188 0.15789473056793213 0 0.4736842215061188 0.10526315867900848 0
          0.4736842215061188 0.05263157933950424 0 0.4736842215061188 5.551115123125783e-17 0
          0.4736842215061188 0.5263158082962036 0
          <InformationKey name="L2_NORM_RANGE" location="vtkDataArray" length="2">
            <Value index="0">
              0.47368422151
            </Value>
            <Value index="1">
              1.1300479326
            </Value>
          </InformationKey>
        </DataArray>
      </Points>
      <Cells>
        <DataArray type="Int64" Name="connectivity" format="ascii" RangeMin="0" RangeMax="120">
          11 10 0 1 12 11
          1 2 13 12 2 3
          14 13 3 4 15 14
          4 5 16 15 5 6
          17 16 6 7 18 17
          7 8 19 18 8 9
          21 20 10 11 22 21
          11 12 23 22 12 13
          24 23 13 14 25 24
          14 15 26 25 15 16
          27 26 16 17 28 27
          17 18 29 28 18 19
          31 30 20 21 32 31
          21 22 33 32 22 23
          34 33 23 24 35 34
          24 25 36 35 25 26
          37 36 26 27 38 37
          27 28 39 38 28 29
          41 40 30 31 42 41
          31 32 43 42 32 33
          44 43 33 34 45 44
          34 35 46 45 35 36
          47 46 36 37 48 47
          37 38 49 48 38 39
          51 50 40 41 52 51
          41 42 53 52 42 43
          54 53 43 44 55 54
          44 45 56 55 45 46
          57 56 46 47 58 57
          47 48 59 58 48 49
          61 60 50 51 62 61
          51 52 63 62 52 53
          64 63 53 54 65 64
          54 55 66 65 55 56
          67 66 56 57 68 67
          57 58 69 68 58 59
          71 70 60 61 72 71
          61 62 73 72 62 63
          74 73 63 64 75 74
          64 65 76 75 65 66
          77 76 66 67 78 77
          67 68 79 78 68 69
          81 80 70 71 82 81
          71 72 83 82 72 73
          84 83 73 74 85 84
          74 75 86 85 75 76
          87 86 76 77 88 87
          77 78 89 88 78 79
          91 90 80 81 92 91
          81 82 93 92 82 83
          94 93 83 84 95 94
          84 85 96 95 85 86
          97 96 86 87 98 97
          87 88 99 98 88 89
          10 101 100 0 20 102
          101 10 30 103 102 20
          40 104 103 30 50 105
          104 40 60 106 105 50
          70 107 106 60 80 108
          107 70 90 109 108 80
          1 0 110 111 2 1
          111 112 3 2 112 113
          4 3 113 114 5 4
          114 115 6 5 115 116
          7 6 116 117 8 7
          117 118 9 8 118 119
          0 100 120 110
        </DataArray>
        <DataArray type="Int64" Name="offsets" format="ascii" RangeMin="4" RangeMax="400">
          4 8 12 16 20 24
          28 32 36 40 44 48
          52 56 60 64 68 72
          76 80 84 88 92 96
          100 104 108 112 116 120
          124 128 132 136 140 144
          148 152 156 160 164 168
          172 176 180 184 188 192
          196 200 204 208 212 216
          220 224 228 232 236 240
          244 248 252 256 260 264
          268 272 276 280 284 288
          292 296 300 304 308 312
          316 320 324 328 332 336
          340 344 348 352 356 360
          364 368 372 376 380 384
          388 392 396 400
        </DataArray>
        <DataArray type="UInt8" Name="types" format="ascii" RangeMin="9" RangeMax="9">
          9 9 9 9 9 9
          9 9 9 9 9 9
          9 9 9 9 9 9
          9 9 9 9 9 9
          9 9 9 9 9 9
          9 9 9 9 9 9
          9 9 9 9 9 9
          9 9 9 9 9 9
          9 9 9 9 9 9
          9 9 9 9 9 9
          9 9 9 9 9 9
          9 9 9 9 9 9
          9 9 9 9 9 9
          9 9 9 9 9 9
          9 9 9 9 9 9
          9 9 9 9 9 9
          9 9 9 9
        </DataArray>
      </Cells>
    </Piece>
  </UnstructuredGrid>
</VTKFile>
