<?xml version="1.0"?>
<VTKFile type="UnstructuredGrid" version="0.1" byte_order="LittleEndian" header_type="UInt32" compressor="vtkZLibDataCompressor">
  <UnstructuredGrid>
    <Piece NumberOfPoints="44" NumberOfCells="60">
      <PointData>
        <DataArray type="Float64" Name="Density" format="ascii" RangeMin="0.9962134840490321" RangeMax="1.7">
          1.7 1.5004821592309063 1.7 1.4948370679580905 1.1122242630675014 1.1240376155799197
          1.7 1.4843062522831274 0.9996793578497526 1.1178970237860517 1.0368439049614802 1.7
          1.484063380125084 1.0240413915576982 1.1192825346982371 1.0258801709785028 1.7 1.483297707599911
          1.1191580553856681 1.0256407306838353 1.7 1.4809304747671785 1.1179952807550066 1.0252476948762603
          1.7 1.4726958878059646 1.1134909206318508 1.0237718943772842 1.7 1.4483481994563763
          1.1003100585257817 1.0190411846449745 1.7 1.3859208151840838 1.0712062955412436 1.008545620372936
          1.7 1.2480239898747285 1.0272823348123923 0.9962134840490321 1 1
          1 1
        </DataArray>
        <DataArray type="Float64" Name="Momentum" NumberOfComponents="3" format="ascii" RangeMin="2.888411788466971" RangeMax="4.535233026008696">
          4.4528099999999995 -0.86071 0 4.229157925451008 -0.45265840018340314 0
          4.4528099999999995 -0.86071 0 4.212891412641546 -0.4475445227411568 0
          3.2222083572757074 -0.08430994865858975 0 3.255233010159749 -0.09770165146819024 0
          4.4528099999999995 -0.86071 0 4.180657943457954 -0.4383579969618514 0
          2.8923010440086965 0.013888834042936246 0 3.2364165046774716 -0.09204819124793127 0
          3.0090092671629662 0 0 4.4528099999999995 -0.86071 0
          4.179678155779976 -0.43830204189636435 0 2.9695689568859045 0 0
          3.240830917138982 -0.09319960712179773 0 2.9751144131693934 0 0
          4.4528099999999995 -0.86071 0 4.177060602046198 -0.43774849088723156 0
          3.240412381916156 -0.09313497605630905 0 2.9743395376134254 0 0
          4.4528099999999995 -0.86071 0 4.16909760289859 -0.43575067069317425 0
          3.236617192551234 -0.09229865811018245 0 2.973073198998017 0 0
          4.4528099999999995 -0.86071 0 4.142331688690023 -0.42793068885273844 0
          3.2222505622457684 -0.08887112871780832 0 2.9684255804450213 0 0
          4.4528099999999995 -0.86071 0 4.067411551964385 -0.4026786662067872 0
          3.1817636932422624 -0.07811691458675846 0 2.953943669779676 0 0
          4.4528099999999995 -0.86071 0 3.8889563502754148 -0.33705843707600125 0
          3.0967275040992464 -0.05324730986871381 0 2.922996525751454 0 0
          4.4528099999999995 -0.86071 0 3.5234729119629855 -0.2040563508375432 0
          2.9750251557816023 -0.016549150376612348 0 2.888411788466971 0 0
          2.9 0 0 2.9 0 0
          2.9 0 0 2.9 0 0
          <InformationKey name="L2_NORM_RANGE" location="vtkDataArray" length="2">
            <Value index="0">
              2.8884117885
            </Value>
            <Value index="1">
              4.535233026
            </Value>
          </InformationKey>
        </DataArray>
        <DataArray type="Float64" Name="Energy" format="ascii" RangeMin="4.8978988142688" RangeMax="7.585636452999999">
          7.585636452999999 7.396073804840999 7.585636452999999 7.368292169256078 5.515043187453469 5.581653749642821
          7.585636452999999 7.3046935922141065 4.8978988142688 5.54430805383966 5.125287309093117 7.585636452999999
          7.302660154531682 5.048258244296742 5.553084107148244 5.058807516408465 7.585636452999999 7.29723905255745
          5.552226753148283 5.057313574519218 7.585636452999999 7.280679357020738 5.544616763178145 5.054859496913124
          7.585636452999999 7.225541853542593 5.516056872911164 5.045962578078244 7.585636452999999 7.0742053378415255
          5.4368327604975635 5.018641275724281 7.585636452999999 6.725548687026476 5.274728956362303 4.961557479618196
          7.585636452999999 6.041968431879745 5.051749409982804 4.900155818152671 4.923 4.923
          4.923 4.923
        </DataArray>
      </PointData>
      <CellData>
        <DataArray type="UInt8" Name="vtkGhostType" format="ascii" RangeMin="0" RangeMax="0">
          0 0 0 0 0 0
          0 0 0 0 0 0
          0 0 0 0 0 0
          0 0 0 0 0 0
          0 0 0 0 0 0
          0 0 0 0 0 0
          0 0 0 0 0 0
          0 0 0 0 0 0
          0 0 0 0 0 0
          0 0 0 0 0 0
        </DataArray>
      </CellData>
      <Points>
        <DataArray type="Float32" Name="Points" NumberOfComponents="3" format="ascii" RangeMin="0" RangeMax="4.2201894765504395">
          4.099999904632568 1 0 4.099999904632568 0.6666666865348816 0
          3.690000057220459 1 0 3.690000057220459 0.6666666865348816 0
          4.099999904632568 0.3333333134651184 0 3.690000057220459 0.3333333134651184 0
          3.2799999713897705 1 0 3.2799999713897705 0.6666666865348816 0
          4.099999904632568 0 0 3.2799999713897705 0.3333333134651184 0
          3.690000057220459 0 0 2.869999885559082 1 0
          2.869999885559082 0.6666666865348816 0 3.2799999713897705 0 0
          2.869999885559082 0.3333333134651184 0 2.869999885559082 0 0
          2.4600000381469727 1 0 2.4600000381469727 0.6666666865348816 0
          2.4600000381469727 0.3333333134651184 0 2.4600000381469727 0 0
          2.049999952316284 1 0 2.049999952316284 0.6666666865348816 0
          2.049999952316284 0.3333333134651184 0 2.049999952316284 0 0
          1.6399999856948853 1 0 1.6399999856948853 0.6666666865348816 0
          1.6399999856948853 0.3333333134651184 0 1.6399999856948853 0 0
          1.2300000190734863 1 0 1.2300000190734863 0.6666666865348816 0
          1.2300000190734863 0.3333333134651184 0 1.2300000190734863 0 0
          0.8199999928474426 1 0 0.8199999928474426 0.6666666865348816 0
          0.8199999928474426 0.3333333134651184 0 0.8199999928474426 0 0
          0.4099999964237213 1 0 0.4099999964237213 0.6666666865348816 0
          0.4099999964237213 0.3333333134651184 0 0.4099999964237213 0 0
          0 1 0 0 0.6666666865348816 0
          0 0.3333333134651184 0 0 0 0
          <InformationKey name="L2_NORM_RANGE" location="vtkDataArray" length="2">
            <Value index="0">
              0
            </Value>
            <Value index="1">
              4.2201894766
            </Value>
          </InformationKey>
        </DataArray>
      </Points>
      <Cells>
        <DataArray type="Int64" Name="connectivity" format="ascii" RangeMin="0" RangeMax="43">
          39 38 43 38 42 43
          35 34 39 34 38 39
          31 30 35 30 34 35
          27 26 31 26 30 31
          23 22 27 22 26 27
          19 18 23 18 22 23
          15 14 19 14 18 19
          13 9 15 9 14 15
          10 5 13 5 9 13
          8 4 10 4 5 10
          38 37 42 37 41 42
          34 33 38 33 37 38
          30 29 34 29 33 34
          26 25 30 25 29 30
          22 21 26 21 25 26
          18 17 22 17 21 22
          14 12 18 12 17 18
          9 7 14 7 12 14
          5 3 9 3 7 9
          4 1 5 1 3 5
          37 36 41 36 40 41
          33 32 37 32 36 37
          29 28 33 28 32 33
          25 24 29 24 28 29
          21 20 25 20 24 25
          17 16 21 16 20 21
          12 11 17 11 16 17
          7 6 12 6 11 12
          3 2 7 2 6 7
          1 0 3 0 2 3
        </DataArray>
        <DataArray type="Int64" Name="offsets" format="ascii" RangeMin="3" RangeMax="180">
          3 6 9 12 15 18
          21 24 27 30 33 36
          39 42 45 48 51 54
          57 60 63 66 69 72
          75 78 81 84 87 90
          93 96 99 102 105 108
          111 114 117 120 123 126
          129 132 135 138 141 144
          147 150 153 156 159 162
          165 168 171 174 177 180
        </DataArray>
        <DataArray type="UInt8" Name="types" format="ascii" RangeMin="5" RangeMax="5">
          5 5 5 5 5 5
          5 5 5 5 5 5
          5 5 5 5 5 5
          5 5 5 5 5 5
          5 5 5 5 5 5
          5 5 5 5 5 5
          5 5 5 5 5 5
          5 5 5 5 5 5
          5 5 5 5 5 5
          5 5 5 5 5 5
        </DataArray>
      </Cells>
    </Piece>
  </UnstructuredGrid>
</VTKFile>
