<?xml version="1.0"?>
<VTKFile type="UnstructuredGrid" version="0.1" byte_order="LittleEndian" header_type="UInt32" compressor="vtkZLibDataCompressor">
  <UnstructuredGrid>
    <Piece NumberOfPoints="44" NumberOfCells="60">
      <PointData>
        <DataArray type="Float64" Name="Density" format="ascii" RangeMin="0.9945871513476315" RangeMax="1.7">
          1.7 1.4519383255680232 1.7 1.4492866293006763 1.084374100122097 1.097777047660031
          1.7 1.4389188001779059 0.9945871513476315 1.0921487468034086 1.0257959006974042 1.7
          1.4388049126382554 1.0153971841003826 1.0934053997642819 1.0167496631183288 1.7 1.4383532447936038
          1.0934346529480288 1.0166106205164123 1.7 1.4370103849055311 1.0929307536107356 1.016450769718113
          1.7 1.4315902455667338 1.0905251542961596 1.015828431663664 1.7 1.413432456815592
          1.0822416813619873 1.0134068173520754 1.7 1.3619020474020687 1.0611425599109923 1.0069648854835804
          1.7 1.238215147214058 1.0250774721637894 0.997866893787167 1 1
          1 1
        </DataArray>
        <DataArray type="Float64" Name="Momentum" NumberOfComponents="3" format="ascii" RangeMin="2.878824323495141" RangeMax="4.535233026008696">
          4.4528099999999995 -0.86071 0 4.103760374397653 -0.4056540318600595 0
          4.4528099999999995 -0.86071 0 4.095039206664369 -0.404099743330876 0
          3.142896692497092 -0.06171656285439751 0 3.1805913000066397 -0.07586498490697592 0
          4.4528099999999995 -0.86071 0 4.063154473117723 -0.39528378084256294 0
          2.8787964105268706 0.01267723490598362 0 3.1633346500678696 -0.07078538744273145 0
          2.9765973699314796 0 0 4.4528099999999995 -0.86071 0
          4.062643472068279 -0.3953108241387978 0 2.944533994956251 0 0
          3.167382261956731 -0.07175814700049604 0 2.9486316767606335 0 0
          4.4528099999999995 -0.86071 0 4.0611017067323 -0.3950009469378028 0
          3.1674720501008413 -0.07179349579105387 0 2.948180420789409 0 0
          4.4528099999999995 -0.86071 0 4.056571685944768 -0.3939043231183659 0
          3.165826207234694 -0.0714336780251559 0 2.947662619937861 0 0
          4.4528099999999995 -0.86071 0 4.038835585276518 -0.3889293786323516 0
          3.1581106287613645 -0.06964333134016394 0 2.945696898441014 0 0
          4.4528099999999995 -0.86071 0 3.982337959330085 -0.37058732731098876 0
          3.1324336204131935 -0.0630423225857241 0 2.938238037020755 0 0
          4.4528099999999995 -0.86071 0 3.8330418815665683 -0.31700872262415586 0
          3.070058344551064 -0.045377065180399655 0 2.919066150444873 0 0
          4.4528099999999995 -0.86071 0 3.501644740486038 -0.19724198042155047 0
          2.9690228401523946 -0.015584420952353366 0 2.893237944410644 0 0
          2.9 0 0 2.9 0 0
          2.9 0 0 2.9 0 0
          <InformationKey name="L2_NORM_RANGE" location="vtkDataArray" length="2">
            <Value index="0">
              2.8788243235
            </Value>
            <Value index="1">
              4.535233026
            </Value>
          </InformationKey>
        </DataArray>
        <DataArray type="Float64" Name="Energy" format="ascii" RangeMin="4.875616793529275" RangeMax="7.585636452999999">
          7.585636452999999 7.161671533764324 7.585636452999999 7.1483567973184545 5.3669466118136375 5.442066094373098
          7.585636452999999 7.085556412089917 4.875616793529275 5.407791150569844 5.06573632940519 7.585636452999999
          7.084500167588291 5.003020049689025 5.415828683376213 5.010810651165597 7.585636452999999 7.081328486020086
          5.415994935800116 5.009949251295322 7.585636452999999 7.0719225317402845 5.412705574121237 5.008945060931738
          7.585636452999999 7.035386461389975 5.397392716326719 5.00518973979385 7.585636452999999 6.920999124874622
          5.347131794703046 4.991113836156282 7.585636452999999 6.627990602260811 5.227912016960146 4.9556275334723106
          7.585636452999999 6.005221787100552 5.041964224717839 4.909375483854517 4.923 4.923
          4.923 4.923
        </DataArray>
      </PointData>
      <CellData>
        <DataArray type="UInt8" Name="vtkGhostType" format="ascii" RangeMin="0" RangeMax="0">
          0 0 0 0 0 0
          0 0 0 0 0 0
          0 0 0 0 0 0
          0 0 0 0 0 0
          0 0 0 0 0 0
          0 0 0 0 0 0
          0 0 0 0 0 0
          0 0 0 0 0 0
          0 0 0 0 0 0
          0 0 0 0 0 0
        </DataArray>
      </CellData>
      <Points>
        <DataArray type="Float32" Name="Points" NumberOfComponents="3" format="ascii" RangeMin="0" RangeMax="4.2201894765504395">
          4.099999904632568 1 0 4.099999904632568 0.6666666865348816 0
          3.690000057220459 1 0 3.690000057220459 0.6666666865348816 0
          4.099999904632568 0.3333333134651184 0 3.690000057220459 0.3333333134651184 0
          3.2799999713897705 1 0 3.2799999713897705 0.6666666865348816 0
          4.099999904632568 0 0 3.2799999713897705 0.3333333134651184 0
          3.690000057220459 0 0 2.869999885559082 1 0
          2.869999885559082 0.6666666865348816 0 3.2799999713897705 0 0
          2.869999885559082 0.3333333134651184 0 2.869999885559082 0 0
          2.4600000381469727 1 0 2.4600000381469727 0.6666666865348816 0
          2.4600000381469727 0.3333333134651184 0 2.4600000381469727 0 0
          2.049999952316284 1 0 2.049999952316284 0.6666666865348816 0
          2.049999952316284 0.3333333134651184 0 2.049999952316284 0 0
          1.6399999856948853 1 0 1.6399999856948853 0.6666666865348816 0
          1.6399999856948853 0.3333333134651184 0 1.6399999856948853 0 0
          1.2300000190734863 1 0 1.2300000190734863 0.6666666865348816 0
          1.2300000190734863 0.3333333134651184 0 1.2300000190734863 0 0
          0.8199999928474426 1 0 0.8199999928474426 0.6666666865348816 0
          0.8199999928474426 0.3333333134651184 0 0.8199999928474426 0 0
          0.4099999964237213 1 0 0.4099999964237213 0.6666666865348816 0
          0.4099999964237213 0.3333333134651184 0 0.4099999964237213 0 0
          0 1 0 0 0.6666666865348816 0
          0 0.3333333134651184 0 0 0 0
          <InformationKey name="L2_NORM_RANGE" location="vtkDataArray" length="2">
            <Value index="0">
              0
            </Value>
            <Value index="1">
              4.2201894766
            </Value>
          </InformationKey>
        </DataArray>
      </Points>
      <Cells>
        <DataArray type="Int64" Name="connectivity" format="ascii" RangeMin="0" RangeMax="43">
          39 38 43 38 42 43
          35 34 39 34 38 39
          31 30 35 30 34 35
          27 26 31 26 30 31
          23 22 27 22 26 27
          19 18 23 18 22 23
          15 14 19 14 18 19
          13 9 15 9 14 15
          10 5 13 5 9 13
          8 4 10 4 5 10
          38 37 42 37 41 42
          34 33 38 33 37 38
          30 29 34 29 33 34
          26 25 30 25 29 30
          22 21 26 21 25 26
          18 17 22 17 21 22
          14 12 18 12 17 18
          9 7 14 7 12 14
          5 3 9 3 7 9
          4 1 5 1 3 5
          37 36 41 36 40 41
          33 32 37 32 36 37
          29 28 33 28 32 33
          25 24 29 24 28 29
          21 20 25 20 24 25
          17 16 21 16 20 21
          12 11 17 11 16 17
          7 6 12 6 11 12
          3 2 7 2 6 7
          1 0 3 0 2 3
        </DataArray>
        <DataArray type="Int64" Name="offsets" format="ascii" RangeMin="3" RangeMax="180">
          3 6 9 12 15 18
          21 24 27 30 33 36
          39 42 45 48 51 54
          57 60 63 66 69 72
          75 78 81 84 87 90
          93 96 99 102 105 108
          111 114 117 120 123 126
          129 132 135 138 141 144
          147 150 153 156 159 162
          165 168 171 174 177 180
        </DataArray>
        <DataArray type="UInt8" Name="types" format="ascii" RangeMin="5" RangeMax="5">
          5 5 5 5 5 5
          5 5 5 5 5 5
          5 5 5 5 5 5
          5 5 5 5 5 5
          5 5 5 5 5 5
          5 5 5 5 5 5
          5 5 5 5 5 5
          5 5 5 5 5 5
          5 5 5 5 5 5
          5 5 5 5 5 5
        </DataArray>
      </Cells>
    </Piece>
  </UnstructuredGrid>
</VTKFile>
