<?xml version="1.0"?>
<VTKFile type="UnstructuredGrid" version="0.1" byte_order="LittleEndian" header_type="UInt32" compressor="vtkZLibDataCompressor">
  <UnstructuredGrid>
    <Piece NumberOfPoints="121" NumberOfCells="200">
      <PointData>
        <DataArray type="Float64" Name="tem_BC" format="ascii" RangeMin="0" RangeMax="0">
          0 0 0 0 0 0
          0 0 0 0 0 0
          0 0 0 0 0 0
          0 0 0 0 0 0
          0 0 0 0 0 0
          0 0 0 0 0 0
          0 0 0 0 0 0
          0 0 0 0 0 0
          0 0 0 0 0 0
          0 0 0 0 0 0
          0 0 0 0 0 0
          0 0 0 0 0 0
          0 0 0 0 0 0
          0 0 0 0 0 0
          0 0 0 0 0 0
          0 0 0 0 0 0
          0 0 0 0 0 0
          0 0 0 0 0 0
          0 0 0 0 0 0
          0 0 0 0 0 0
          0
        </DataArray>
        <DataArray type="Float64" Name="tem_FIXNO" format="ascii" RangeMin="-1" RangeMax="1">
          1 1 1 1 1 1
          1 1 1 1 -1 -1
          -1 -1 -1 -1 -1 -1
          -1 1 -1 -1 -1 -1
          -1 -1 -1 -1 -1 1
          -1 -1 -1 -1 -1 -1
          -1 -1 -1 1 -1 -1
          -1 -1 -1 -1 -1 -1
          -1 1 -1 -1 -1 -1
          -1 -1 -1 -1 -1 1
          -1 -1 -1 -1 -1 -1
          -1 -1 -1 1 -1 -1
          -1 -1 -1 -1 -1 -1
          -1 1 -1 -1 -1 -1
          -1 -1 -1 -1 -1 1
          -1 -1 -1 -1 -1 -1
          -1 -1 -1 1 1 -1
          -1 -1 -1 -1 -1 -1
          -1 -1 -1 -1 -1 -1
          -1 -1 -1 -1 -1 1
          -1
        </DataArray>
        <DataArray type="Float64" Name="Temperature" format="ascii" RangeMin="0" RangeMax="0.07316592200414546">
          0 0 0 0 0 0
          0 0 0 0 0.01636455102330795 0.01612037124104736
          0.01562252553340219 0.014850879317995603 0.013771879433651142 0.012332961521788928 0.010451120507940908 0.007987703957827084
          0.004686372750286689 0 0.030203198748617325 0.029724325303832868 0.02874876849292809 0.02723902920680911
          0.02513359378480506 0.02233876302948138 0.01871373343185325 0.014043239459890975 0.00798770394213593 0
          0.04175063685691806 0.04105487962362069 0.039639110858818896 0.03745279211925055 0.03441462034255208 0.030404680254205917
          0.02525172760531964 0.018713733402902194 0.010451120474704447 0 0.051223749182634996 0.05033536235376063
          0.04852992012392321 0.045748324942848556 0.04189733207833278 0.03684352692646765 0.030404680225018427 0.022338762983784944
          0.01233296148428334 0 0.058815165364936105 0.057762817357426166 0.05562679926588523 0.052343172336824464
          0.04781277298714447 0.04189733206248261 0.03441462030180751 0.025133593743893335 0.013771879408182893 0
          0.06468884657943974 0.06350385932514264 0.06110120416869417 0.05741470905098882 0.05234317237163007 0.04574832496204371
          0.03745279211139502 0.027239029203531547 0.014850879322238261 0 0.06897743201122902 0.06769248608946399
          0.06508936594029122 0.06110120422082743 0.05562679936391236 0.04852992021633262 0.03963911092728182 0.02874876856009436
          0.015622525582352047 0 0.07178088027085999 0.07042920398273254 0.06769248616575901 0.06350385942963413
          0.0577628174962805 0.05033536250562533 0.041054879769793454 0.029724325444353956 0.016120371339440397 0
          0.07316592167733851 0.07178088029539041 0.06897743217365043 0.0646888468421176 0.05881516569337817 0.05122374950501714
          0.04175063710659108 0.030203198903072635 0.016364551087776562 0 0 0.016364551034581135
          0.030203198765827007 0.0417506368912762 0.051223749236473756 0.058815165426505576 0.06468884663365136 0.06897743205310615
          0.07178088030863464 0.0731659218685965 0.07316592200414546 0.07178088053127757 0.06897743229561151 0.06468884689345987
          0.05881516568551852 0.05122374949309718 0.04175063713366586 0.030203198956204772 0.016364551130690994 0
          0.07316592199636211
        </DataArray>
      </PointData>
      <CellData>
        <DataArray type="UInt8" Name="vtkGhostType" format="ascii" RangeMin="0" RangeMax="1">
          0 0 0 0 0 0
          0 0 0 0 0 0
          0 0 0 0 0 0
          0 0 0 0 0 0
          0 0 0 0 0 0
          0 0 0 0 0 0
          0 0 0 0 0 0
          0 0 0 0 0 0
          0 0 0 0 0 0
          0 0 0 0 0 0
          0 0 0 0 0 0
          0 0 0 0 0 0
          0 0 0 0 0 0
          0 0 0 0 0 0
          0 0 0 0 0 0
          0 0 0 0 0 0
          0 0 0 0 0 0
          0 0 0 0 0 0
          0 0 0 0 0 0
          0 0 0 0 0 0
          0 0 0 0 0 0
          0 0 0 0 0 0
          0 0 0 0 0 0
          0 0 0 0 0 0
          0 0 0 0 0 0
          0 0 0 0 0 0
          0 0 0 0 0 0
          1 1 1 1 1 1
          1 1 1 1 1 1
          1 1 1 1 1 1
          0 0 0 0 0 0
          0 0 0 0 0 0
          0 0 0 0 0 0
          1 0
        </DataArray>
      </CellData>
      <Points>
        <DataArray type="Float32" Name="Points" NumberOfComponents="3" format="ascii" RangeMin="5.551115123125783e-17" RangeMax="0.7443229541838491">
          0 0.4736842215061188 0 0 0.42105263471603394 0
          0 0.3684210479259491 0 0 0.31578946113586426 0
          0 0.2631579041481018 0 0 0.21052631735801697 0
          0 0.15789473056793213 0 0 0.10526315867900848 0
          0 0.05263157933950424 0 0 5.551115123125783e-17 0
          0.05263157933950424 0.4736842215061188 0 0.05263157933950424 0.42105263471603394 0
          0.05263157933950424 0.3684210479259491 0 0.05263157933950424 0.31578946113586426 0
          0.05263157933950424 0.2631579041481018 0 0.05263157933950424 0.21052631735801697 0
          0.05263157933950424 0.15789473056793213 0 0.05263157933950424 0.10526315867900848 0
          0.05263157933950424 0.05263157933950424 0 0.05263157933950424 5.551115123125783e-17 0
          0.10526315867900848 0.4736842215061188 0 0.10526315867900848 0.42105263471603394 0
          0.10526315867900848 0.3684210479259491 0 0.10526315867900848 0.31578946113586426 0
          0.10526315867900848 0.2631579041481018 0 0.10526315867900848 0.21052631735801697 0
          0.10526315867900848 0.15789473056793213 0 0.10526315867900848 0.10526315867900848 0
          0.10526315867900848 0.05263157933950424 0 0.10526315867900848 5.551115123125783e-17 0
          0.15789473056793213 0.4736842215061188 0 0.15789473056793213 0.42105263471603394 0
          0.15789473056793213 0.3684210479259491 0 0.15789473056793213 0.31578946113586426 0
          0.15789473056793213 0.2631579041481018 0 0.15789473056793213 0.21052631735801697 0
          0.15789473056793213 0.15789473056793213 0 0.15789473056793213 0.10526315867900848 0
          0.15789473056793213 0.05263157933950424 0 0.15789473056793213 5.551115123125783e-17 0
          0.21052631735801697 0.4736842215061188 0 0.21052631735801697 0.42105263471603394 0
          0.21052631735801697 0.3684210479259491 0 0.21052631735801697 0.31578946113586426 0
          0.21052631735801697 0.2631579041481018 0 0.21052631735801697 0.21052631735801697 0
          0.21052631735801697 0.15789473056793213 0 0.21052631735801697 0.10526315867900848 0
          0.21052631735801697 0.05263157933950424 0 0.21052631735801697 5.551115123125783e-17 0
          0.2631579041481018 0.4736842215061188 0 0.2631579041481018 0.42105263471603394 0
          0.2631579041481018 0.3684210479259491 0 0.2631579041481018 0.31578946113586426 0
          0.2631579041481018 0.2631579041481018 0 0.2631579041481018 0.21052631735801697 0
          0.2631579041481018 0.15789473056793213 0 0.2631579041481018 0.10526315867900848 0
          0.2631579041481018 0.05263157933950424 0 0.2631579041481018 5.551115123125783e-17 0
          0.31578946113586426 0.4736842215061188 0 0.31578946113586426 0.42105263471603394 0
          0.31578946113586426 0.3684210479259491 0 0.31578946113586426 0.31578946113586426 0
          0.31578946113586426 0.2631579041481018 0 0.31578946113586426 0.21052631735801697 0
          0.31578946113586426 0.15789473056793213 0 0.31578946113586426 0.10526315867900848 0
          0.31578946113586426 0.05263157933950424 0 0.31578946113586426 5.551115123125783e-17 0
          0.3684210479259491 0.4736842215061188 0 0.3684210479259491 0.42105263471603394 0
          0.3684210479259491 0.3684210479259491 0 0.3684210479259491 0.31578946113586426 0
          0.3684210479259491 0.2631579041481018 0 0.3684210479259491 0.21052631735801697 0
          0.3684210479259491 0.15789473056793213 0 0.3684210479259491 0.10526315867900848 0
          0.3684210479259491 0.05263157933950424 0 0.3684210479259491 5.551115123125783e-17 0
          0.42105263471603394 0.4736842215061188 0 0.42105263471603394 0.42105263471603394 0
          0.42105263471603394 0.3684210479259491 0 0.42105263471603394 0.31578946113586426 0
          0.42105263471603394 0.2631579041481018 0 0.42105263471603394 0.21052631735801697 0
          0.42105263471603394 0.15789473056793213 0 0.42105263471603394 0.10526315867900848 0
          0.42105263471603394 0.05263157933950424 0 0.42105263471603394 5.551115123125783e-17 0
          0.4736842215061188 0.4736842215061188 0 0.4736842215061188 0.42105263471603394 0
          0.4736842215061188 0.3684210479259491 0 0.4736842215061188 0.31578946113586426 0
          0.4736842215061188 0.2631579041481018 0 0.4736842215061188 0.21052631735801697 0
          0.4736842215061188 0.15789473056793213 0 0.4736842215061188 0.10526315867900848 0
          0.4736842215061188 0.05263157933950424 0 0.4736842215061188 5.551115123125783e-17 0
          0 0.5263158082962036 0 0.05263157933950424 0.5263158082962036 0
          0.10526315867900848 0.5263158082962036 0 0.15789473056793213 0.5263158082962036 0
          0.21052631735801697 0.5263158082962036 0 0.2631579041481018 0.5263158082962036 0
          0.31578946113586426 0.5263158082962036 0 0.3684210479259491 0.5263158082962036 0
          0.42105263471603394 0.5263158082962036 0 0.4736842215061188 0.5263158082962036 0
          0.5263158082962036 0.4736842215061188 0 0.5263158082962036 0.42105263471603394 0
          0.5263158082962036 0.3684210479259491 0 0.5263158082962036 0.31578946113586426 0
          0.5263158082962036 0.2631579041481018 0 0.5263158082962036 0.21052631735801697 0
          0.5263158082962036 0.15789473056793213 0 0.5263158082962036 0.10526315867900848 0
          0.5263158082962036 0.05263157933950424 0 0.5263158082962036 5.551115123125783e-17 0
          0.5263158082962036 0.5263158082962036 0
          <InformationKey name="L2_NORM_RANGE" location="vtkDataArray" length="2">
            <Value index="0">
              5.5511151231e-17
            </Value>
            <Value index="1">
              0.74432295418
            </Value>
          </InformationKey>
        </DataArray>
      </Points>
      <Cells>
        <DataArray type="Int64" Name="connectivity" format="ascii" RangeMin="0" RangeMax="120">
          0 1 10 1 11 10
          1 2 11 2 12 11
          2 3 12 3 13 12
          3 4 13 4 14 13
          4 5 14 5 15 14
          5 6 15 6 16 15
          6 7 16 7 17 16
          7 8 17 8 18 17
          8 9 18 9 19 18
          10 11 20 11 21 20
          11 12 21 12 22 21
          12 13 22 13 23 22
          13 14 23 14 24 23
          14 15 24 15 25 24
          15 16 25 16 26 25
          16 17 26 17 27 26
          17 18 27 18 28 27
          18 19 28 19 29 28
          20 21 30 21 31 30
          21 22 31 22 32 31
          22 23 32 23 33 32
          23 24 33 24 34 33
          24 25 34 25 35 34
          25 26 35 26 36 35
          26 27 36 27 37 36
          27 28 37 28 38 37
          28 29 38 29 39 38
          30 31 40 31 41 40
          31 32 41 32 42 41
          32 33 42 33 43 42
          33 34 43 34 44 43
          34 35 44 35 45 44
          35 36 45 36 46 45
          36 37 46 37 47 46
          37 38 47 38 48 47
          38 39 48 39 49 48
          40 41 50 41 51 50
          41 42 51 42 52 51
          42 43 52 43 53 52
          43 44 53 44 54 53
          44 45 54 45 55 54
          45 46 55 46 56 55
          46 47 56 47 57 56
          47 48 57 48 58 57
          48 49 58 49 59 58
          50 51 60 51 61 60
          51 52 61 52 62 61
          52 53 62 53 63 62
          53 54 63 54 64 63
          54 55 64 55 65 64
          55 56 65 56 66 65
          56 57 66 57 67 66
          57 58 67 58 68 67
          58 59 68 59 69 68
          60 61 70 61 71 70
          61 62 71 62 72 71
          62 63 72 63 73 72
          63 64 73 64 74 73
          64 65 74 65 75 74
          65 66 75 66 76 75
          66 67 76 67 77 76
          67 68 77 68 78 77
          68 69 78 69 79 78
          70 71 80 71 81 80
          71 72 81 72 82 81
          72 73 82 73 83 82
          73 74 83 74 84 83
          74 75 84 75 85 84
          75 76 85 76 86 85
          76 77 86 77 87 86
          77 78 87 78 88 87
          78 79 88 79 89 88
          80 81 90 81 91 90
          81 82 91 82 92 91
          82 83 92 83 93 92
          83 84 93 84 94 93
          84 85 94 85 95 94
          85 86 95 86 96 95
          86 87 96 87 97 96
          87 88 97 88 98 97
          88 89 98 89 99 98
          0 101 100 0 10 101
          10 102 101 10 20 102
          20 103 102 20 30 103
          30 104 103 30 40 104
          40 105 104 40 50 105
          50 106 105 50 60 106
          60 107 106 60 70 107
          70 108 107 70 80 108
          80 109 108 80 90 109
          91 110 90 91 111 110
          92 111 91 92 112 111
          93 112 92 93 113 112
          94 113 93 94 114 113
          95 114 94 95 115 114
          96 115 95 96 116 115
          97 116 96 97 117 116
          98 117 97 98 118 117
          99 118 98 99 119 118
          90 120 109 90 110 120
        </DataArray>
        <DataArray type="Int64" Name="offsets" format="ascii" RangeMin="3" RangeMax="600">
          3 6 9 12 15 18
          21 24 27 30 33 36
          39 42 45 48 51 54
          57 60 63 66 69 72
          75 78 81 84 87 90
          93 96 99 102 105 108
          111 114 117 120 123 126
          129 132 135 138 141 144
          147 150 153 156 159 162
          165 168 171 174 177 180
          183 186 189 192 195 198
          201 204 207 210 213 216
          219 222 225 228 231 234
          237 240 243 246 249 252
          255 258 261 264 267 270
          273 276 279 282 285 288
          291 294 297 300 303 306
          309 312 315 318 321 324
          327 330 333 336 339 342
          345 348 351 354 357 360
          363 366 369 372 375 378
          381 384 387 390 393 396
          399 402 405 408 411 414
          417 420 423 426 429 432
          435 438 441 444 447 450
          453 456 459 462 465 468
          471 474 477 480 483 486
          489 492 495 498 501 504
          507 510 513 516 519 522
          525 528 531 534 537 540
          543 546 549 552 555 558
          561 564 567 570 573 576
          579 582 585 588 591 594
          597 600
        </DataArray>
        <DataArray type="UInt8" Name="types" format="ascii" RangeMin="5" RangeMax="5">
          5 5 5 5 5 5
          5 5 5 5 5 5
          5 5 5 5 5 5
          5 5 5 5 5 5
          5 5 5 5 5 5
          5 5 5 5 5 5
          5 5 5 5 5 5
          5 5 5 5 5 5
          5 5 5 5 5 5
          5 5 5 5 5 5
          5 5 5 5 5 5
          5 5 5 5 5 5
          5 5 5 5 5 5
          5 5 5 5 5 5
          5 5 5 5 5 5
          5 5 5 5 5 5
          5 5 5 5 5 5
          5 5 5 5 5 5
          5 5 5 5 5 5
          5 5 5 5 5 5
          5 5 5 5 5 5
          5 5 5 5 5 5
          5 5 5 5 5 5
          5 5 5 5 5 5
          5 5 5 5 5 5
          5 5 5 5 5 5
          5 5 5 5 5 5
          5 5 5 5 5 5
          5 5 5 5 5 5
          5 5 5 5 5 5
          5 5 5 5 5 5
          5 5 5 5 5 5
          5 5 5 5 5 5
          5 5
        </DataArray>
      </Cells>
    </Piece>
  </UnstructuredGrid>
</VTKFile>
