<?xml version="1.0"?>
<VTKFile type="UnstructuredGrid" version="0.1" byte_order="LittleEndian" header_type="UInt32" compressor="vtkZLibDataCompressor">
  <UnstructuredGrid>
    <Piece NumberOfPoints="121" NumberOfCells="200">
      <PointData>
        <DataArray type="Float64" Name="tem_BC" format="ascii" RangeMin="0" RangeMax="0">
          0 0 0 0 0 0
          0 0 0 0 0 0
          0 0 0 0 0 0
          0 0 0 0 0 0
          0 0 0 0 0 0
          0 0 0 0 0 0
          0 0 0 0 0 0
          0 0 0 0 0 0
          0 0 0 0 0 0
          0 0 0 0 0 0
          0 0 0 0 0 0
          0 0 0 0 0 0
          0 0 0 0 0 0
          0 0 0 0 0 0
          0 0 0 0 0 0
          0 0 0 0 0 0
          0 0 0 0 0 0
          0 0 0 0 0 0
          0 0 0 0 0 0
          0 0 0 0 0 0
          0
        </DataArray>
        <DataArray type="Float64" Name="tem_FIXNO" format="ascii" RangeMin="-1" RangeMax="1">
          1 -1 -1 -1 -1 -1
          -1 -1 -1 -1 1 -1
          -1 -1 -1 -1 -1 -1
          -1 -1 1 -1 -1 -1
          -1 -1 -1 -1 -1 -1
          1 -1 -1 -1 -1 -1
          -1 -1 -1 -1 1 -1
          -1 -1 -1 -1 -1 -1
          -1 -1 1 -1 -1 -1
          -1 -1 -1 -1 -1 -1
          1 -1 -1 -1 -1 -1
          -1 -1 -1 -1 1 -1
          -1 -1 -1 -1 -1 -1
          -1 -1 1 -1 -1 -1
          -1 -1 -1 -1 -1 -1
          1 1 1 1 1 1
          1 1 1 1 -1 -1
          -1 -1 -1 -1 -1 -1
          -1 1 1 -1 -1 -1
          -1 -1 -1 -1 -1 -1
          -1
        </DataArray>
        <DataArray type="Float64" Name="Temperature" format="ascii" RangeMin="0" RangeMax="0.07316592200414546">
          0 0.01636455108919644 0.030203198868740486 0.04175063703126001 0.051223749400015166 0.05881516557623995
          0.06468884674254026 0.06897743214972657 0.07178088045032294 0.07316592199636211 0 0.016120371316765116
          0.029724325404780694 0.04105487972724333 0.05033536246359717 0.05776281746746845 0.06350385942692283 0.06769248617493968
          0.07042920410152272 0.07178088043829557 0 0.015622525570844831 0.028748768542976574 0.03963911091695869
          0.04852992020400961 0.055626799366549 0.061101204256979486 0.06508936598299694 0.06769248620362145 0.06897743219134128
          0 0.014850879341005905 0.027239029234400882 0.03745279215494347 0.045748325003726074 0.052343172431530714
          0.05741470914013092 0.0611012042700426 0.06350385947858295 0.06468884681293163 0 0.01377187945120055
          0.025133593813029403 0.03441462038745077 0.04189733215054628 0.0478127730945428 0.05234317246969497 0.05562679942262858
          0.05776281757094673 0.0588151656721524 0 0.012332961530457312 0.02233876306043145 0.030404680319823567
          0.03684352702958885 0.04189733220356718 0.04574832509229303 0.04852992030201403 0.05033536258770562 0.05122374950352894
          0 0.010451120507324402 0.018713733462696253 0.025251727682588983 0.030404680342956517 0.034414620457574374
          0.03745279226049982 0.03963911102411495 0.04105487982742009 0.041750637121185756 0 0.007987703956619777
          0.014043239496752406 0.018713733486069046 0.022338763094575668 0.025133593874917235 0.027239029320129303 0.028748768617730958
          0.02972432544890984 0.030203198928330347 0 0.004686372752302718 0.007987703976669487 0.010451120542163454
          0.012332961562690961 0.013771879488170874 0.01485087938061113 0.015622525590827763 0.016120371310510587 0.01636455111126966
          0 0 0 0 0 0
          0 0 0 0 0.07316592200414546 0.07178088050074753
          0.06897743228482905 0.06468884693335465 0.0588151657848387 0.05122374960558146 0.04175063721556662 0.030203199003886218
          0.016364551160077397 0 0 0.016364551077770267 0.030203198838971067 0.04175063695664818
          0.05122374926039174 0.05881516539757335 0.06468884658055547 0.06897743202668404 0.07178088031658189 0.0731659218685965
          0.07316592167733851
        </DataArray>
      </PointData>
      <CellData>
        <DataArray type="UInt8" Name="vtkGhostType" format="ascii" RangeMin="0" RangeMax="1">
          0 0 0 0 0 0
          0 0 0 0 0 0
          0 0 0 0 0 0
          0 0 0 0 0 0
          0 0 0 0 0 0
          0 0 0 0 0 0
          0 0 0 0 0 0
          0 0 0 0 0 0
          0 0 0 0 0 0
          0 0 0 0 0 0
          0 0 0 0 0 0
          0 0 0 0 0 0
          0 0 0 0 0 0
          0 0 0 0 0 0
          0 0 0 0 0 0
          0 0 0 0 0 0
          0 0 0 0 0 0
          0 0 0 0 0 0
          0 0 0 0 0 0
          0 0 0 0 0 0
          0 0 0 0 0 0
          0 0 0 0 0 0
          0 0 0 0 0 0
          0 0 0 0 0 0
          0 0 0 0 0 0
          0 0 0 0 0 0
          0 0 0 0 0 0
          0 0 0 0 0 0
          0 0 0 0 0 0
          0 0 0 0 0 0
          1 1 1 1 1 1
          1 1 1 1 1 1
          1 1 1 1 1 1
          1 1
        </DataArray>
      </CellData>
      <Points>
        <DataArray type="Float32" Name="Points" NumberOfComponents="3" format="ascii" RangeMin="0.6698906503360945" RangeMax="1.4142135623730951">
          0.5263158082962036 1 0 0.5263158082962036 0.9473684430122375 0
          0.5263158082962036 0.8947368264198303 0 0.5263158082962036 0.8421052694320679 0
          0.5263158082962036 0.7894737124443054 0 0.5263158082962036 0.7368420958518982 0
          0.5263158082962036 0.6842105388641357 0 0.5263158082962036 0.6315789222717285 0
          0.5263158082962036 0.5789473652839661 0 0.5263158082962036 0.5263158082962036 0
          0.5789473652839661 1 0 0.5789473652839661 0.9473684430122375 0
          0.5789473652839661 0.8947368264198303 0 0.5789473652839661 0.8421052694320679 0
          0.5789473652839661 0.7894737124443054 0 0.5789473652839661 0.7368420958518982 0
          0.5789473652839661 0.6842105388641357 0 0.5789473652839661 0.6315789222717285 0
          0.5789473652839661 0.5789473652839661 0 0.5789473652839661 0.5263158082962036 0
          0.6315789222717285 1 0 0.6315789222717285 0.9473684430122375 0
          0.6315789222717285 0.8947368264198303 0 0.6315789222717285 0.8421052694320679 0
          0.6315789222717285 0.7894737124443054 0 0.6315789222717285 0.7368420958518982 0
          0.6315789222717285 0.6842105388641357 0 0.6315789222717285 0.6315789222717285 0
          0.6315789222717285 0.5789473652839661 0 0.6315789222717285 0.5263158082962036 0
          0.6842105388641357 1 0 0.6842105388641357 0.9473684430122375 0
          0.6842105388641357 0.8947368264198303 0 0.6842105388641357 0.8421052694320679 0
          0.6842105388641357 0.7894737124443054 0 0.6842105388641357 0.7368420958518982 0
          0.6842105388641357 0.6842105388641357 0 0.6842105388641357 0.6315789222717285 0
          0.6842105388641357 0.5789473652839661 0 0.6842105388641357 0.5263158082962036 0
          0.7368420958518982 1 0 0.7368420958518982 0.9473684430122375 0
          0.7368420958518982 0.8947368264198303 0 0.7368420958518982 0.8421052694320679 0
          0.7368420958518982 0.7894737124443054 0 0.7368420958518982 0.7368420958518982 0
          0.7368420958518982 0.6842105388641357 0 0.7368420958518982 0.6315789222717285 0
          0.7368420958518982 0.5789473652839661 0 0.7368420958518982 0.5263158082962036 0
          0.7894737124443054 1 0 0.7894737124443054 0.9473684430122375 0
          0.7894737124443054 0.8947368264198303 0 0.7894737124443054 0.8421052694320679 0
          0.7894737124443054 0.7894737124443054 0 0.7894737124443054 0.7368420958518982 0
          0.7894737124443054 0.6842105388641357 0 0.7894737124443054 0.6315789222717285 0
          0.7894737124443054 0.5789473652839661 0 0.7894737124443054 0.5263158082962036 0
          0.8421052694320679 1 0 0.8421052694320679 0.9473684430122375 0
          0.8421052694320679 0.8947368264198303 0 0.8421052694320679 0.8421052694320679 0
          0.8421052694320679 0.7894737124443054 0 0.8421052694320679 0.7368420958518982 0
          0.8421052694320679 0.6842105388641357 0 0.8421052694320679 0.6315789222717285 0
          0.8421052694320679 0.5789473652839661 0 0.8421052694320679 0.5263158082962036 0
          0.8947368264198303 1 0 0.8947368264198303 0.9473684430122375 0
          0.8947368264198303 0.8947368264198303 0 0.8947368264198303 0.8421052694320679 0
          0.8947368264198303 0.7894737124443054 0 0.8947368264198303 0.7368420958518982 0
          0.8947368264198303 0.6842105388641357 0 0.8947368264198303 0.6315789222717285 0
          0.8947368264198303 0.5789473652839661 0 0.8947368264198303 0.5263158082962036 0
          0.9473684430122375 1 0 0.9473684430122375 0.9473684430122375 0
          0.9473684430122375 0.8947368264198303 0 0.9473684430122375 0.8421052694320679 0
          0.9473684430122375 0.7894737124443054 0 0.9473684430122375 0.7368420958518982 0
          0.9473684430122375 0.6842105388641357 0 0.9473684430122375 0.6315789222717285 0
          0.9473684430122375 0.5789473652839661 0 0.9473684430122375 0.5263158082962036 0
          1 1 0 1 0.9473684430122375 0
          1 0.8947368264198303 0 1 0.8421052694320679 0
          1 0.7894737124443054 0 1 0.7368420958518982 0
          1 0.6842105388641357 0 1 0.6315789222717285 0
          1 0.5789473652839661 0 1 0.5263158082962036 0
          0.5263158082962036 0.4736842215061188 0 0.5789473652839661 0.4736842215061188 0
          0.6315789222717285 0.4736842215061188 0 0.6842105388641357 0.4736842215061188 0
          0.7368420958518982 0.4736842215061188 0 0.7894737124443054 0.4736842215061188 0
          0.8421052694320679 0.4736842215061188 0 0.8947368264198303 0.4736842215061188 0
          0.9473684430122375 0.4736842215061188 0 1 0.4736842215061188 0
          0.4736842215061188 1 0 0.4736842215061188 0.9473684430122375 0
          0.4736842215061188 0.8947368264198303 0 0.4736842215061188 0.8421052694320679 0
          0.4736842215061188 0.7894737124443054 0 0.4736842215061188 0.7368420958518982 0
          0.4736842215061188 0.6842105388641357 0 0.4736842215061188 0.6315789222717285 0
          0.4736842215061188 0.5789473652839661 0 0.4736842215061188 0.5263158082962036 0
          0.4736842215061188 0.4736842215061188 0
          <InformationKey name="L2_NORM_RANGE" location="vtkDataArray" length="2">
            <Value index="0">
              0.66989065034
            </Value>
            <Value index="1">
              1.4142135624
            </Value>
          </InformationKey>
        </DataArray>
      </Points>
      <Cells>
        <DataArray type="Int64" Name="connectivity" format="ascii" RangeMin="0" RangeMax="120">
          0 1 10 1 11 10
          1 2 11 2 12 11
          2 3 12 3 13 12
          3 4 13 4 14 13
          4 5 14 5 15 14
          5 6 15 6 16 15
          6 7 16 7 17 16
          7 8 17 8 18 17
          8 9 18 9 19 18
          10 11 20 11 21 20
          11 12 21 12 22 21
          12 13 22 13 23 22
          13 14 23 14 24 23
          14 15 24 15 25 24
          15 16 25 16 26 25
          16 17 26 17 27 26
          17 18 27 18 28 27
          18 19 28 19 29 28
          20 21 30 21 31 30
          21 22 31 22 32 31
          22 23 32 23 33 32
          23 24 33 24 34 33
          24 25 34 25 35 34
          25 26 35 26 36 35
          26 27 36 27 37 36
          27 28 37 28 38 37
          28 29 38 29 39 38
          30 31 40 31 41 40
          31 32 41 32 42 41
          32 33 42 33 43 42
          33 34 43 34 44 43
          34 35 44 35 45 44
          35 36 45 36 46 45
          36 37 46 37 47 46
          37 38 47 38 48 47
          38 39 48 39 49 48
          40 41 50 41 51 50
          41 42 51 42 52 51
          42 43 52 43 53 52
          43 44 53 44 54 53
          44 45 54 45 55 54
          45 46 55 46 56 55
          46 47 56 47 57 56
          47 48 57 48 58 57
          48 49 58 49 59 58
          50 51 60 51 61 60
          51 52 61 52 62 61
          52 53 62 53 63 62
          53 54 63 54 64 63
          54 55 64 55 65 64
          55 56 65 56 66 65
          56 57 66 57 67 66
          57 58 67 58 68 67
          58 59 68 59 69 68
          60 61 70 61 71 70
          61 62 71 62 72 71
          62 63 72 63 73 72
          63 64 73 64 74 73
          64 65 74 65 75 74
          65 66 75 66 76 75
          66 67 76 67 77 76
          67 68 77 68 78 77
          68 69 78 69 79 78
          70 71 80 71 81 80
          71 72 81 72 82 81
          72 73 82 73 83 82
          73 74 83 74 84 83
          74 75 84 75 85 84
          75 76 85 76 86 85
          76 77 86 77 87 86
          77 78 87 78 88 87
          78 79 88 79 89 88
          80 81 90 81 91 90
          81 82 91 82 92 91
          82 83 92 83 93 92
          83 84 93 84 94 93
          84 85 94 85 95 94
          85 86 95 86 96 95
          86 87 96 87 97 96
          87 88 97 88 98 97
          88 89 98 89 99 98
          100 19 9 100 101 19
          101 29 19 101 102 29
          102 39 29 102 103 39
          103 49 39 103 104 49
          104 59 49 104 105 59
          105 69 59 105 106 69
          106 79 69 106 107 79
          107 89 79 107 108 89
          108 99 89 108 109 99
          111 0 110 111 1 0
          112 1 111 112 2 1
          113 2 112 113 3 2
          114 3 113 114 4 3
          115 4 114 115 5 4
          116 5 115 116 6 5
          117 6 116 117 7 6
          118 7 117 118 8 7
          119 8 118 119 9 8
          120 9 119 120 100 9
        </DataArray>
        <DataArray type="Int64" Name="offsets" format="ascii" RangeMin="3" RangeMax="600">
          3 6 9 12 15 18
          21 24 27 30 33 36
          39 42 45 48 51 54
          57 60 63 66 69 72
          75 78 81 84 87 90
          93 96 99 102 105 108
          111 114 117 120 123 126
          129 132 135 138 141 144
          147 150 153 156 159 162
          165 168 171 174 177 180
          183 186 189 192 195 198
          201 204 207 210 213 216
          219 222 225 228 231 234
          237 240 243 246 249 252
          255 258 261 264 267 270
          273 276 279 282 285 288
          291 294 297 300 303 306
          309 312 315 318 321 324
          327 330 333 336 339 342
          345 348 351 354 357 360
          363 366 369 372 375 378
          381 384 387 390 393 396
          399 402 405 408 411 414
          417 420 423 426 429 432
          435 438 441 444 447 450
          453 456 459 462 465 468
          471 474 477 480 483 486
          489 492 495 498 501 504
          507 510 513 516 519 522
          525 528 531 534 537 540
          543 546 549 552 555 558
          561 564 567 570 573 576
          579 582 585 588 591 594
          597 600
        </DataArray>
        <DataArray type="UInt8" Name="types" format="ascii" RangeMin="5" RangeMax="5">
          5 5 5 5 5 5
          5 5 5 5 5 5
          5 5 5 5 5 5
          5 5 5 5 5 5
          5 5 5 5 5 5
          5 5 5 5 5 5
          5 5 5 5 5 5
          5 5 5 5 5 5
          5 5 5 5 5 5
          5 5 5 5 5 5
          5 5 5 5 5 5
          5 5 5 5 5 5
          5 5 5 5 5 5
          5 5 5 5 5 5
          5 5 5 5 5 5
          5 5 5 5 5 5
          5 5 5 5 5 5
          5 5 5 5 5 5
          5 5 5 5 5 5
          5 5 5 5 5 5
          5 5 5 5 5 5
          5 5 5 5 5 5
          5 5 5 5 5 5
          5 5 5 5 5 5
          5 5 5 5 5 5
          5 5 5 5 5 5
          5 5 5 5 5 5
          5 5 5 5 5 5
          5 5 5 5 5 5
          5 5 5 5 5 5
          5 5 5 5 5 5
          5 5 5 5 5 5
          5 5 5 5 5 5
          5 5
        </DataArray>
      </Cells>
    </Piece>
  </UnstructuredGrid>
</VTKFile>
