<?xml version="1.0"?>
<VTKFile type="UnstructuredGrid" version="0.1" byte_order="LittleEndian" header_type="UInt32" compressor="vtkZLibDataCompressor">
  <UnstructuredGrid>
    <Piece NumberOfPoints="88" NumberOfCells="239">
      <PointData>
        <DataArray type="Float64" Name="nsi_BC" NumberOfComponents="3" format="ascii" RangeMin="0" RangeMax="1">
          1 0 0 1 0 0
          1 0 0 1 0 0
          1 0 0 0 0 0
          1 0 0 0 0 0
          1 0 0 0 0 0
          1 0 0 0 0 0
          0 0 0 0 0 0
          1 0 0 0 0 0
          0 0 0 1 0 0
          1 0 0 1 0 0
          0 0 0 1 0 0
          1 0 0 0 0 0
          0 0 0 0 0 0
          1 0 0 1 0 0
          0 0 0 0 0 0
          0 0 0 0 0 0
          1 0 0 0 0 0
          0 0 0 0 0 0
          1 0 0 1 0 0
          0 0 0 1 0 0
          1 0 0 0 0 0
          0 0 0 0 0 0
          0 0 0 1 0 0
          0 0 0 0 0 0
          1 0 0 0 0 0
          0 0 0 0 0 0
          1 0 0 1 0 0
          0 0 0 0 0 0
          1 0 0 0 0 0
          0 0 0 1 0 0
          0 0 0 0 0 0
          1 0 0 0 0 0
          0 0 0 1 0 0
          0 0 0 0 0 0
          0 0 0 1 0 0
          1 0 0 0 0 0
          0 0 0 1 0 0
          0 0 0 1 0 0
          0 0 0 0 0 0
          1 0 0 1 0 0
          1 0 0 1 0 0
          0 0 0 0 0 0
          1 0 0 0 0 0
          1 0 0 0 0 0
          <InformationKey name="L2_NORM_RANGE" location="vtkDataArray" length="2">
            <Value index="0">
              0
            </Value>
            <Value index="1">
              1
            </Value>
          </InformationKey>
        </DataArray>
        <DataArray type="Float64" Name="nsi_FIXNO" NumberOfComponents="3" format="ascii" RangeMin="1.7320508075688772" RangeMax="1.7320508075688772">
          1 1 1 1 1 1
          1 1 1 1 1 1
          1 1 1 1 1 1
          1 1 1 1 1 1
          1 1 1 -1 -1 -1
          1 1 1 1 1 1
          1 1 1 1 1 1
          1 1 1 -1 -1 -1
          -1 -1 -1 1 1 1
          1 1 1 1 1 1
          1 1 1 1 1 1
          1 1 1 1 1 1
          1 1 1 -1 -1 -1
          1 1 1 1 1 1
          1 1 1 -1 -1 -1
          1 1 1 1 1 1
          1 1 1 1 1 1
          -1 -1 -1 1 1 1
          1 1 1 1 1 1
          1 1 1 1 1 1
          1 1 1 1 1 1
          1 1 1 1 1 1
          1 1 1 1 1 1
          1 1 1 1 1 1
          1 1 1 1 1 1
          1 1 1 1 1 1
          1 1 1 1 1 1
          1 1 1 1 1 1
          1 1 1 1 1 1
          1 1 1 1 1 1
          1 1 1 1 1 1
          1 1 1 1 1 1
          1 1 1 1 1 1
          1 1 1 1 1 1
          1 1 1 1 1 1
          1 1 1 -1 -1 -1
          1 1 1 1 1 1
          1 1 1 1 1 1
          1 1 1 1 1 1
          1 1 1 1 1 1
          1 1 1 1 1 1
          1 1 1 1 1 1
          1 1 1 1 1 1
          1 1 1 1 1 1
          <InformationKey name="L2_NORM_RANGE" location="vtkDataArray" length="2">
            <Value index="0">
              1.7320508076
            </Value>
            <Value index="1">
              1.7320508076
            </Value>
          </InformationKey>
        </DataArray>
        <DataArray type="Float64" Name="tem_BC" format="ascii" RangeMin="0" RangeMax="12">
          0 0 0 0 0 12
          0 12 0 0 0 12
          12 12 0 0 0 0
          0 0 12 0 0 12
          12 0 0 0 12 0
          12 12 0 12 0 12
          0 0 12 0 0 12
          12 12 12 0 12 12
          0 12 12 12 0 0
          12 12 0 12 12 0
          12 12 0 12 12 0
          12 12 12 0 0 0
          12 0 12 7.64356 12 12
          0 7.64356 8.129456 8.136573 12 12
          7.64356 12 8.129456 12
        </DataArray>
        <DataArray type="Float64" Name="tem_FIXNO" format="ascii" RangeMin="-1" RangeMax="1">
          -1 -1 -1 -1 -1 1
          -1 1 -1 -1 -1 1
          1 1 -1 -1 -1 -1
          -1 -1 1 -1 -1 1
          1 -1 -1 -1 1 -1
          1 1 -1 1 -1 1
          -1 -1 1 -1 -1 1
          1 1 1 -1 1 1
          -1 1 1 1 -1 -1
          1 1 -1 1 1 -1
          1 1 -1 1 1 -1
          1 1 1 -1 -1 -1
          1 -1 1 1 1 1
          -1 1 1 1 1 1
          1 1 1 1
        </DataArray>
        <DataArray type="Float64" Name="Velocity" NumberOfComponents="3" format="ascii" RangeMin="0" RangeMax="1.0000000000000002">
          1 0 0 1 0 0
          1 0 0 1 0 0
          1 0 0 0 0 0
          1 0 0 0 0 0
          1 0 0 0.8579142018841316 0.10287331586178192 0.07069054297767678
          1 0 0 0 0 0
          0 0 0 0 0 0
          1 0 0 0.8982578740204935 0.03764582336283739 0.014411250955121455
          0.8247360154474445 0.09428325594712475 -0.018107198499561147 1 0 0
          1 0 0 1 0 0
          0 0 0 1 0 0
          1 0 0 0 0 0
          0 0 0 0.6097689669590756 0.15030578416073825 -0.11013451399216756
          1 0 0 1.0000000000000002 0 0
          0 0 0 0.6632630272711606 0.16437001064129725 0.012151916574901028
          0 0 0 0 0 0
          1 0 0 0 0 0
          0.7886941797167709 -0.05268550843072571 0.09639156771465641 0 0 0
          1 0 0 1 0 0
          0 0 0 1 0 0
          1 0 0 0 0 0
          0 0 0 0 0 0
          0 0 0 1 0 0
          0 0 0 0 0 0
          1 0 0 0 0 0
          0 0 0 0 0 0
          1 0 0 1 0 0
          0 0 0 0 0 0
          1 0 0 0 0 0
          0 0 0 1 0 0
          0 0 0 0 0 0
          1 0 0 0 0 0
          0 0 0 1 0 0
          0 0 0 0 0 0
          0 0 0 1 0 0
          1 0 0 0.7568997868791132 0.039962614975704774 -0.1402823344599179
          0 0 0 1 0 0
          0 0 0 1 0 0
          0 0 0 0 0 0
          1 0 0 1 0 0
          1 0 0 1 0 0
          0 0 0 0 0 0
          1 0 0 0 0 0
          1 0 0 0 0 0
          <InformationKey name="L2_NORM_RANGE" location="vtkDataArray" length="2">
            <Value index="0">
              0
            </Value>
            <Value index="1">
              1
            </Value>
          </InformationKey>
        </DataArray>
        <DataArray type="Float64" Name="Pressure" format="ascii" RangeMin="0" RangeMax="9.607991008888442">
          0 7.797044740296248 7.484403456021622 8.321312970831476 8.237973264151853 8.220866461511424
          8.607603089793166 8.504655296441978 8.66065545889603 8.730707310146311 8.816644842070742 8.773497150571625
          8.746832324053935 8.772095940420039 8.720113193495022 8.98428412702588 8.848330174542372 8.929091592797402
          9.066282424733764 8.834974984633329 8.850858596710355 8.825321772063937 9.100355644330104 9.009301538048181
          9.108379340149993 9.16269367474287 8.883421493752332 9.195362769032318 8.886428938422567 9.146385377201591
          9.036972799573933 8.907915841348458 9.002960200549095 9.366132937760243 9.173454171335367 9.366170842387364
          9.291444484593042 8.98363601966604 9.012608931653462 9.35485568991518 9.337557556453676 9.366131090041218
          9.366176154728754 9.362275350541633 9.366228116853971 9.187777166101199 9.366170796475217 9.147359476592671
          9.409069368601967 9.366229840895837 9.366223538744856 9.36623952548461 9.337129564665183 9.292184576283171
          9.46909918885382 9.366320409135447 9.453447001992545 9.36624169895091 9.366194007056873 9.298305466018025
          9.36631533828798 9.366351389820643 9.503368271699118 9.366409087747359 9.366387637889126 9.367072050655374
          9.366326173841198 9.366242568956489 9.366387918629854 9.372433846642839 9.543780940578467 9.480499099733096
          9.366376419692322 9.528742371922787 9.374826592191873 9.483269769575555 9.388870903502335 9.366391313477145
          9.371099599031343 9.508436844488758 9.424105375207747 9.396298277775214 9.391702216589604 9.354044963325807
          9.607991008888442 9.366364531220091 9.470927328564587 9.414288777729213
        </DataArray>
        <DataArray type="Float64" Name="DISSI_NS" format="ascii" RangeMin="0" RangeMax="0.0074507796265186575">
          0 0.0019302968271347944 0.000023138630799955833 0.0010280593557491207 0.001545789117478277 0.003119273325864157
          0.000018844561746164062 0.0037002385237812586 0.0001918266779890285 0.0014565831683913749 0.002592928600133067 0.002619135079089079
          0.0035051038742519467 0.005010551393203532 0 0.0007062519846794443 0.0012923405003771001 0.0001299337831721701
          0.0012770012266594723 0.0016197990010459445 0.0030981997376243434 0.000023911598114245257 0.0010073360264431501 0.002856850689726947
          0.0037507408733116225 0.002358177443223518 0.0029628906502516972 7.426759708454734e-38 0.0017986023521693276 0.0016420402240999775
          0.0031425093324732724 0.003275855143093864 0.00006694740793475112 0.0009955567936574383 0.0012363072589346908 0.004801717319846501
          0.00577618056422843 0.001842340046858031 0.005242106289370693 0.0016455494324142 0.001090435573085689 0.0013026835332692278
          0.0009388884987481047 0.002332834383918831 0.0032003726916175934 0.0017261236551797685 0 0.003256673327568388
          0.0013931631926949438 0 0.005268223631581774 0.0026786363854396133 0.0065097340880555556 0.00006778505408578539
          0.002211700018449589 0.0036274508567958803 2.1871013723011178e-38 0 0.0031511785720260846 0.0023007455686035205
          0.004525482921093531 0.002405655921166939 0.0012222183864995296 0.0016845219386707009 0.0074507796265186575 0.0032787802718279697
          0.0041529903546563066 0.0045002306721952864 0 0.004159151965947681 0.00007212379649559746 0.0013160974504536692
          0.0030896739778525934 0.000965451773285201 0.005140167609773621 0 0.005974564302670471 0.002299683722289945
          0.003148991954592009 0.00007771803405993302 0.0011817377007017143 0.0014066152599114755 0.0036065690078020338 0.0030315248686987343
          0.00011870419018613901 0.0024666050669443166 0.0013249242124394706 0.0017234162115208848
        </DataArray>
        <DataArray type="Float64" Name="Temperature" format="ascii" RangeMin="-1.8583994691505448" RangeMax="12.000000000000004">
          0.44974714652745656 -1.8583994691505448 -0.41474382563884127 -1.4536053662396275 0.4198403460402701 12
          -0.6884380679033846 12.000000000000002 -0.8559603343290014 1.8942005004826148 0.9700527365097561 12
          12 12 0.23583252998861243 2.4451306526157413 1.6056646479062981 -0.4737604728039821
          0.4642330119242546 -1.4132517839162495 11.999999999999998 -0.6370361578867859 0.48959690945455003 11.999999999999996
          12 5.48450281545003 -0.01773643431165952 1.4773458987424746 12 4.424774050385652
          12 12.000000000000002 -0.9675725773450374 12.000000000000002 2.949586569586385 12
          3.594655349780524 0.7770416816108133 11.999999999999998 1.692791145533718 -0.9105973813624156 12.000000000000002
          11.999999999999998 12 11.999999999999998 0.1800758882075122 12.000000000000002 12.000000000000002
          2.712364738206682 11.999999999999998 12.000000000000002 12.000000000000002 4.9668813610993094 -0.2552842483941784
          11.999999999999998 11.999999999999998 6.031266044433615 12.000000000000002 12 1.7333476367448963
          12.000000000000002 12.000000000000004 5.0816015992176204 11.999999999999998 12.000000000000002 6.746902148887598
          12 12 12.000000000000002 4.185368494154685 5.183592173843312 7.470111731189754
          12.000000000000002 3.793957295361273 12 7.643560000000001 12 11.999999999999998
          7.088861424572948 7.643559999999999 8.129456 8.136573000000002 12 12.000000000000002
          7.643559999999999 12.000000000000002 8.129456000000001 12.000000000000002
        </DataArray>
        <DataArray type="Float64" Name="DISSI_TEMPE" format="ascii" RangeMin="3.922749705391641e-32" RangeMax="1.1491847676652784">
          0.016021465956306852 0.5173892585368741 0.01077303157548172 0.23406044268648313 0.3847001922301291 1.0088237477867674
          0.012205390818993451 0.9674843999947446 0.05294866056089339 0.3447949605503016 0.5182962857060746 0.6790488003063061
          0.9103473813861142 1.0502272876923848 0.009814204560085351 0.17298090423310283 0.3121423081152788 0.04447081327923289
          0.23325819333256687 0.43456934236854733 0.8262251701819274 0.008760901039329158 0.22558518712552308 0.6273618103160046
          0.7301498666864943 0.42697707125786727 0.6811101294689242 0.015348259595259513 0.7074465229542273 0.37545388898366205
          0.7484905479281405 0.9435944336296971 0.02408887733350519 0.21060922511990268 0.2585664542178847 0.5972411696947285
          0.6506554344866964 0.38169390789257646 1.1491847676652784 0.2713276456166726 0.19149716257167199 0.2937682330793853
          0.2260766259816817 0.45360736523902423 0.42187696465088864 0.3441734733753213 1.2493053438436848e-31 0.7199432514465363
          0.210012742115767 1.2021495903065791e-31 0.5384836599503415 0.48632710202885215 0.6070453583800371 0.05432871579535372
          0.3152904142269926 0.34027144740758386 0.028017528383685698 3.922749705391641e-32 0.5882701930570329 0.41479840733153367
          0.5027819630924051 0.30663288779370906 0.13562640670233214 0.07738787727865407 0.5033214580008871 0.1551848813134586
          0.46500747973969125 0.5973242032340459 1.7801632830602292e-31 0.5429221212753882 0.06633506506820411 0.14498079448595586
          0.1286559158753104 0.18254456973107475 0.2441747222099091 0.014052104729865837 0.5307817712887238 0.12488841743897858
          0.24280374790106057 0.026369469847278847 0.05513202857143135 0.07835111787393019 0.1476512020397355 0.13040418998826095
          0.03444748712525193 0.09048927848929328 0.05783196395466785 0.04148021033729452
        </DataArray>
        <DataArray type="Float64" Name="CN2" format="ascii" RangeMin="0" RangeMax="3.754787782221954e-11">
          0 2.758089694721614e-11 2.4566046514859138e-12 1.5301549487185968e-11 2.135736567448808e-11 3.754787782221954e-11
          2.992403464195942e-12 3.401661582183264e-11 6.004608141582012e-12 1.9109897396373444e-11 2.4023591779590605e-11 2.6790103802817058e-11
          3.259112314691904e-11 3.337701456254905e-11 0 1.210635730649283e-11 1.8079811427477113e-11 5.710394239433624e-12
          1.3792420415952212e-11 2.4400494530693944e-11 3.082161074772249e-11 1.9825184448845526e-12 1.4430866478158949e-11 2.4044568497142597e-11
          2.55565332225704e-11 1.913502707036978e-11 3.0636603658455924e-11 0 3.16355644308145e-11 1.9275166988911885e-11
          2.779003705268444e-11 3.455182704880637e-11 3.886450854400823e-12 1.1470611384189757e-11 1.4905848491763234e-11 1.925227534062329e-11
          2.2228554290842632e-11 1.9882624374416916e-11 3.5976262154665903e-11 1.4481412707769198e-11 1.2178193047889288e-11 1.4628160370343255e-11
          1.2555928868623156e-11 1.8600157332055804e-11 1.5568621169673222e-11 1.8482478858517497e-11 0 2.6414120550132518e-11
          1.1674372955824588e-11 0 1.6829930365057807e-11 1.9043864169420067e-11 1.9538074693600024e-11 8.638301108912584e-12
          1.3160350129777797e-11 1.2043596233530006e-11 0 0 2.182145453873619e-11 1.9786907777571643e-11
          1.6530623597564384e-11 1.244530146446382e-11 7.61076036894011e-12 3.5370828767393506e-12 1.4014450211937488e-11 6.119430014199847e-12
          1.5732732401607158e-11 1.9675678212933877e-11 0 2.051821876178215e-11 9.547302978789427e-12 7.67064069887296e-12
          4.803856961636952e-12 1.1288873044065279e-11 7.69436658851648e-12 0 1.5907867803358376e-11 5.145536348952326e-12
          9.65701339073797e-12 3.5738650884066776e-12 2.995275349534321e-12 4.016203438395761e-12 5.236048369763682e-12 4.90006963735763e-12
          4.05396895855622e-12 3.642183120008872e-12 3.0244365576947216e-12 1.881521418400405e-12
        </DataArray>
        <DataArray type="Float64" Name="CT2" format="ascii" RangeMin="0" RangeMax="39.76979050799065">
          0 23.934913334029115 2.177615491010675 13.358092371220838 19.16438137907384 39.76979050799065
          2.6418743580618 36.029360000380066 5.288199040980527 17.520169253574498 21.730533763476174 28.375106741687482
          34.51935453737025 35.35172481751755 0 11.188385437899884 16.506289933456333 5.057356018995564
          12.384038290572894 21.313815038669897 32.64508224082012 1.7516004866058994 12.96208723520326 25.467015183949226
          27.068372224302216 18.477145431022727 27.315004815215453 0 33.50716730526973 18.3309297634292
          29.43404470026273 36.59594424752811 3.417127010408092 12.14911175288107 13.876689057122498 20.3910704145689
          20.887828416226046 17.934163067741807 38.10457043817387 13.23771069193168 10.716463517445467 15.493433534840896
          13.29862705178435 19.700380381864193 16.48952368217393 16.52631057381379 0 27.976669740253186
          10.830972794537947 0 17.825440822592224 20.170331446037874 18.726468163481808 7.674921471810755
          13.938771862416184 12.755989292850407 0 0 23.112219619187584 18.098254827245167
          17.508429670615904 13.181455858397669 7.306630322190098 3.7463055343871234 14.843421611114376 6.016830641711302
          16.66334225655322 20.839518042434836 0 19.445767599591715 9.17922713693652 7.620268538323205
          5.088010815887948 10.638519814746314 8.149496148765293 0 16.848829529520994 5.449900943823061
          9.541588568538602 3.5591799521625513 3.0036737489938954 4.027874270831106 5.545764051212282 5.189915865702615
          4.03730302092546 3.857622585444491 3.0329138818768793 1.9928137392452046
        </DataArray>
      </PointData>
      <CellData>
        <DataArray type="UInt8" Name="vtkGhostType" format="ascii" RangeMin="0" RangeMax="0">
          0 0 0 0 0 0
          0 0 0 0 0 0
          0 0 0 0 0 0
          0 0 0 0 0 0
          0 0 0 0 0 0
          0 0 0 0 0 0
          0 0 0 0 0 0
          0 0 0 0 0 0
          0 0 0 0 0 0
          0 0 0 0 0 0
          0 0 0 0 0 0
          0 0 0 0 0 0
          0 0 0 0 0 0
          0 0 0 0 0 0
          0 0 0 0 0 0
          0 0 0 0 0 0
          0 0 0 0 0 0
          0 0 0 0 0 0
          0 0 0 0 0 0
          0 0 0 0 0 0
          0 0 0 0 0 0
          0 0 0 0 0 0
          0 0 0 0 0 0
          0 0 0 0 0 0
          0 0 0 0 0 0
          0 0 0 0 0 0
          0 0 0 0 0 0
          0 0 0 0 0 0
          0 0 0 0 0 0
          0 0 0 0 0 0
          0 0 0 0 0 0
          0 0 0 0 0 0
          0 0 0 0 0 0
          0 0 0 0 0 0
          0 0 0 0 0 0
          0 0 0 0 0 0
          0 0 0 0 0 0
          0 0 0 0 0 0
          0 0 0 0 0 0
          0 0 0 0 0
        </DataArray>
      </CellData>
      <Points>
        <DataArray type="Float32" Name="Points" NumberOfComponents="3" format="ascii" RangeMin="0" RangeMax="24.49489742783178">
          20 10 10 20 6.5 10
          16 10 10 20 10 5
          16.37211036682129 5.206768989562988 10 20 3 10
          14.333330154418945 10 5.767949104309082 17.5 2.625 10
          12 10 10 14.425399780273438 5.033590793609619 7.012404918670654
          13.360549926757812 4.658843994140625 10 20 3 5
          16.25 2.4375 7.37460994720459 15 2.25 10
          20 10 0 12.214110374450684 6.010365009307861 4.925261974334717
          14.570380210876465 5.105739116668701 2.9404709339141846 12 10 3.0717968940734863
          10 10 6.535898208618164 20 6.5 0
          16.344310760498047 2.451646089553833 3.285098075866699 16 10 0
          10.119270324707031 5.519060134887695 10 13.631239891052246 2.0446860790252686 6.215021133422852
          12.5 1.875 10 10.550640106201172 4.647356033325195 7.100153923034668
          16.37211036682129 5.206768989562988 0 8 10 10
          20 3 0 11.739009857177734 4.367464065551758 2.512845993041992
          13.663330078125 2.049499034881592 2.55780291557312 17.5 2.625 0
          12 10 0 10.661359786987305 1.5992039442062378 6.873061180114746
          9.59029769897461 6.954894065856934 2.912667989730835 10 1.5 10
          8.36054801940918 3.908843994140625 10 13.360549926757812 4.658843994140625 0
          15 2.25 0 6.61377477645874 6.690732002258301 10
          8 10 3.0717968940734863 10.999679565429688 1.6499520540237427 3.4145760536193848
          9 3 5 8 4.732050895690918 5
          8 3 6.732050895690918 10.596699714660645 5.428274154663086 0
          9 1.350000023841858 5 12.5 1.875 0
          5.6666669845581055 10 5.767949104309082 7.9958391189575195 1.1993759870529175 6.734446048736572
          7.5 1.125 10 8 3 3.267949104309082
          5.86054801940918 3.533843994140625 10 8 10 0
          6 4.732050895690918 5 6 3 6.732050895690918
          4 10 10 7.995840072631836 1.1993759870529175 3.2655539512634277
          10 1.5 0 7.719629764556885 4.535800933837891 0
          6.004158973693848 0.9006239175796509 6.734445095062256 6 3 3.267949104309082
          3.305811882019043 6.3972368240356445 10 5 3 5
          5 0.75 10 3.3605480194091797 3.158843994140625 10
          6.004159927368164 0.9006239771842957 3.2655539512634277 7.5 1.125 0
          5 0.75 5 5.535371780395508 3.26835298538208 0
          4 10 0 3.0012240409851074 5.308693885803223 3.156306028366089
          3.720721960067749 0.5581083297729492 6.921747207641602 4.087935924530029 6.566143035888672 0
          2.5 0.375 10 0 10 10
          5 0.75 0 3.3971519470214844 0.5095726847648621 3.1724090576171875
          3.3605480194091797 3.158843994140625 0 0 10 5
          0 5 10 0 4.949490070343018 5.050509929656982
          2.5 0.375 0 0 0 10
          0 10 0 0 0 5
          0 5 0 0 0 0
          <InformationKey name="L2_NORM_RANGE" location="vtkDataArray" length="2">
            <Value index="0">
              0
            </Value>
            <Value index="1">
              24.494897428
            </Value>
          </InformationKey>
        </DataArray>
      </Points>
      <Cells>
        <DataArray type="Int64" Name="connectivity" format="ascii" RangeMin="0" RangeMax="87">
          16 20 19 11 53 40
          70 73 81 63 77 71
          69 59 61 51 62 55
          52 65 66 77 69 76
          55 68 72 63 79 62
          75 80 52 55 64 65
          10 8 2 9 32 37
          21 16 47 41 30 29
          15 9 23 16 54 48
          34 40 44 42 43 25
          43 39 44 25 41 15
          23 29 62 54 81 71
          77 69 78 61 32 17
          53 34 39 54 62 48
          59 73 54 34 19 3
          21 16 11 1 4 12
          79 56 75 62 45 17
          32 34 54 59 61 73
          23 33 24 25 18 22
          39 25 23 10 24 13
          24 10 23 25 39 48
          56 27 46 42 44 33
          4 11 12 9 64 60
          52 50 40 73 54 71
          23 15 41 25 44 35
          36 50 39 18 43 48
          10 9 23 25 43 54
          39 48 23 16 30 29
          85 81 65 72 60 50
          49 55 21 17 32 16
          49 35 44 50 81 62
          79 80 39 22 36 25
          26 38 20 16 81 85
          65 80 81 63 65 72
          8 9 22 25 20 38
          30 16 46 44 49 33
          20 16 19 26 70 40
          48 73 7 4 12 13
          61 59 69 73 45 51
          58 29 52 39 36 55
          69 73 78 71 36 35
          44 25 42 15 41 29
          19 21 3 14 77 63
          61 71 78 82 77 86
          40 73 53 34 18 48
          39 27 68 61 77 63
          17 40 53 34 23 13
          12 9 49 50 44 55
          17 37 32 16 48 54
          34 43 81 77 63 85
          18 8 22 25 44 35
          49 33 36 39 44 55
          61 54 43 59 86 73
          84 71 59 45 53 34
          11 9 3 16 10 13
          23 9 52 50 60 55
          11 1 3 9 77 72
          63 85 86 81 77 71
          6 17 21 16 4 1
          11 9 54 73 61 71
          39 62 56 48 43 15
          42 29 70 48 79 71
          67 59 69 51 4 2
          3 9 37 16 17 29
          43 34 18 25 43 18
          39 25 52 62 39 55
          86 84 79 71 15 34
          17 29 12 13 4 9
          32 17 45 37 3 1
          4 9 45 34 51 29
          79 62 81 71 69 78
          61 71 45 37 17 29
          48 73 40 71 57 58
          67 51 10 2 4 9
          6 8 18 15 31 26
          20 19 67 61 57 51
          54 73 40 34 62 48
          54 71 18 27 39 22
          11 20 12 9 41 58
          57 51 56 62 79 48
          46 41 57 51 41 42
          46 33 47 37 30 38
          46 42 41 51 3 2
          4 1 43 51 59 34
          23 20 30 16 77 86
          85 81 8 15 6 9
          0 2 3 1 24 22
          10 25 41 33 23 25
          87 85 77 86 69 61
          67 51 52 60 64 55
          59 51 45 34 41 51
          42 29 39 55 62 54
          12 20 23 9 15 34
          43 25 15 16 23 29
          22 9 10 25 44 39
          43 54 44 55 39 54
          23 9 15 25 84 70
          79 71 35 33 44 25
          44 33 42 25 61 73
          69 71 84 73 70 71
          17 15 18 34 36 22
          35 25 36 50 55 44
          79 81 86 71 2 8
          6 9 18 17 6 15
          27 22 18 8 4 13
          10 9 42 51 43 29
          22 8 10 9 31 11
          28 19 15 9 8 25
          43 59 54 34 78 73
          86 71 86 77 78 71
          41 15 42 25 18 40
          17 34 54 63 81 71
          70 73 48 71 3 2
          6 9 17 34 45 29
          74 65 64 72 64 55
          60 72 64 65 55 72
          57 61 67 66 69 76
          67 66 67 61 69 66
          21 26 19 16 77 86
          82 87 24 33 35 25
          20 26 31 38 35 22
          24 25 55 68 60 72
          17 16 15 29 76 82
          77 78 77 66 69 61
          77 72 68 63 61 78
          77 71 48 40 54 71
          30 16 37 29 58 51
          41 29 61 63 54 71
          67 58 59 51 59 58
          45 51 37 26 21 16
          23 9 20 16 50 36
          55 52 43 48 18 34
          85 65 80 83 42 15
          43 25 61 59 43 51
          30 38 37 16 45 58
          47 29 43 34 15 29
          62 54 55 63 81 54
          62 63 55 72 65 63
          31 11 19 20 42 33
          41 25 3 9 6 16
          55 65 62 63 62 65
          81 63 48 40 18 34
          74 85 65 72 79 48
          62 71 11 5 1 12
          53 73 59 34 44 39
          36 25 62 80 81 65
          30 41 23 29 53 45
          32 34 3 6 21 16
          12 7 1 4 85 74
          65 83 18 15 8 25
          18 34 15 25 68 61
          66 77 6 15 17 16
          63 72 81 85 47 58
          41 29 47 37 45 29
          20 9 11 16 5 7
          1 12 69 77 78 76
          30 37 47 29 37 38
          26 16 11 3 19 16
          51 34 43 29 6 9
          15 16
        </DataArray>
        <DataArray type="Int64" Name="offsets" format="ascii" RangeMin="4" RangeMax="956">
          4 8 12 16 20 24
          28 32 36 40 44 48
          52 56 60 64 68 72
          76 80 84 88 92 96
          100 104 108 112 116 120
          124 128 132 136 140 144
          148 152 156 160 164 168
          172 176 180 184 188 192
          196 200 204 208 212 216
          220 224 228 232 236 240
          244 248 252 256 260 264
          268 272 276 280 284 288
          292 296 300 304 308 312
          316 320 324 328 332 336
          340 344 348 352 356 360
          364 368 372 376 380 384
          388 392 396 400 404 408
          412 416 420 424 428 432
          436 440 444 448 452 456
          460 464 468 472 476 480
          484 488 492 496 500 504
          508 512 516 520 524 528
          532 536 540 544 548 552
          556 560 564 568 572 576
          580 584 588 592 596 600
          604 608 612 616 620 624
          628 632 636 640 644 648
          652 656 660 664 668 672
          676 680 684 688 692 696
          700 704 708 712 716 720
          724 728 732 736 740 744
          748 752 756 760 764 768
          772 776 780 784 788 792
          796 800 804 808 812 816
          820 824 828 832 836 840
          844 848 852 856 860 864
          868 872 876 880 884 888
          892 896 900 904 908 912
          916 920 924 928 932 936
          940 944 948 952 956
        </DataArray>
        <DataArray type="UInt8" Name="types" format="ascii" RangeMin="10" RangeMax="10">
          10 10 10 10 10 10
          10 10 10 10 10 10
          10 10 10 10 10 10
          10 10 10 10 10 10
          10 10 10 10 10 10
          10 10 10 10 10 10
          10 10 10 10 10 10
          10 10 10 10 10 10
          10 10 10 10 10 10
          10 10 10 10 10 10
          10 10 10 10 10 10
          10 10 10 10 10 10
          10 10 10 10 10 10
          10 10 10 10 10 10
          10 10 10 10 10 10
          10 10 10 10 10 10
          10 10 10 10 10 10
          10 10 10 10 10 10
          10 10 10 10 10 10
          10 10 10 10 10 10
          10 10 10 10 10 10
          10 10 10 10 10 10
          10 10 10 10 10 10
          10 10 10 10 10 10
          10 10 10 10 10 10
          10 10 10 10 10 10
          10 10 10 10 10 10
          10 10 10 10 10 10
          10 10 10 10 10 10
          10 10 10 10 10 10
          10 10 10 10 10 10
          10 10 10 10 10 10
          10 10 10 10 10 10
          10 10 10 10 10 10
          10 10 10 10 10 10
          10 10 10 10 10 10
          10 10 10 10 10 10
          10 10 10 10 10 10
          10 10 10 10 10 10
          10 10 10 10 10
        </DataArray>
      </Cells>
    </Piece>
  </UnstructuredGrid>
</VTKFile>
