<?xml version="1.0"?>
<VTKFile type="UnstructuredGrid" version="0.1" byte_order="LittleEndian" header_type="UInt32" compressor="vtkZLibDataCompressor">
  <UnstructuredGrid>
    <Piece NumberOfPoints="69" NumberOfCells="107">
      <PointData>
        <DataArray type="Float64" Name="nsi_SBC" NumberOfComponents="3" format="ascii" RangeMin="0" RangeMax="0">
          0 0 0 0 0 0
          0 0 0 0 0 0
          0 0 0 0 0 0
          0 0 0 0 0 0
          0 0 0 0 0 0
          0 0 0 0 0 0
          0 0 0 0 0 0
          0 0 0 0 0 0
          0 0 0 0 0 0
          0 0 0 0 0 0
          0 0 0 0 0 0
          0 0 0 0 0 0
          0 0 0 0 0 0
          0 0 0 0 0 0
          0 0 0 0 0 0
          0 0 0 0 0 0
          0 0 0 0 0 0
          0 0 0 0 0 0
          0 0 0 0 0 0
          0 0 0 0 0 0
          0 0 0 0 0 0
          0 0 0 0 0 0
          0 0 0 0 0 0
          0 0 0 0 0 0
          0 0 0 0 0 0
          0 0 0 0 0 0
          0 0 0 0 0 0
          0 0 0 0 0 0
          0 0 0 0 0 0
          0 0 0 0 0 0
          0 0 0 0 0 0
          0 0 0 0 0 0
          0 0 0 0 0 0
          0 0 0 0 0 0
          0 0 0
          <InformationKey name="L2_NORM_RANGE" location="vtkDataArray" length="2">
            <Value index="0">
              0
            </Value>
            <Value index="1">
              0
            </Value>
          </InformationKey>
        </DataArray>
        <DataArray type="Float64" Name="nsi_SFIXNO" NumberOfComponents="3" format="ascii" RangeMin="0" RangeMax="1.7320508075688772">
          0 0 0 0 0 0
          0 0 0 0 0 0
          0 0 0 -1 -1 -1
          -1 -1 -1 -1 -1 -1
          0 0 0 0 0 0
          -1 -1 -1 -1 -1 -1
          -1 -1 -1 -1 -1 -1
          0 0 0 0 0 0
          -1 -1 -1 0 0 0
          0 0 0 -1 -1 -1
          -1 -1 -1 -1 -1 -1
          0 0 0 0 0 0
          -1 -1 -1 -1 -1 -1
          -1 -1 -1 -1 -1 -1
          -1 -1 -1 0 0 0
          -1 -1 -1 -1 -1 -1
          -1 -1 -1 0 0 0
          -1 -1 -1 -1 -1 -1
          -1 -1 -1 0 0 0
          0 0 0 -1 -1 -1
          -1 -1 -1 0 0 0
          0 0 0 0 0 0
          -1 -1 -1 -1 -1 -1
          0 0 0 0 0 0
          -1 -1 -1 -1 -1 -1
          -1 -1 -1 -1 -1 -1
          -1 -1 -1 0 0 0
          -1 -1 -1 -1 -1 -1
          0 0 0 -1 -1 -1
          -1 -1 -1 -1 -1 -1
          -1 -1 -1 -1 -1 -1
          0 0 0 0 0 0
          0 0 0 0 0 0
          0 0 0 0 0 0
          0 0 0
          <InformationKey name="L2_NORM_RANGE" location="vtkDataArray" length="2">
            <Value index="0">
              0
            </Value>
            <Value index="1">
              1.7320508076
            </Value>
          </InformationKey>
        </DataArray>
        <DataArray type="Float64" Name="nsi_UBC" NumberOfComponents="3" format="ascii" RangeMin="0" RangeMax="1">
          0 0 0 0 0 0
          0 0 0 0 0 0
          0 0 0 0 0 0
          0 0 0 0 0 0
          0 0 0 0 0 0
          0 0 0 0 0 0
          0 0 0 0 0 0
          0 0 0 0 0 0
          0 0 0 0 0 0
          0 0 0 0 0 0
          0 0 0 0 0 0
          0 0 0 0 0 0
          0 0 0 0 0 0
          0 0 0 0 0 0
          0 0 0 0 0 0
          0 0 0 0 0 0
          0 0 0 0 0 0
          0 0 0 0 0 0
          0 0 0 0 0 0
          0 0 0 0 0 0
          0 0 0 0 0 0
          0 0 0 0 0 0
          0 0 0 0 0 0
          0 0 0 0 0 0
          0 0 0 0 0 0
          0 0 0 0 0 0
          0 0 0 0 0 0
          0 0 0 0 0 0
          0 0 0 0 0 0
          0 0 0 0 0 0
          0 0 0 0 0 0
          1 0 0 1 0 0
          0 0 0 1 0 0
          1 0 0 1 0 0
          1 0 0
          <InformationKey name="L2_NORM_RANGE" location="vtkDataArray" length="2">
            <Value index="0">
              0
            </Value>
            <Value index="1">
              1
            </Value>
          </InformationKey>
        </DataArray>
        <DataArray type="Float64" Name="nsi_UFIXNO" NumberOfComponents="3" format="ascii" RangeMin="0" RangeMax="1.4142135623730951">
          0 1 0 0 0 0
          0 1 0 0 0 0
          0 1 0 -1 -1 0
          -1 -1 0 -1 -1 0
          0 0 0 0 1 0
          -1 -1 0 -1 -1 0
          -1 -1 0 -1 -1 0
          0 1 0 0 1 0
          -1 -1 0 0 1 0
          0 1 0 -1 -1 0
          -1 -1 0 -1 -1 0
          0 1 0 0 1 0
          -1 -1 0 -1 -1 0
          -1 -1 0 -1 -1 0
          -1 -1 0 0 1 0
          -1 -1 0 -1 -1 0
          -1 -1 0 0 1 0
          -1 -1 0 -1 -1 0
          -1 -1 0 1 1 0
          1 1 0 -1 -1 0
          -1 -1 0 1 1 0
          1 1 0 0 1 0
          -1 -1 0 -1 -1 0
          1 1 0 1 1 0
          -1 -1 0 -1 -1 0
          -1 -1 0 -1 -1 0
          -1 -1 0 0 1 0
          -1 -1 0 -1 -1 0
          0 1 0 -1 -1 0
          -1 -1 0 -1 -1 0
          -1 -1 0 -1 -1 0
          1 1 0 1 1 0
          0 1 0 1 1 0
          1 1 0 1 1 0
          1 1 0
          <InformationKey name="L2_NORM_RANGE" location="vtkDataArray" length="2">
            <Value index="0">
              0
            </Value>
            <Value index="1">
              1.4142135624
            </Value>
          </InformationKey>
        </DataArray>
      </PointData>
      <CellData>
        <DataArray type="UInt8" Name="vtkGhostType" format="ascii" RangeMin="0" RangeMax="0">
          0 0 0 0 0 0
          0 0 0 0 0 0
          0 0 0 0 0 0
          0 0 0 0 0 0
          0 0 0 0 0 0
          0 0 0 0 0 0
          0 0 0 0 0 0
          0 0 0 0 0 0
          0 0 0 0 0 0
          0 0 0 0 0 0
          0 0 0 0 0 0
          0 0 0 0 0 0
          0 0 0 0 0 0
          0 0 0 0 0 0
          0 0 0 0 0 0
          0 0 0 0 0 0
          0 0 0 0 0 0
          0 0 0 0 0
        </DataArray>
      </CellData>
      <Points>
        <DataArray type="Float32" Name="Points" NumberOfComponents="3" format="ascii" RangeMin="0.6401596069335938" RangeMax="16.492422502470642">
          16 4 0 16 2 0
          14 4 0 16 0 0
          12 4 0 13.100448608398438 1.0234922170639038 0
          14.128195762634277 -0.9082307815551758 0 11.106392860412598 0.9618632793426514 0
          16 -2 0 10 4 0
          12.141532897949219 -0.7259466052055359 0 12.96286678314209 -2.5275094509124756 0
          9.244563102722168 0.9050053954124451 0 10.224861145019531 -0.8110210299491882 0
          16 -4 0 8 4 0
          11 -2.267949104309082 0 14 -4 0
          12 -4 0 8.321724891662598 -0.842593252658844 0
          7.003559112548828 1.5986402034759521 0 9 -2.267949104309082 0
          10 -4 0 6 4 0
          6.700018405914307 -0.3363054394721985 0 5.699848175048828 0.9579375386238098 0
          7.0567946434021 -2.078122138977051 0 5.2515764236450195 2.311429023742676 0
          5.549822807312012 -0.06726108491420746 0 8 -4 0
          5.699848175048828 -0.9579375386238098 0 4.756138801574707 1.3502470254898071 0
          4.824699878692627 0.4761407673358917 0 4 4 0
          5.675971031188965 -2.142068862915039 0 4.824699878692627 -0.4761407673358917 0
          4.004568576812744 2.0534465312957764 0 4.5 0 0
          4.25 0.4330126941204071 0 4.860677719116211 -1.3164397478103638 0
          4 0.9522815346717834 0 4.25 -0.4330126941204071 0
          3.75 0.4330126941204071 0 6 -4 0
          4 -0.9522815346717834 0 3.251171350479126 1.3549884557724 0
          3.75 -0.4330126941204071 0 3.5 5.794379420720475e-10 0
          3.175299882888794 0.4761407673358917 0 2.775836229324341 2.3351361751556396 0
          4.102868556976318 -2.053769826889038 0 3.175299882888794 -0.4761407673358917 0
          3.3039119243621826 -1.3893133401870728 0 2 4 0
          2.300151824951172 0.9579375386238098 0 2.450176954269409 0.06726108491420746 0
          4 -4 0 2.300151824951172 -0.9579375386238098 0
          2.941239833831787 -2.506437063217163 0 1.1202653646469116 1.7408827543258667 0
          1.299981713294983 0.3363054394721985 0 1.4308311939239502 -2.2247984409332275 0
          0 4 0 0 2.2880327701568604 0
          2 -4 0 0 0.7697902321815491 0
          0 -0.6401596069335938 0 0 -2.2469916343688965 0
          0 -4 0
          <InformationKey name="L2_NORM_RANGE" location="vtkDataArray" length="2">
            <Value index="0">
              0.64015960693
            </Value>
            <Value index="1">
              16.492422502
            </Value>
          </InformationKey>
        </DataArray>
      </Points>
      <Cells>
        <DataArray type="Int64" Name="connectivity" format="ascii" RangeMin="0" RangeMax="68">
          37 41 35 46 47 51
          42 38 40 41 46 44
          47 42 48 38 37 32
          35 41 44 40 38 32
          48 42 40 51 47 48
          44 46 51 32 37 35
          35 44 39 39 44 50
          35 39 30 48 40 45
          45 40 36 48 45 54
          44 51 52 52 51 57
          44 52 50 40 32 31
          31 32 25 40 31 36
          51 48 55 55 48 54
          51 55 57 32 35 28
          28 35 30 32 28 25
          50 52 58 55 54 60
          28 30 24 36 31 27
          57 55 60 25 28 24
          30 39 34 54 45 49
          31 25 27 39 50 34
          45 36 49 52 57 58
          60 54 59 24 30 26
          50 58 56 36 27 33
          30 34 26 54 49 59
          26 34 43 59 49 53
          65 66 60 65 60 59
          24 26 19 65 59 63
          63 59 53 66 61 57
          57 60 66 25 24 20
          20 24 19 25 20 27
          58 57 61 61 66 67
          61 67 68 58 61 64
          19 26 21 62 63 53
          34 50 56 49 36 33
          58 64 56 33 27 23
          23 27 20 43 34 56
          53 49 33 64 61 68
          14 8 17 15 23 20
          29 22 21 21 22 16
          29 21 26 19 21 13
          13 21 16 13 16 10
          19 13 12 10 16 11
          13 10 7 12 13 7
          12 7 9 19 12 20
          11 16 18 11 18 17
          11 17 8 10 11 6
          7 10 5 6 11 8
          10 6 5 7 5 4
          16 22 18 0 2 1
          3 1 5 4 9 7
          8 3 6 2 4 5
          43 29 26 9 15 12
          20 12 15 6 3 5
          1 2 5
        </DataArray>
        <DataArray type="Int64" Name="offsets" format="ascii" RangeMin="3" RangeMax="321">
          3 6 9 12 15 18
          21 24 27 30 33 36
          39 42 45 48 51 54
          57 60 63 66 69 72
          75 78 81 84 87 90
          93 96 99 102 105 108
          111 114 117 120 123 126
          129 132 135 138 141 144
          147 150 153 156 159 162
          165 168 171 174 177 180
          183 186 189 192 195 198
          201 204 207 210 213 216
          219 222 225 228 231 234
          237 240 243 246 249 252
          255 258 261 264 267 270
          273 276 279 282 285 288
          291 294 297 300 303 306
          309 312 315 318 321
        </DataArray>
        <DataArray type="UInt8" Name="types" format="ascii" RangeMin="5" RangeMax="5">
          5 5 5 5 5 5
          5 5 5 5 5 5
          5 5 5 5 5 5
          5 5 5 5 5 5
          5 5 5 5 5 5
          5 5 5 5 5 5
          5 5 5 5 5 5
          5 5 5 5 5 5
          5 5 5 5 5 5
          5 5 5 5 5 5
          5 5 5 5 5 5
          5 5 5 5 5 5
          5 5 5 5 5 5
          5 5 5 5 5 5
          5 5 5 5 5 5
          5 5 5 5 5 5
          5 5 5 5 5 5
          5 5 5 5 5
        </DataArray>
      </Cells>
    </Piece>
  </UnstructuredGrid>
</VTKFile>
