<?xml version="1.0"?>
<VTKFile type="UnstructuredGrid" version="0.1" byte_order="LittleEndian" header_type="UInt32" compressor="vtkZLibDataCompressor">
  <UnstructuredGrid>
    <Piece NumberOfPoints="69" NumberOfCells="107">
      <PointData>
        <DataArray type="Float64" Name="nsi_SBC" NumberOfComponents="3" format="ascii" RangeMin="0" RangeMax="0">
          0 0 0 0 0 0
          0 0 0 0 0 0
          0 0 0 0 0 0
          0 0 0 0 0 0
          0 0 0 0 0 0
          0 0 0 0 0 0
          0 0 0 0 0 0
          0 0 0 0 0 0
          0 0 0 0 0 0
          0 0 0 0 0 0
          0 0 0 0 0 0
          0 0 0 0 0 0
          0 0 0 0 0 0
          0 0 0 0 0 0
          0 0 0 0 0 0
          0 0 0 0 0 0
          0 0 0 0 0 0
          0 0 0 0 0 0
          0 0 0 0 0 0
          0 0 0 0 0 0
          0 0 0 0 0 0
          0 0 0 0 0 0
          0 0 0 0 0 0
          0 0 0 0 0 0
          0 0 0 0 0 0
          0 0 0 0 0 0
          0 0 0 0 0 0
          0 0 0 0 0 0
          0 0 0 0 0 0
          0 0 0 0 0 0
          0 0 0 0 0 0
          0 0 0 0 0 0
          0 0 0 0 0 0
          0 0 0 0 0 0
          0 0 0
          <InformationKey name="L2_NORM_RANGE" location="vtkDataArray" length="2">
            <Value index="0">
              0
            </Value>
            <Value index="1">
              0
            </Value>
          </InformationKey>
        </DataArray>
        <DataArray type="Float64" Name="nsi_SFIXNO" NumberOfComponents="3" format="ascii" RangeMin="0" RangeMax="1.7320508075688772">
          0 0 0 0 0 0
          0 0 0 0 0 0
          0 0 0 -1 -1 -1
          -1 -1 -1 -1 -1 -1
          0 0 0 0 0 0
          -1 -1 -1 -1 -1 -1
          -1 -1 -1 -1 -1 -1
          0 0 0 0 0 0
          -1 -1 -1 0 0 0
          0 0 0 -1 -1 -1
          -1 -1 -1 -1 -1 -1
          0 0 0 0 0 0
          -1 -1 -1 -1 -1 -1
          -1 -1 -1 -1 -1 -1
          -1 -1 -1 0 0 0
          -1 -1 -1 -1 -1 -1
          -1 -1 -1 0 0 0
          -1 -1 -1 -1 -1 -1
          -1 -1 -1 0 0 0
          0 0 0 -1 -1 -1
          -1 -1 -1 0 0 0
          0 0 0 0 0 0
          -1 -1 -1 -1 -1 -1
          0 0 0 0 0 0
          -1 -1 -1 -1 -1 -1
          -1 -1 -1 -1 -1 -1
          -1 -1 -1 0 0 0
          -1 -1 -1 -1 -1 -1
          0 0 0 -1 -1 -1
          -1 -1 -1 -1 -1 -1
          -1 -1 -1 -1 -1 -1
          0 0 0 0 0 0
          0 0 0 0 0 0
          0 0 0 0 0 0
          0 0 0
          <InformationKey name="L2_NORM_RANGE" location="vtkDataArray" length="2">
            <Value index="0">
              0
            </Value>
            <Value index="1">
              1.7320508076
            </Value>
          </InformationKey>
        </DataArray>
        <DataArray type="Float64" Name="nsi_UBC" NumberOfComponents="3" format="ascii" RangeMin="0" RangeMax="1">
          0 0 0 0 0 0
          0 0 0 0 0 0
          0 0 0 0 0 0
          0 0 0 0 0 0
          0 0 0 0 0 0
          0 0 0 0 0 0
          0 0 0 0 0 0
          0 0 0 0 0 0
          0 0 0 0 0 0
          0 0 0 0 0 0
          0 0 0 0 0 0
          0 0 0 0 0 0
          0 0 0 0 0 0
          0 0 0 0 0 0
          0 0 0 0 0 0
          0 0 0 0 0 0
          0 0 0 0 0 0
          0 0 0 0 0 0
          0 0 0 0 0 0
          0 0 0 0 0 0
          0 0 0 0 0 0
          0 0 0 0 0 0
          0 0 0 0 0 0
          0 0 0 0 0 0
          0 0 0 0 0 0
          0 0 0 0 0 0
          0 0 0 0 0 0
          0 0 0 0 0 0
          0 0 0 0 0 0
          0 0 0 0 0 0
          0 0 0 0 0 0
          1 0 0 1 0 0
          0 0 0 1 0 0
          1 0 0 1 0 0
          1 0 0
          <InformationKey name="L2_NORM_RANGE" location="vtkDataArray" length="2">
            <Value index="0">
              0
            </Value>
            <Value index="1">
              1
            </Value>
          </InformationKey>
        </DataArray>
        <DataArray type="Float64" Name="nsi_UFIXNO" NumberOfComponents="3" format="ascii" RangeMin="0" RangeMax="1.4142135623730951">
          0 1 0 0 0 0
          0 1 0 0 0 0
          0 1 0 -1 -1 0
          -1 -1 0 -1 -1 0
          0 0 0 0 1 0
          -1 -1 0 -1 -1 0
          -1 -1 0 -1 -1 0
          0 1 0 0 1 0
          -1 -1 0 0 1 0
          0 1 0 -1 -1 0
          -1 -1 0 -1 -1 0
          0 1 0 0 1 0
          -1 -1 0 -1 -1 0
          -1 -1 0 -1 -1 0
          -1 -1 0 0 1 0
          -1 -1 0 -1 -1 0
          -1 -1 0 0 1 0
          -1 -1 0 -1 -1 0
          -1 -1 0 1 1 0
          1 1 0 -1 -1 0
          -1 -1 0 1 1 0
          1 1 0 0 1 0
          -1 -1 0 -1 -1 0
          1 1 0 1 1 0
          -1 -1 0 -1 -1 0
          -1 -1 0 -1 -1 0
          -1 -1 0 0 1 0
          -1 -1 0 -1 -1 0
          0 1 0 -1 -1 0
          -1 -1 0 -1 -1 0
          -1 -1 0 -1 -1 0
          1 1 0 1 1 0
          0 1 0 1 1 0
          1 1 0 1 1 0
          1 1 0
          <InformationKey name="L2_NORM_RANGE" location="vtkDataArray" length="2">
            <Value index="0">
              0
            </Value>
            <Value index="1">
              1.4142135624
            </Value>
          </InformationKey>
        </DataArray>
        <DataArray type="Float64" Name="Velocity" NumberOfComponents="3" format="ascii" RangeMin="0" RangeMax="1.8703370107083384">
          0.905464655062113 0 0 1.0503272717301146 -0.017312509364052747 0
          1.270584417446806 0 0 1.0081891949853747 0.016612170340945042 0
          1.223441451633336 0 0 1.2702443462478707 0.012416576864853162 0
          1.2822890136532752 -0.004981081056827108 0 1.240412705458182 -0.0005241593863700973 0
          1.0374878195207107 0.002278522182730274 0 1.2519320390016362 0 0
          1.2105217232864807 0.001320447751937302 0 1.2463339930020936 -0.009463982557094908 0
          1.2248667243565199 -0.005249882919033003 0 1.2409528616818222 0.0036191602404725574 0
          0.9025301742693538 0 0 1.2418542650922333 0 0
          1.2424808228140296 0.003650209696162461 0 1.3139985236807914 0 0
          1.220156237984067 0 0 1.2303952144201435 0.006385816924222589 0
          1.2392774238177886 -0.020355006909545253 0 1.2301397638018083 0.005943870867475907 0
          1.2454414675123453 0 0 1.2774001223173683 0 0
          1.1910184991233974 0.009988157022607849 0 1.1550790007922835 -0.11889727002850305 0
          1.2485654392206211 0.0210175972540931 0 1.2886445517820073 -0.04437237028665286 0
          1.0344334706294749 0.016816701981569523 0 1.247469633844538 0 0
          1.1659579098211355 0.13048385187187497 0 1.4693662680584545 -0.15877785143517606 0
          1.0487515301595816 -0.4393452114736418 0 1.3073517424599173 0 0
          1.2784875605615005 0.03981439800926003 0 1.0503142761493167 0.46029917333872256 0
          1.3184551579291612 -0.012080648839309493 0 0 0 0
          0 0 0 1.467584822606574 0.17237002303574914 0
          1.8307213382149052 0.11303433042342376 0 0 0 0
          0 0 0 1.2690937684388293 0 0
          1.867557718882715 -0.10192497371592975 0 1.3537709908915823 0.15511252894621294 0
          0 0 0 0 0 0
          1.1688549568886388 0.46631412610001616 0 1.2098577418570227 0.04206929725003672 0
          1.3280187790138083 0.006322555190826565 0 1.1770007816680403 -0.38895042067789126 0
          1.3722953890224732 -0.14477199000339463 0 1.297897293999274 0 0
          1.0448212290199737 0.06629077111104022 0 0.9898292959252581 0.044471920674121354 0
          1.3293285553038403 0 0 1.1360675862562453 -0.06336798187583696 0
          1.2341588258225664 -0.05361092475610431 0 1.1975789559747856 0.07208373219877942 0
          1.2608744555375289 -0.045242364005443854 0 1.328612922835637 -0.049919276282204585 0
          1.0000000001458411 0 0 1.0000000001458411 0 0
          1.1588094382508436 0 0 1.0000000001458411 0 0
          1.0000000001458411 0 0 1.0000000001458411 0 0
          1.0000000001458411 0 0
          <InformationKey name="L2_NORM_RANGE" location="vtkDataArray" length="2">
            <Value index="0">
              0
            </Value>
            <Value index="1">
              1.8703370107
            </Value>
          </InformationKey>
        </DataArray>
        <DataArray type="Float64" Name="Pressure" format="ascii" RangeMin="-2.9679166228357543" RangeMax="37.8092459736719">
          -2.7363259222967575 -2.6728031297166184 4.947069855063478 -2.9679166228357543 8.397039869855773 6.743775647663412
          4.021154115869619 10.963148124128884 -2.3724342245434165 13.651597812506141 8.277691692991315 6.8638437415442
          15.328373826799021 13.0658228455663 -2.4572877546097738 18.333703581112562 11.270716437754901 5.035308035950865
          8.607785234257731 17.531407141128476 20.613716481442143 15.937131835829332 13.610962707469268 23.144809895602098
          21.321400191756435 23.600943535167193 20.500197447350583 24.827417482130365 23.600987503489105 18.365041911130934
          23.587187765816726 25.861838398642572 24.597496736389807 28.119386140053457 23.80424466849536 24.469294665858747
          27.91495536672239 24.93888205992061 26.35804848321885 25.547308815372325 27.81261491450767 26.408665279635986
          29.35744009668323 23.120260563805935 27.855541260562887 30.110306296714793 29.473670153594053 31.128886170041408
          31.4517140398288 31.332885598139423 27.797913379879148 31.461505390963783 30.05580398281094 32.168871425676066
          32.6933512896156 32.63484519232764 28.06869440336097 32.53375509718364 31.024029378930795 34.91055653461798
          34.400447342547096 33.828486213898486 36.80023844239443 37.656088608978195 32.8240984495785 37.8092459736719
          37.53085843735487 37.596265023281006 37.113886430176805
        </DataArray>
        <DataArray type="Float64" Name="Sigma" NumberOfComponents="6" format="ascii" RangeMin="0.000027193855020431025" RangeMax="0.03959490157221026">
          0.0004405750203217984 -0.00009457830842940496 0 0.00028266453093173105 0 0
          0.0000212905572727351 0.00003386464381138765 0 -0.00009657660902384624 0 0
          -0.0002871183415464884 -0.00010175285571345505 0 0.000010140599642979864 0 0
          0.00011899700350648246 0.00007413874062445203 0 4.855708201842446e-7 0 0
          -0.00017260851788991616 -0.0000133454483131068 0 0.00009568892411770946 0 0
          -0.0002895344588249582 0.000006537694519082038 0 0.00000220874067638141 0 0
          -0.0001743079667493319 0.00008551431032177703 0 -0.00002262597000451949 0 0
          0.00015880074930585408 -0.000009640183840087246 0 0.00003534009669486915 0 0
          -0.000025765467581706503 -0.000008368842702166646 0 -0.0000023683122671314116 0 0
          0.0001316620554470127 0.000018550450231469284 0 -0.000012026198400322263 0 0
          -0.00013909480631180138 0.00004853688021499991 0 -0.000015046219730557864 0 0
          -0.00027999928546851294 0.000035344249671442896 0 -0.00004678698843629814 0 0
          -0.0000707973558722319 -0.00001268155068179233 0 0.000007640378209272658 0 0
          0.000058717176609768273 -0.000040592415412321614 0 0.000006647407752718992 0 0
          0.00012333409705744813 -0.00004354653351246185 0 -0.00010646720798868081 0 0
          -0.00008427529279431134 0.000054674798077858355 0 0.000025546990380098666 0 0
          0.00018589616148645405 0.000011301160363075269 0 -0.000019735007493471013 0 0
          -0.0002952195557570647 -0.00015687379478768193 0 0.0001844259919614455 0 0
          -0.00005536401453953843 -0.00006631563585490774 0 -0.00009431072143795127 0 0
          -0.0000307466546112245 -0.00004281051657617496 0 -0.0000334462913892386 0 0
          0.00004792748578008599 -0.000005073836878422 0 0.00011308485958760883 0 0
          -0.00010568579087988361 0.000009707428694216702 0 -0.000026254257852464935 0 0
          0.000005626194954366781 0.00003756035490409815 0 -0.000006353357595578757 0 0
          -0.00025299618399143853 0.00013432346872566114 0 -0.00002088047733050935 0 0
          0.0008568499412997532 -0.00040258642571844305 0 -0.0000930955934716482 0 0
          -0.00023675891414054462 0.000657375179935471 0 0.0013192754506369253 0 0
          -0.000008673861628949453 0.000040694323288903433 0 -0.00007562924349835409 0 0
          -0.00017641451138250552 0.00030037143382566356 0 0.00012659610640480823 0 0
          -0.0006027660396090706 -0.003497159483961676 0 -0.0002061318570070747 0 0
          -0.000019591285171927098 0.00006630109347094404 0 -0.000020750156327908886 0 0
          -0.0005223822166278147 0.0006973677255439625 0 -0.0014900239169446383 0 0
          -0.004715303139374294 0.0022491036663518926 0 -0.0016409312769652407 0 0
          0.005156097438474561 -0.0018594063193932975 0 0.0033733939511393363 0 0
          0.000017101392646434732 0.0001040050696898831 0 0.0002003808879463831 0 0
          -0.00026297357028637336 0.0003281175847025253 0 -0.00014234751368191745 0 0
          0.0054515247655095855 -0.001856348296991328 0 -0.003626479962021145 0 0
          0.0006452511869259325 -0.00030492844717011636 0 -0.0014086538446173025 0 0
          0.03894892845421882 -0.007113884974374596 0 0.00036033783111007883 0 0
          0.020330575847782306 -0.0014109503871984064 0 0.015262879919031302 0 0
          -0.0046754410987670525 0.002566029658990221 0 0.001464824968738787 0 0
          0.0016973970336842115 -0.0005603546820165395 0 0.0014564567180158638 0 0
          0.0203266382508116 -0.0018512609220810994 0 -0.015162125191472975 0 0
          -0.00980204266391449 0.003989382168423372 0 0.01527517657001487 0 0
          -0.00027145168585152035 0.0001327387046279327 0 0.00007072500292776285 0 0
          0.0016514922009047694 -0.00018709748020873107 0 -0.0014120927804811556 0 0
          0.004311592213290805 -0.0027875067401261777 0 -0.0009609678495767215 0 0
          -0.009615158369785659 0.0029801811789131882 0 -0.015840355861831967 0 0
          -0.02550477765857484 0.006411601262679145 0 -0.0003238566757990391 0 0
          -0.00018929914631371503 0.0020835040950295536 0 0.0025315694710731362 0 0
          0.0001513705928268827 -0.00010566687823621024 0 0.0003251422877659227 0 0
          0.0003311270552419643 -0.00015900355345710437 0 0.001425833938903387 0 0
          -0.00025168075916681687 0.002476347578905802 0 -0.0027770021457707017 0 0
          0.003844853547174676 -0.0022259065882601625 0 0.0011138421648362873 0 0
          0.0002389807132407995 -0.00027771076067106826 0 0.00008969057163910055 0 0
          -0.00021967613035300815 -0.0005107852318331219 0 0.0010467412537185083 0 0
          0.000013195450732084169 0.0025556432981743704 0 0.00011783315942495709 0 0
          0.000263210720707896 -0.000060676719426666637 0 -0.0001992919321874842 0 0
          -0.00031794694577147453 -0.00027283828770707785 0 -0.0007340466546629232 0 0
          0.0001476594762017669 -0.00007198366310245952 0 -0.00016907388538101031 0 0
          -0.0002029330005315355 0.00015242281520277956 0 0.00000952563763128439 0 0
          -0.0009705077887778302 0.00033136256103460937 0 0.00008325439867021278 0 0
          -0.00017677345912070486 0.000020329923478001888 0 -0.00007667783178122445 0 0
          0.0005407059935569336 0.0002971445603128231 0 -0.00023759770960141147 0 0
          0.00010924302796810892 -0.0002672668843128889 0 0.0003412143177172755 0 0
          0.00011833355931800682 -0.00038493611542733674 0 0.00043375200366180255 0 0
          0.0006619077244751637 0.00028451918631100526 0 -0.00017992755108608982 0 0
          0.00042313475372424136 -0.00005521508131267616 0 -0.00003645933230878029 0 0
          0.0010883579022791245 0.000035305577672506416 0 -0.0002522170500021681 0 0
          0.00023048789458135488 -0.00012164762647204341 0 0.00015167612351374427 0 0
          <InformationKey name="L2_NORM_RANGE" location="vtkDataArray" length="2">
            <Value index="0">
              2.719385502e-05
            </Value>
            <Value index="1">
              0.039594901572
            </Value>
          </InformationKey>
        </DataArray>
        <DataArray type="Float64" Name="Psi" NumberOfComponents="6" format="ascii" RangeMin="5.438772330963481e-7" RangeMax="0.0007916015120028412">
          0.000008811445605978746 -0.0000018915839371405322 0 0.000005653271058635794 0 0
          4.258091894506535e-7 6.772907814527937e-7 0 -0.0000019315311152142633 0 0
          -0.000005742383338714868 -0.000002035059205212431 0 2.028127815411283e-7 0 0
          0.00000237993723833876 0.000001482773713361145 0 9.71139764854789e-9 0 0
          -0.000003452178147873096 -2.6691083309805227e-7 0 0.0000019137820411271314 0 0
          -0.000005790705943592784 1.3075388086448354e-7 0 4.417493854132032e-8 0 0
          -0.0000034861655141970963 0.0000017102846412807946 0 -4.525198019008123e-7 0 0
          0.0000031760096929507913 -1.9280394509584855e-7 0 7.068008796778946e-7 0 0
          -5.153094853662541e-7 -1.673768688953416e-7 0 -4.736626152545e-8 0 0
          0.0000026332376126885595 3.7100890658653145e-7 0 -2.4052360672201733e-7 0 0
          -0.0000027819000410200993 9.707370876043555e-7 0 -3.0092466711128627e-7 0 0
          -0.000005600001827358013 7.068843055903659e-7 0 -9.357420580481876e-7 0 0
          -0.0000014159481317534069 -2.5363105758741957e-7 0 1.5280769171868609e-7 0 0
          0.00000117434283391392 -8.118486465241631e-7 0 1.3294813096643198e-7 0 0
          0.0000024666766317819318 -8.709333166622982e-7 0 -0.0000021293424608776112 0 0
          -0.0000016855074071848913 0.0000010934952329857387 0 5.109399588536131e-7 0 0
          0.000003717916240320307 2.2602310397186055e-7 0 -3.946993715307029e-7 0 0
          -0.000005904415348695092 -0.000003137487620051664 0 0.000003688536514891166 0 0
          -0.000001107282682692856 -0.0000013263153754957384 0 -0.0000018862167239863627 0 0
          -6.149335051607823e-7 -8.562109217663749e-7 0 -6.689263199244369e-7 0 0
          9.585466987680389e-7 -1.0147930032414442e-7 0 0.000002261696222555605 0 0
          -0.0000021137181890223634 1.9414841739746683e-7 0 -5.25085660982248e-7 0 0
          1.1252388452417289e-7 7.512068077508475e-7 0 -1.270670970407204e-7 0 0
          -0.000005059936568472124 0.0000026864656785817086 0 -4.1761004220027097e-7 0 0
          0.000017136850255732344 -0.000008051762663129974 0 -0.00000186190341157688 0 0
          -0.000004735537590314764 0.000013147069078847255 0 0.000026385398038231087 0 0
          -1.7347839142450626e-7 8.138849906302545e-7 0 -0.0000015125843855931112 0 0
          -0.0000035282996574076813 0.000006007407426659934 0 0.000002531918989638828 0 0
          -0.000012055401956916394 -0.00006994564431715999 0 -0.000004122806173289213 0 0
          -3.918258665948795e-7 0.0000013260209037083762 0 -4.1500293272069273e-7 0 0
          -0.000010448142945991353 0.00001394681321829038 0 -0.000029800426202753692 0 0
          -0.00009431104846669218 0.000044980523131165935 0 -0.00003281943499689994 0 0
          0.00010311435636574361 -0.00003719109379724136 0 0.00006746565510154164 0 0
          3.4201976397625886e-7 0.0000020800911998473084 0 0.000004007612905573053 0 0
          -0.000005259489289315327 0.000006562326109399679 0 -0.0000028469484190339146 0 0
          0.00010902192196345213 -0.000037130285373150165 0 -0.00007252699202334656 0 0
          0.00001290454361347477 -0.000006098984400775298 0 -0.000028172981021659 0 0
          0.0007786752968055979 -0.00014228784787996974 0 0.000007204463587589787 0 0
          0.00040648230616338816 -0.000028265986137248972 0 0.0003051998699941134 0 0
          -0.00009351362337888715 0.00005131884718351059 0 0.00002929711743112388 0 0
          0.00003394694021846023 -0.00001120758069000582 0 0.000029128803166710832 0 0
          0.00040640419872677475 -0.00003707187171428875 0 -0.00030318650324047365 0 0
          -0.0001961067477217935 0.00007973779316281346 0 0.0003055213017590204 0 0
          -0.00000542904945462628 0.000002654769568410811 0 0.0000014145020206700112 0 0
          0.000033028899759944044 -0.000003742355399708069 0 -0.0000282414420541592 0 0
          0.00008622794183645057 -0.00005575187359404283 0 -0.0000192190641112314 0 0
          -0.00019237185427340304 0.000059551661529396555 0 -0.00031682815098805616 0 0
          -0.0005102257171562952 0.00012822378324976884 0 -0.000006478370662825571 0 0
          -0.000003787271832467715 0.00004166793202632977 0 0.00005063043042923799 0 0
          0.000003027386130395682 -0.0000021133609416165037 0 0.000006502842783406559 0 0
          0.000006622112578148048 -0.0000031804827261811216 0 0.00002851662970222795 0 0
          -0.000005035170159768963 0.00004952418290756443 0 -0.000055538807432851587 0 0
          0.00007689386640427644 -0.0000445193708577923 0 0.000022276482683359487 0 0
          0.000004779601233515331 -0.000005554232247130751 0 0.0000017938121275117404 0 0
          -0.000004393751394987127 -0.000010215975954531247 0 0.000020934977999423562 0 0
          2.639062028756136e-7 0.00005111155696876375 0 0.000002356602651684142 0 0
          0.000005264192614944291 -0.000001213543068125774 0 -0.000003985830571131115 0 0
          -0.000006359066899911426 -0.0000054568884085717156 0 -0.00001468101982752538 0 0
          0.0000029531794464681154 -0.0000014396800155305467 0 -0.000003381475148679377 0 0
          -0.00000405866826482942 0.0000030484516395637154 0 1.9051284885029854e-7 0 0
          -0.000019410345541220256 0.000006627227874385245 0 0.0000016650986158916708 0 0
          -0.0000035354766078393455 4.065972112483035e-7 0 -0.000001533559034752796 0 0
          0.000010814050108244126 0.000005942862256809652 0 -0.000004751914378154144 0 0
          0.000002184834887094685 -0.000005345375258182628 0 0.000006824297138562739 0 0
          0.0000023666307576973953 -0.00000769878957221982 0 0.00000867506320146136 0 0
          0.000013238060391194552 0.000005690361061073026 0 -0.0000035985169643921734 0 0
          0.000008462659000356834 -0.0000011043025017086335 0 -7.291839633688512e-7 0 0
          0.00002176690842227354 7.060985818597554e-7 0 -0.0000050442843194865845 0 0
          0.0000046097426657265495 -0.0000024329600900103043 0 0.000003033519168590032 0 0
          <InformationKey name="L2_NORM_RANGE" location="vtkDataArray" length="2">
            <Value index="0">
              5.438772331e-07
            </Value>
            <Value index="1">
              0.000791601512
            </Value>
          </InformationKey>
        </DataArray>
      </PointData>
      <CellData>
        <DataArray type="UInt8" Name="vtkGhostType" format="ascii" RangeMin="0" RangeMax="0">
          0 0 0 0 0 0
          0 0 0 0 0 0
          0 0 0 0 0 0
          0 0 0 0 0 0
          0 0 0 0 0 0
          0 0 0 0 0 0
          0 0 0 0 0 0
          0 0 0 0 0 0
          0 0 0 0 0 0
          0 0 0 0 0 0
          0 0 0 0 0 0
          0 0 0 0 0 0
          0 0 0 0 0 0
          0 0 0 0 0 0
          0 0 0 0 0 0
          0 0 0 0 0 0
          0 0 0 0 0 0
          0 0 0 0 0
        </DataArray>
        <DataArray type="Float64" Name="Velocity_SGS" NumberOfComponents="3" format="ascii" RangeMin="0" RangeMax="0.19029467842722755">
          6.93166831719045e-310 6.93166831719045e-310 4.6867779079136e-310 0.04993779996398184 -0.019086310506456643 0
          -0.050516815737321 -0.03186295606617858 0 -0.005635218012673237 -0.053706542534963646 0
          -0.009616609081117595 0.05229197290290985 0 -0.05104415272156472 0.024958299412089473 0
          0.049847808423638396 0.023572722306261337 0 -0.08577157120499712 -0.04825553488985216 0
          -0.07410794604196369 0.03740850808855833 0 0.09265903558669955 0.042667014339685796 0
          0.1902636486894087 0.003436368012190418 0 0.08703274461332797 -0.03125952205936502 0
          -0.16644754211766916 -0.0017801866942550246 0 0.10259336165362101 -0.04356946175879607 0
          0.031071779247089665 -0.0027456093151071916 0 0.0012566066662040654 0.014888776943373483 0
          -0.09133004210655696 0.022775150358526897 0 -0.031286168317022967 -0.015858878765476928 0
          -0.006180773370788406 -0.009798478456378422 0 -0.11745498434173653 -0.023444580742401692 0
          0.0000687864303076588 0.0116202900321094 0 -0.02807374086162489 0.012187455784303532 0
          0.11774728791954012 0.04914862689728092 0 0.002044078852833753 -0.016298342126463913 0
          0.02322261898204812 0.0031549514786685167 0 -0.03756457503091125 -0.009336642493424986 0
          -0.02968562879459445 -0.04921506157147652 0 -0.02905418401006276 0.06668593222743593 0
          0.018788558200372753 0.009227081632401591 0 0.006302327298931298 0.05768780926191918 0
          0.00777046021638119 -0.06608981394885229 0 0.03535315200915984 -0.012988197468279764 0
          0.02679198455500603 0.001478369114776953 0 -0.009323908534120734 -0.009752688555427649 0
          -0.03915698750900001 0.00028448915711023776 0 0.02958415272929075 -0.01568476806816834 0
          -0.014792491003694615 0.011907859996242236 0 0.007870290759920582 0.010605257029406415 0
          -0.009549460513775076 -0.008813576235321911 0 0.013132942299107329 -0.011182070671305614 0
          -0.033586249770146355 0.004043212530019222 0 0.03181221543217021 0.006492935249007787 0
          -0.006912535978802722 0.012603830993474154 0 0.014100864727282628 0.0008450759279554614 0
          -0.0027435719209706324 0.0005104257097426311 0 -0.007332437946288557 -0.0023963718306153313 0
          0.005402538847326374 0.001569170787490102 0 -0.00003558169753355026 -0.010774809550945695 0
          0.0015017907890765218 0.01179428536179174 0 -0.00016735766271258113 0.0011625206564962868 0
          -0.0006831524602950621 0.0021795254343313624 0 -0.007162743807308727 0.006455258137212081 0
          -0.0109712842457577 0.0029298891313457474 0 0.0032459542017974057 -0.0005412311774954286 0
          0.006934220244871099 -0.007127039074517837 0 -0.0005426362779599615 -0.0031750075115685407 0
          0.004021521537165304 -0.003912241069578907 0 -0.005644317727250821 -0.001622013304431194 0
          -0.002871540543846308 -0.000896238750315948 0 0.0012831871480359414 0.0005103644037556494 0
          -0.0017376130529374186 0.007595352778032769 0 0.00688362625816338 -0.004915085900592495 0
          -0.003081436218164331 0.000929567912647678 0 -0.004572662471971526 0.0017428235017332308 0
          0.0056330488074000755 0.001648093226391678 0 -0.00023035888715375026 0.000983092841128161 0
          -0.002342561461312207 0.0020313647319491223 0 0.005854328677380578 0.0009876797100163912 0
          -0.007303068467334596 -0.0017172907078940095 0 -0.009421547766202822 0.0011069298190289711 0
          0.00047221307922499297 0.0005477482029594825 0 0.0017170179398625118 -0.0020657979762067546 0
          0.003665612770085042 0.000020991335941414487 0 0.0013269674088487741 -0.0017920721745269658 0
          0.0030619507658101765 -0.001330873706073753 0 -0.002642800676291103 0.00015320118845911583 0
          0.0003746249048063652 0.0011711688656622509 0 0.00026362052779283244 -0.00011087714209761745 0
          0.0019972205490390413 -0.00042727458378637596 0 -0.0003354915105171848 0.0008513047955170367 0
          -0.0006052964480910856 -0.00010957965855407981 0 0.002171238062973097 -0.0007294506574620957 0
          -0.002014328237766967 -0.000573939687916987 0 -0.0002756731467496126 0.00036156488577994016 0
          -0.0038466034979210417 0.0016407656597411686 0 -0.0023973326345249173 0.00020672140971596728 0
          0.0012591244779719228 0.0005762920357391518 0 0.0018982580507108109 0.00031943260289145955 0
          -0.0004283465056038131 -0.00041889524083815527 0 -0.0025462780283161722 0.0015386989205778728 0
          0.0028409511559286883 -0.00036671541285126705 0 0.0035529435338894264 -0.0007361117555087597 0
          0.004545877081080462 -0.0006436499839593112 0 -0.00020926098468951283 -0.0012506529506308083 0
          0.0009046814496339538 -0.00039088054641548385 0 0.003472837736243226 0.0000012725984333055384 0
          -0.0002528479207231787 -0.0010847256256709282 0 -0.0019463487033724702 -0.0005184496026822167 0
          -0.004343487957732916 0.00008307602910892956 0 0.003462279453589712 -0.0000034421094881896585 0
          -0.005334370919496024 0.0004117710397334128 0 -0.0042676052656795815 0.0007407990109821314 0
          0.005782260875616593 0.0004670545487329275 0 -0.0007076453527921392 -0.0006728498851255498 0
          0.001337949715090216 0.00007528905693298985 0 -0.0010856915610925359 -0.0008291189012686426 0
          -0.003342549362562107 0.0007792938080811758 0 -0.0004331607555671884 -0.00024218388924820953 0
          <InformationKey name="L2_NORM_RANGE" location="vtkDataArray" length="2">
            <Value index="0">
              0
            </Value>
            <Value index="1">
              0.19029467843
            </Value>
          </InformationKey>
        </DataArray>
        <DataArray type="Float64" Name="Velocity_SGS2" NumberOfComponents="3" format="ascii" RangeMin="0" RangeMax="0.3693409316461506">
          6.93166831719045e-310 6.93166831719045e-310 4.6867779079136e-310 0.0735786971788521 0.18493824293341565 0
          0.08695445266987356 -0.2164132916209987 0 0.36932246313471107 -0.003693509625882774 0
          0.36274899922241094 0.0026170128819302703 0 0.08408160336895729 0.2148738420497066 0
          0.06616570137340466 -0.18796313388795355 0 -0.1277549924850098 0.0661224630400776 0
          -0.11881252986186736 -0.06617568774183183 0 -0.13183612954306848 0.05953903099441431 0
          -0.22672822729971825 -0.004102198712838553 0 -0.12187797430746052 -0.06876815715615027 0
          -0.1905854111061866 -0.008316479158189817 0 0.1237549997062282 0.10633427299989107 0
          -0.048128301403785 -0.05371456585352965 0 -0.03420342115860223 0.08986290753565274 0
          0.12381384579106833 0.08716231633003371 0 -0.04861543671039309 -0.03985628493316515 0
          -0.026652191296997516 0.10153790818599914 0 0.14995328523946588 -0.08543018104219903 0