<?xml version="1.0"?>
<VTKFile type="UnstructuredGrid" version="0.1" byte_order="LittleEndian" header_type="UInt32" compressor="vtkZLibDataCompressor">
  <UnstructuredGrid>
    <Piece NumberOfPoints="97" NumberOfCells="154">
      <PointData>
        <DataArray type="Float64" Name="Velocity" NumberOfComponents="3" format="ascii" RangeMin="0" RangeMax="2.7397387280686583">
          1.0182994516757877 0.0022953052002563134 0 1.023188148480666 0 0
          0.9945409910777401 -0.0004962220895069732 0 1.0039117135892959 -0.013988008498645947 0
          0.9902985021145291 -0.008504927875620048 0 1.054621931900012 0 0
          0.9900590374680375 0.0008954083655854604 0 0.9787726818254864 0 0
          0.9809612405812225 -0.01365772193342335 0 1.0043619763876441 -0.007636765296979405 0
          1.0979569431025982 0 0 0.9620002308423441 0 0
          0.9211109998223096 0 0 1.2749732168140668 0 0
          0.9729275993102394 -0.1889242635984531 0 1.3671142828513119 -0.3833206361984226 0
          0.7412143676409287 0 0 1.7081510605547323 0 0
          0.6689164392052313 -0.306547247523674 0 0.9906098762663812 -0.7059270584991597 0
          1.937606959166357 -0.4846070266051167 0 0.36123203454982367 0 0
          2.339161889515296 0 0 0.2530885641640262 -0.6705644355186895 0
          0.9753970654943156 -1.0462361240875893 0 2.4884622984521516 -0.34401241291485923 0
          -0.35896205952019794 0 0 2.7357004277386436 0 0
          -0.35339105716841046 -0.339958848297119 0 1.7235289992690535 -0.4754226647542024 0
          0.14127176856345236 -0.5409729334891783 0 2.739731047476448 -0.006487339429684612 0
          -0.6341294359184038 0 0 2.706206896650322 0 0
          2.093034769887947 -0.010578122621358235 0 0.4128860853325161 0.020906327723379137 0
          -0.7413414721284316 -0.09311080289301274 0 -0.6803537249741736 0 0
          2.573904147734681 0.26261790111233346 0 1.072543785310866 0.3912212478054393 0
          -0.26794607316227 0.2803974857677583 0 2.0384082929434912 0.2787395830283371 0
          -0.6769894099992159 0.14879956477764467 0 0.5109305237759666 0.4406268246046151 0
          1.00960652006615 0.40709783668297533 0 0.10181722563752107 0.4362720205925391 0
          -0.5025637285771495 0 0 1.437535444434202 0.2876491004178897 0
          -0.3995367617469542 0.29060214788111405 0 1.960070268240885 0.24126639751162207 0
          0.5561896597326469 0.4739729330520755 0 -0.5234770614588271 0.10513982668624967 0
          -0.129881426818723 0.404524044178877 0 0.8794885594178756 0.383545313350843 0
          -0.4688719569445285 0.24060919101769027 0 0.19529939552799327 0.4780042278880368 0
          1.2478366108750982 0.19959981547821967 0 -0.2568567997604633 0.3620078614095138 0
          0.5310493805410714 0.4587390692677216 0 -0.3463205732994279 0 0
          -0.011036532726458118 0.4516904286702659 0 -0.37083417381257744 0.13907293582746624 0
          0.6901723842844728 0.24101500905741144 0 -0.2922218219313205 0.268731787129342 0
          0.25674245663849604 0.4951796217317506 0 1.1683376779774362 0.07944293055433067 0
          -0.11566379529233502 0.37288554281134956 0 0.41431345042636825 0.39030427400856677 0
          0.09549001024110663 0.4431548464887344 0 0.47814100135888016 0.16531344872176737 0
          -0.21684893912120876 0.14975732015567603 0 0.24936304518737193 0.4147026517596707 0
          -0.20852002017283372 0 0 -0.1412025923426279 0.24932038823221353 0
          0.2583726068932796 0.2579635220042972 0 0.00831281720222107 0.3437706423540711 0
          0.11891234160588761 0.33787671515587353 0 0.16084888984144102 0.27121594309454705 0
          -0.0869521814920986 1.090493525045005e-23 0 -0.016889162795655194 0.2074337686344676 0
          0.05793843397178717 0.1972243885942402 0 -0.0315005930206173 0.07135857318947166 0
          0.003533845664886605 -0.010548738133735991 0 -0.02505710053468046 1.7707518425695727e-23 0
          -0.0003603576854001713 -0.00684664849703172 0 -0.002084704045784362 -0.003698449196711283 0
          -0.0015710857887592565 -0.0013652353518084038 0 0 0 0
          2.418424219844901 0.20158194584021605 0 2.5203404083341847 0.2836912679097878 0
          2.512728959863155 0 0 0.4141200077430406 0.14057563435230025 0
          1.1764902733199942 0.1685257466630488 0 2.0512538288959856 0.2098892857588635 0
          1.9384477864173044 0.25632293700032766 0 0.09974782122588777 0.157236603020001 0
          0.009847535836287334 -0.014431167677767753 0
          <InformationKey name="L2_NORM_RANGE" location="vtkDataArray" length="2">
            <Value index="0">
              0
            </Value>
            <Value index="1">
              2.7397387281
            </Value>
          </InformationKey>
        </DataArray>
        <DataArray type="Float64" Name="Pressure" format="ascii" RangeMin="-4.681100559840131" RangeMax="0.007067265896664157">
          -0.00798922244736342 -0.012595340523925129 -0.002961159116222552 -0.02006538903071895 -0.023621022784601594 -0.009161137998963823
          0.007067265896664157 -0.022916026585666004 -0.06008848901049887 -0.05150246906351352 -0.029777637215539863 -0.06801870311150943
          -0.09009924055818547 -0.03090662361691688 -0.11420731599219228 -0.3159980825099681 -0.2155603826954765 -0.36303558268573205
          -0.3537466462184348 -0.77206598322178 -0.9858514913412116 -0.3992361219697841 -1.5321653728497113 -0.9922351067012338
          -2.4510712822612115 -2.307763954223906 -1.6199209392494234 -2.611269603402916 -2.507364532323696 -4.237426980931635
          -4.021272974893748 -3.154571896742628 -2.8693670793777892 -2.5295790725536484 -4.088253112601755 -4.681100559840131
          -3.821345808528418 -3.3863648590003192 -2.986145768850773 -4.160336029482494 -4.023715558534365 -2.879310117680219
          -3.513721552944996 -3.8185825016312234 -3.445641290196465 -3.6711103782572807 -3.3594612006215696 -2.9212944509796164
          -3.526042028110019 -2.547696238953676 -3.4087904529415507 -3.3151211218276937 -3.472569009067106 -3.0037826355019352
          -3.322088888744864 -3.337590181020572 -2.686486523484738 -3.3141911360031955 -3.0788087940670734 -3.20050755714418
          -3.248886798663953 -3.193689296493635 -2.792044158852261 -3.180936233103548 -3.1200672592139886 -2.6404721427120568
          -3.1628957720608213 -2.941468767715749 -3.1110780529024007 -2.844099272939223 -3.129266401787592 -3.0281693470987436
          -3.1416684371017793 -3.117965348112458 -2.9509916255524113 -3.1010369995080116 -3.071473454758936 -3.016826948667574
          -3.162072258590861 -3.1296593538024804 -3.1229922922277393 -3.184052354895882 -3.1371204702476505 -3.203790775894809
          -3.1939026374406363 -3.2403317272831114 -3.2451631908198335 -3.236269338885653 -1.7716666335548974 -2.1848803019538128
          -1.9538804661625666 -2.9641564579857316 -2.7853857058055476 -2.3731678265731557 -2.4761974474802466 -2.958828335952559
          -3.0424533171026056
        </DataArray>
        <DataArray type="Float64" Name="BTraction" NumberOfComponents="3" format="ascii" RangeMin="0" RangeMax="3.363807196297058">
          0.003494078516770865 0.004778324017638663 0 0.0007735954845508845 0.011701483880526286 0
          0.002064839664722777 0.00039765179571945143 0 0 0 0
          0 0 0 0.001382842122939833 0.013738534498736918 0
          -0.0021483897632210646 -0.0009521426358368336 0 -0.00045830951300985563 -0.024851776360950074 0
          0 0 0 0 0 0
          0.0037778046451013127 0.030490040847113254 0 -0.0005698448998792893 -0.06343264534851202 0
          -0.0025360110132702494 -0.1030987454345344 0 0.006713629394949496 0.09886021928307624 0
          0 0 0 0 0 0
          -0.005606850324884189 -0.20409428738146873 0 0.005870019267558147 0.5103454145123293 0
          0 0 0 0 0 0
          0 0 0 -0.008401648762318175 -0.49523829140628134 0
          0.001665107746975211 1.5288939237569565 0 0 0 0
          0 0 0 0 0 0
          -0.00803626632116252 -1.5338663319798338 0 -0.0005076266318877456 2.4280667970082943 0
          0 0 0 0 0 0
          0 0 0 0 0 0
          -0.0010406128279844184 -2.7019080372091464 0 0.0003075766913031236 2.4417755792503706 0
          0 0 0 0 0 0
          0 0 0 0.00688747787917678 -3.2967642538645414 0
          0 0 0 0 0 0
          0 0 0 0 0 0
          0 0 0 0 0 0
          0 0 0 0 0 0
          0.009299836213283702 -3.3637943407566224 0 0 0 0
          0 0 0 0 0 0
          0 0 0 0 0 0
          0 0 0 0 0 0
          0 0 0 0 0 0
          0 0 0 0 0 0
          0 0 0 0.006758506476018268 -3.2460542439736213 0
          0 0 0 0 0 0
          0 0 0 0 0 0
          0 0 0 0 0 0
          0 0 0 0 0 0
          0 0 0 0 0 0
          0 0 0 0 0 0
          0.0031054632039504548 -3.18305246904664 0 0 0 0
          0 0 0 0 0 0
          0 0 0 0 0 0
          0.0005539264135708456 -3.186378202461026 0 0 0 0
          0 0 0 0 0 0
          -3.0017757843778985 0.9118645973117069 0 -0.0003367473649940162 -3.208877094080139 0
          -3.0614475311882106 0.8732314242403207 0 -3.124043364685294 0.7744955806042519 0
          -3.1867469231490877 0.5161335917791942 0 -1.550685938513936 -1.5147642818362788 0
          0 0 0 0 0 0
          -0.0007967137150564986 1.8115163158502439 0 0 0 0
          0 0 0 0 0 0
          0 0 0 0 0 0
          -2.8869749136528915 0.9065193149398282 0
          <InformationKey name="L2_NORM_RANGE" location="vtkDataArray" length="2">
            <Value index="0">
              0
            </Value>
            <Value index="1">
              3.3638071963
            </Value>
          </InformationKey>
        </DataArray>
        <DataArray type="Float64" Name="ALEdispl" NumberOfComponents="3" format="ascii" RangeMin="0" RangeMax="2.625112697866749">
          0 0 0 0 0 0
          0 0 0 0.20728604348658042 0.034542384941263334 0
          0.13559924172429616 -0.0534398873470946 0 0 0 0
          0 0 0 0 0 0
          0.19365539047332617 -0.01884823045658911 0 0.3308012351333321 0.004311729847398761 0
          0 0 0 0 0 0
          0 0 0 0 0 0
          0.5843507345865276 0.008612952998277594 0 0.4231791634154633 0.07016952309264517 0
          0 0 0 0 0 0
          0.43316095504592833 -0.1384787016990469 0 0.8520310270579714 -0.06229208956897004 0
          0.4537457054675206 0.09487891407121145 0 0 0 0
          0 0 0 0.48227664289079614 -0.2056195258599009 0
          1.090342113878698 -0.15705478830815015 0 0.5588499358821469 0.0880380588637992 0
          0 0 0 0 0 0
          0.6174468173707857 -0.2781522789060816 0 1.2164683087532013 -0.19833689111858469 0
          1.174514773795906 -0.38153564474310975 0 0.7322318164113077 0.048525509121319664 0
          0 0 0 0 0 0
          1.341479985379703 -0.2573596863987514 0 1.4486644431352962 -0.5440312975665369 0
          0.8345078144202488 -0.47004141126536947 0 0 0 0
          1.3862581259768398 -0.1532845464085625 0 1.799773748715622 -0.6127476382369513 0
          1.4313902615062375 -0.7953588529283303 0 1.7453744200353596 -0.40707111070491414 0
          0.7212088246241064 -0.5205621776641722 0 1.7826533746679412 -0.7934687190287462 0
          1.9688522592037643 -0.7018842396733648 0 1.6999546853415 -0.8722290114008614 0
          0 0 0 1.9746794943950523 -0.6157783055016213 0
          1.167783322110849 -0.7721961217340894 0 1.941083919477696 -0.5119883551994768 0
          1.9475518016201896 -0.8541590061690127 0 0.4926778689882037 -0.39298982593260695 0
          1.5076920599992625 -0.88851811022171 0 2.1184086182009576 -0.7814256795467969 0
          0.8879155520451355 -0.6606125866145 0 1.8360449531765886 -0.9238040803416131 0
          2.1732693315265403 -0.6904158209814968 0 1.2706919901531426 -0.8409847734302102 0
          2.096189221742345 -0.888928782951185 0 0 0 0
          1.6320250754117662 -0.9174336138953681 0 0.5599494672335382 -0.46389333311576936 0
          2.267937898724746 -0.8083570090357368 0 0.946786708356898 -0.7062549464989045 0
          1.9619788861626946 -0.9225558034758258 0 2.339188487874144 -0.7179208128001957 0
          1.3368486161912578 -0.831812792269279 0 2.2300003432282325 -0.8711729030044828 0
          1.7187885590601737 -0.87397271462297 0 2.403781365255959 -0.7839113138156605 0
          0.5682399640888681 -0.4755501467043916 0 2.065339713270564 -0.8655058755762298 0
          0 0 0 0.9465248877306099 -0.6524067119039132 0
          2.3492004898702343 -0.8034650592393352 0 1.3535233117754388 -0.7323313867447053 0
          1.7137344961545715 -0.7238486500667168 0 2.125478028635286 -0.7385523936399683 0
          0 0 0 0.9228153878477219 -0.5172098383686178 0
          1.3411605158529183 -0.5296201889289301 0 0.3803560683085486 -0.2782379877976934 0
          1.5267049378348843 -0.35194781355308724 0 0 0 0
          0.9703035056118382 -0.2571958102531207 0 0.48033492486635904 -0.16593227253458617 0
          0.14119580069536616 -0.0838539132109987 0 0 0 0
          0.8528843867423371 -0.10569589575851918 0 1.6810249437995068 -0.37033250635765946 0
          0 0 0 2.5273981041323808 -0.7095600747852778 0
          2.4848546571733636 -0.6851286610478722 0 2.323853676359338 -0.6223793968237165 0
          2.155104662326383 -0.5941820109594323 0 2.4308168495898173 -0.6805984907963072 0
          2.0364836680815372 -0.43710724117279603 0
          <InformationKey name="L2_NORM_RANGE" location="vtkDataArray" length="2">
            <Value index="0">
              0
            </Value>
            <Value index="1">
              2.6251126979
            </Value>
          </InformationKey>
        </DataArray>
        <DataArray type="Float64" Name="ALEveloc" NumberOfComponents="3" format="ascii" RangeMin="0" RangeMax="0.028730969019122664">
          0 0 0 0 0 0
          0 0 0 0.0013555953668132337 0.00022128005212586344 0
          0.0008902229525294403 -0.0003539550927608298 0 0 0 0
          0 0 0 0 0 0
          0.0012709684584708558 -0.00013493055513613683 0 0.0021633566007800975 0.000002754928026298814 0
          0 0 0 0 0 0
          0 0 0 0 0 0
          0.0038387805946005216 -0.0002101893397998631 0 0.002652902037482474 -0.00002065390462485661 0
          0 0 0 0 0 0
          0.002947691063130642 -0.0013264703159583113 0 0.005524367826168497 -0.0014628929033796007 0
          0.0027636465714369063 -0.0001320227726400447 0 0 0 0
          0 0 0 0.0033760499322734727 -0.002037552872364623 0
          0.007160560289052764 -0.0034004177296858007 0 0.0033501254004578707 -0.0008402263442734426 0
          0 0 0 0 0 0
          0.0043163170086144564 -0.00315612690210193 0 0.007825071465231037 -0.005572925368252768 0
          0.007938205224564232 -0.00619546950174632 0 0.004649265031524852 -0.002249741333256533 0
          0 0 0 0 0 0
          0.00883720109089614 -0.007890900006368495 0 0.009537541870964894 -0.010142792165454995 0
          0.005777195415524128 -0.006108738438274197 0 0 0 0
          0.00988590198835615 -0.008339728445308447 0 0.012168691586972535 -0.014386220070746969 0
          0.009104748301282939 -0.013677253813614954 0 0.012694694846370425 -0.013247114914861635 0
          0.004781059300874135 -0.0076048277181992585 0 0.011723305708074339 -0.016662198746333567 0
          0.013645255156145897 -0.01704296802827132 0 0.010925683332042802 -0.01733481327330333 0
          0 0 0 0.014212631459142422 -0.01668905778709895 0
          0.0070592728510257 -0.013365261684982865 0 0.014654865960427532 -0.015506600242433 0
          0.01299233699980995 -0.018994609288202735 0 0.0031820167420825163 -0.006011230786833965 0
          0.009058275499303825 -0.017030594508536723 0 0.014958042145701178 -0.01944802312113114 0
          0.004969381690721919 -0.011282789856354558 0 0.011629248651977342 -0.019637080276498464 0
          0.016213096013689032 -0.01893797868000968 0 0.006974791759142063 -0.015868537205422584 0
          0.01413573374081567 -0.020939578898632405 0 0 0 0
          0.009527382610114099 -0.01905986512582314 0 0.002967358304561074 -0.008018624906625305 0
          0.016370512055293496 -0.02101097714917799 0 0.004284761885076316 -0.013233336055001432 0
          0.01231511274400221 -0.021123377686508515 0 0.018058466384489602 -0.020188996724637143 0
          0.006513137531306112 -0.01703246954180937 0 0.015239254884897857 -0.021985842635935393 0
          0.009592178406007346 -0.019821117924149867 0 0.01782694709478294 -0.021610693016637317 0
          0.0019899886976657566 -0.009249733914385105 0 0.012752577524016928 -0.021578617147725243 0
          0 0 0 0.0029716562378498956 -0.013144293728253542 0
          0.016316892111079007 -0.02206096909193067 0 0.005348507767284794 -0.016410382320036776 0
          0.00842664210942301 -0.018352606164287355 0 0.012630786210612754 -0.020474996209929763 0
          0 0 0 0.0013827510669890408 -0.01128318143208451 0
          0.00328517573613496 -0.012946159130573065 0 -0.0008056146677293263 -0.005693496692131483 0
          0.003533845664966506 -0.0105487381339745 0 0 0 0
          -0.00036035768540831903 -0.006846648497186525 0 -0.002084704045831498 -0.0036984491967949062 0
          -0.0015710857887947793 -0.0013652353518392724 0 0 0 0
          0.006695750442671455 -0.005797436458325089 0 0.013216391621499568 -0.01269625626522719 0
          0 0 0 0.01943715900576848 -0.0211581055522998 0
          0.020045331451872705 -0.020253668819194104 0 0.019259343995522205 -0.018434395615456456 0
          0.017057040613265073 -0.01770585134003133 0 0.016903456775109404 -0.02083667232308528 0
          0.00984753583650999 -0.014431167678094048 0
          <InformationKey name="L2_NORM_RANGE" location="vtkDataArray" length="2">
            <Value index="0">
              0
            </Value>
            <Value index="1">
              0.028730969019
            </Value>
          </InformationKey>
        </DataArray>
      </PointData>
      <CellData>
        <DataArray type="UInt8" Name="vtkGhostType" format="ascii" RangeMin="0" RangeMax="0">
          0 0 0 0 0 0
          0 0 0 0 0 0
          0 0 0 0 0 0
          0 0 0 0 0 0
          0 0 0 0 0 0
          0 0 0 0 0 0
          0 0 0 0 0 0
          0 0 0 0 0 0
          0 0 0 0 0 0
          0 0 0 0 0 0
          0 0 0 0 0 0
          0 0 0 0 0 0
          0 0 0 0 0 0
          0 0 0 0 0 0
          0 0 0 0 0 0
          0 0 0 0 0 0
          0 0 0 0 0 0
          0 0 0 0 0 0
          0 0 0 0 0 0
          0 0 0 0 0 0
          0 0 0 0 0 0
          0 0 0 0 0 0
          0 0 0 0 0 0
          0 0 0 0 0 0
          0 0 0 0 0 0
          0 0 0 0
        </DataArray>
        <DataArray type="Float64" Name="PStrain" NumberOfComponents="6" format="ascii" RangeMin="7.332232707452549e-8" RangeMax="0.4996968729471553">
          0.09999999999999999 0.09999999999999999 0 0.09999999999999999 0 0
          0.0000019286049254517362 0.0000019286049254517362 0 0.0000019286049254517362 0 0
          0.000009008740827142083 0.000009008740827142083 0 0.000009008740827142083 0 0
          0.0000017311147479758642 0.0000017311147479758642 0 0.0000017311147479758642 0 0
          0.0000017729646800745914 0.0000017729646800745914 0 0.0000017729646800745914 0 0
          2.55763630742079e-7 2.55763630742079e-7 0 2.55763630742079e-7 0 0
          0.000001174271480825238 0.000001174271480825238 0 0.000001174271480825238 0 0
          1.6601720671805193e-7 1.6601720671805193e-7 0 1.6601720671805193e-7 0 0
          5.542706832390008e-7 5.542706832390008e-7 0 5.542706832390008e-7 0 0
          4.813372743864365e-7 4.813372743864365e-7 0 4.813372743864365e-7 0 0
          1.2156803208587062e-7 1.2156803208587062e-7 0 1.2156803208587062e-7 0 0
          2.1668017639207515e-7 2.1668017639207515e-7 0 2.1668017639207515e-7 0 0
          0.000014390486941102189 0.000014390486941102189 0 0.000014390486941102189 0 0
          9.166084943333415e-8 9.166084943333415e-8 0 9.166084943333415e-8 0 0
          9.166084943333415e-8 9.166084943333415e-8 0 9.166084943333415e-8 0 0
          0.000014390486941102192 0.000014390486941102192 0 0.000014390486941102192 0 0
          4.233266527408708e-8 4.233266527408708e-8 0 4.233266527408708e-8 0 0
          0.000010588094203079596 0.000010588094203079596 0 0.000010588094203079596 0 0
          0.009594303513629044 0.009594303513629044 0 0.009594303513629044 0 0
          0.006103072212506557 0.006103072212506557 0 0.006103072212506557 0 0
          0.00888088272428103 0.00888088272428103 0 0.00888088272428103 0 0
          0.005012461580135177 0.005012461580135177 0 0.005012461580135177 0 0
          0.005842491509533854 0.005842491509533854 0 0.005842491509533854 0 0
          0.005713987795034046 0.005713987795034046 0 0.005713987795034046 0 0
          0.005533815232836566 0.005533815232836566 0 0.005533815232836566 0 0
          0.0030294459455339597 0.0030294459455339597 0 0.0030294459455339597 0 0
          0.0023095282687698253 0.0023095282687698253 0 0.0023095282687698253 0 0
          0.0042994152080380755 0.0042994152080380755 0 0.0042994152080380755 0 0
          0.005563525923215112 0.005563525923215112 0 0.005563525923215112 0 0
          0.0022052328202329385 0.0022052328202329385 0 0.0022052328202329385 0 0
          0.001073463921710312 0.001073463921710312 0 0.001073463921710312 0 0
          0.0026118895555216084 0.0026118895555216084 0 0.0026118895555216084 0 0
          0.0038833918339052304 0.0038833918339052304 0 0.0038833918339052304 0 0
          0.0018332278459334836 0.0018332278459334836 0 0.0018332278459334836 0 0
          0.004661996445806777 0.004661996445806777 0 0.004661996445806777 0 0
          0.0023168966379010078 0.0023168966379010078 0 0.0023168966379010078 0 0
          0.0025826204173322424 0.0025826204173322424 0 0.0025826204173322424 0 0
          0.0018601681952692393 0.0018601681952692393 0 0.0018601681952692393 0 0
          0.0006587462121358548 0.0006587462121358548 0 0.0006587462121358548 0 0
          0.0008614722362026166 0.0008614722362026166 0 0.0008614722362026166 0 0
          0.0009148609118442644 0.0009148609118442644 0 0.0009148609118442644 0 0
          0.0007510961091419326 0.0007510961091419326 0 0.0007510961091419326 0 0
          0.0010167718909319028 0.0010167718909319028 0 0.0010167718909319028 0 0
          0.0012266874220329856 0.0012266874220329856 0 0.0012266874220329856 0 0
          0.0023751300300145156 0.0023751300300145156 0 0.0023751300300145156 0 0
          0.0011506273645844967 0.0011506273645844967 0 0.0011506273645844967 0 0
          0.0008422516790122092 0.0008422516790122092 0 0.0008422516790122092 0 0
          0.0003293301696742924 0.0003293301696742924 0 0.0003293301696742924 0 0
          0.000283183307402533 0.000283183307402533 0 0.000283183307402533 0 0
          0.0003153869135721489 0.0003153869135721489 0 0.0003153869135721489 0 0
          0.0003454062085058677 0.0003454062085058677 0 0.0003454062085058677 0 0
          0.0002015954708044255 0.0002015954708044255 0 0.0002015954708044255 0 0
          0.0002560319435805495 0.0002560319435805495 0 0.0002560319435805495 0 0
          0.00012381468703265953 0.00012381468703265953 0 0.00012381468703265953 0 0
          0.0000811217066921281 0.0000811217066921281 0 0.0000811217066921281 0 0
          0.00007838439914760965 0.00007838439914760965 0 0.00007838439914760965 0 0
          0.00011095300870756042 0.00011095300870756042 0 0.00011095300870756042 0 0
          0.0003314037146876322 0.0003314037146876322 0 0.0003314037146876322 0 0
          0.00013846718013900948 0.00013846718013900948 0 0.00013846718013900948 0 0
          0.0004250511541209651 0.0004250511541209651 0 0.0004250511541209651 0 0
          0.000056413082753504966 0.000056413082753504966 0 0.000056413082753504966 0 0
          0.0000586365820953994 0.0000586365820953994 0 0.0000586365820953994 0 0
          0.0000912060428553997 0.0000912060428553997 0 0.0000912060428553997 0 0
          0.09546789427193254 0.09546789427193254 0 0.09546789427193254 0 0
          0.09747226066364434 0.09747226066364434 0 0.09747226066364434 0 0
          0.048259934486130036 0.048259934486130036 0 0.048259934486130036 0 0
          0.11956143150986101 0.11956143150986101 0 0.11956143150986101 0 0
          0.1419931510422736 0.1419931510422736 0 0.1419931510422736 0 0
          0.10492810729269292 0.10492810729269292 0 0.10492810729269292 0 0
          0.07801025799604702 0.07801025799604702 0 0.07801025799604702 0 0
          0.16159742373759617 0.16159742373759617 0 0.16159742373759617 0 0
          0.053369888329585884 0.053369888329585884 0 0.053369888329585884 0 0
          0.05789956378509424 0.05789956378509424 0 0.05789956378509424 0 0
          0.02995927936060315 0.02995927936060315 0 0.02995927936060315 0 0
          0.04428535607826474 0.04428535607826474 0 0.04428535607826474 0 0
          0.026013726724775095 0.026013726724775095 0 0.026013726724775095 0 0
          0.058202074931957545 0.058202074931957545 0 0.058202074931957545 0 0
          0.07154437836003907 0.07154437836003907 0 0.07154437836003907 0 0
          0.08076786012399076 0.08076786012399076 0 0.08076786012399076 0 0
          0.04614596368081282 0.04614596368081282 0 0.04614596368081282 0 0
          0.0532773449559185 0.0532773449559185 0 0.0532773449559185 0 0
          0.041576532505710376 0.041576532505710376 0 0.041576532505710376 0 0
          0.08285505812812552 0.08285505812812552 0 0.08285505812812552 0 0
          0.03056487605449152 0.03056487605449152 0 0.03056487605449152 0 0
          0.029950049317735324 0.029950049317735324 0 0.029950049317735324 0 0
          0.018109258847479277 0.018109258847479277 0 0.018109258847479277 0 0
          0.03369755409599903 0.03369755409599903 0 0.03369755409599903 0 0
          0.018699519851646664 0.018699519851646664 0 0.018699519851646664 0 0
          0.031083980458164684 0.031083980458164684 0 0.031083980458164684 0 0
          0.04782240200111178 0.04782240200111178 0 0.04782240200111178 0 0
          0.0508138336606757 0.0508138336606757 0 0.0508138336606757 0 0
          0.030691872334129372 0.030691872334129372 0 0.030691872334129372 0 0
          0.04211837862358132 0.04211837862358132 0 0.04211837862358132 0 0
          0.02747406002735029 0.02747406002735029 0 0.02747406002735029 0 0
          0.028990345013399074 0.028990345013399074 0 0.028990345013399074 0 0
          0.02265872985569271 0.02265872985569271 0 0.02265872985569271 0 0
          0.018589657649507298 0.018589657649507298 0 0.018589657649507298 0 0
          0.010381393822188237 0.010381393822188237 0 0.010381393822188237 0 0
          0.016297441781078437 0.016297441781078437 0 0.016297441781078437 0 0
          0.013943450254478167 0.013943450254478167 0 0.013943450254478167 0 0
          0.05698566999961513 0.05698566999961513 0 0.05698566999961513 0 0
          0.017341841893627766 0.017341841893627766 0 0.017341841893627766 0 0
          0.01949225070478807 0.01949225070478807 0 0.01949225070478807 0 0
          0.013388298447411105 0.013388298447411105 0 0.013388298447411105 0 0
          0.04855018289394898 0.04855018289394898 0 0.04855018289394898 0 0
          0.06297216065958536 0.06297216065958536 0 0.06297216065958536 0 0
          0.01813370978791838 0.01813370978791838 0 0.01813370978791838 0 0
          0.03505977024314867 0.03505977024314867 0 0.03505977024314867 0 0
          0.02981149484657588 0.02981149484657588 0 0.02981149484657588 0 0
          0.01846668333487484 0.01846668333487484 0 0.01846668333487484 0 0
          0.022109360232337807 0.022109360232337807 0 0.022109360232337807 0 0
          0.01146262195479975 0.01146262195479975 0 0.01146262195479975 0 0
          0.035214513893848706 0.035214513893848706 0 0.035214513893848706 0 0
          0.021307199755790884 0.021307199755790884 0 0.021307199755790884 0 0
          0.01750871274622636 0.01750871274622636 0 0.01750871274622636 0 0
          0.013681427548886498 0.013681427548886498 0 0.013681427548886498 0 0
          0.008386916914265212 0.008386916914265212 0 0.008386916914265212 0 0
          0.04133101462383132 0.04133101462383132 0 0.04133101462383132 0 0
          0.020240615768967372 0.020240615768967372 0 0.020240615768967372 0 0
          0.011527971591089172 0.011527971591089172 0 0.011527971591089172 0 0
          0.016151173654759765 0.016151173654759765 0 0.016151173654759765 0 0
          0.041270515533135 0.041270515533135 0 0.041270515533135 0 0
          0.02551691937517004 0.02551691937517004 0 0.02551691937517004 0 0
          0.02558100055583131 0.02558100055583131 0 0.02558100055583131 0 0
          0.011818453920411642 0.011818453920411642 0 0.011818453920411642 0 0
          0.024762138761064065 0.024762138761064065 0 0.024762138761064065 0 0
          0.01582489311342835 0.01582489311342835 0 0.01582489311342835 0 0
          0.026954794020234527 0.026954794020234527 0 0.026954794020234527 0 0
          0.019051783809041004 0.019051783809041004 0 0.019051783809041004 0 0
          0.015190528347882395 0.015190528347882395 0 0.015190528347882395 0 0
          0.012159843991339212 0.012159843991339212 0 0.012159843991339212 0 0
          0.01922440545045932 0.01922440545045932 0 0.01922440545045932 0 0
          0.011263984156996063 0.011263984156996063 0 0.011263984156996063 0 0
          0.00734011000368236 0.00734011000368236 0 0.00734011000368236 0 0
          0.007717409178892642 0.007717409178892642 0 0.007717409178892642 0 0
          0.012188688535809612 0.012188688535809612 0 0.012188688535809612 0 0
          0.012968846267778677 0.012968846267778677 0 0.012968846267778677 0 0
          0.03027620258039085 0.03027620258039085 0 0.03027620258039085 0 0
          0.28850012410925435 0.28850012410925435 0 0.28850012410925435 0 0
          0.2668605974016711 0.2668605974016711 0 0.2668605974016711 0 0
          0.15610037314328667 0.15610037314328667 0 0.15610037314328667 0 0