<?xml version="1.0"?>
<VTKFile type="UnstructuredGrid" version="0.1" byte_order="LittleEndian" header_type="UInt32" compressor="vtkZLibDataCompressor">
  <UnstructuredGrid>
    <Piece NumberOfPoints="97" NumberOfCells="154">
      <PointData>
        <DataArray type="Float64" Name="Velocity" NumberOfComponents="3" format="ascii" RangeMin="0" RangeMax="2.7937620482725998">
          1.0535147847147996 0.020896326004857347 0 1.0971733463887654 0 0
          0.9713520449497324 -0.013249988925527416 0 0.979988344305264 -0.020931929986469356 0
          0.9705904698902486 -0.018449661509085086 0 1.2026127762782457 0 0
          0.9868189521093066 0.00018339940152684733 0 0.956797792695224 0 0
          0.9622029302636468 0.007965737297442753 0 0.9363600402306359 -0.04728275151715752 0
          1.4029107206718385 0 0 0.9291980154581483 0 0
          0.8164881012827455 0 0 2.0021578701886686 0 0
          0.9073379566575882 -0.6224488381060402 0 1.9212749986662567 -0.4304823792692437 0
          0.17265136493721991 0 0 2.576633125024064 0 0
          0.12286590336032131 -0.5568158035804468 0 1.2084024738706172 -0.572235470439508 0
          2.451488837141103 -0.19125202354122045 0 -0.40115679325974757 0 0
          2.7519826986315747 0 0 -0.3785710970590792 -0.4878309700542476 0
          1.1280463178130857 -0.34590021808632515 0 2.702459655264224 -0.06147814643949161 0
          -1.0377273920377796 0 0 2.7546397504949485 0 0
          -0.6767882637196644 -0.06634701273281014 0 1.7304741596610163 -0.1417724614902195 0
          0.22433845540984043 -0.016857173600634514 0 2.7937485736010403 0.00867697357756041 0
          -1.1077600194507202 0 0 2.708543871109768 0 0
          2.059384835635407 -0.10086601805827371 0 0.3755713427850068 0.1360485246747562 0
          -0.6587839003315459 0.12660667645326404 0 -0.9551208114194795 0 0
          2.747958348664518 0.10812466370504878 0 0.8121769873221287 0.2047585975245237 0
          -0.2015486781249974 0.3203449206165932 0 2.089503516432277 0.12063991729290259 0
          -0.5565314562001351 0.20659590863131563 0 0.32927422086833785 0.3758529851125537 0
          0.6661086185668824 0.28605443239481165 0 0.053686702504659685 0.4131940768189628 0
          -0.6728024249177522 0 0 1.2664610277076205 0.15108431243809503 0
          -0.3038023385852227 0.3212624861390903 0 2.024398108570735 0.2214956759167551 0
          0.3034102224270955 0.4145474960235958 0 -0.4848751143523433 0.16901627680068212 0
          -0.09905242695385415 0.3917272588071278 0 0.4689345693196035 0.297786970471503 0
          -0.3656075034840183 0.28401355045414567 0 0.10171140996162505 0.42101502737334695 0
          1.080969735591214 0.2539357385391582 0 -0.20217733829863774 0.36073522001255454 0
          0.249437978272338 0.3796721387343305 0 -0.3982164880032861 0 0
          -0.03095883071881991 0.40298580554779884 0 -0.31040249249114477 0.170462084428247 0
          0.36479564997610975 0.29788307273040876 0 -0.22952742889619557 0.2674948220416401 0
          0.11751117402540019 0.4111130567005025 0 1.0157991330703777 0.26109334773085385 0
          -0.10546849488386557 0.3322562127481515 0 0.2019010246885738 0.3818395281654388 0
          0.032138688148525614 0.37304868213076925 0 0.27776461576461303 0.3098106485804969 0
          -0.17289203248621424 0.14609990093776773 0 0.13022503871612967 0.3713398916643214 0
          -0.2047695503032546 0 0 -0.11838330136511087 0.22277455413251082 0
          0.15044421825642948 0.31079417178605223 0 -0.016227040805794644 0.2960019174925076 0
          0.061088951072232084 0.3023438807857596 0 0.09716378128205093 0.27375878216089206 0
          -0.07534938048385746 0 0 -0.023453465331839465 0.17532366048040637 0
          0.03123701850595357 0.17115649622674892 0 -0.021609221381020137 0.061695152127062114 0
          -0.004859922306885598 0.006455376019179121 0 -0.018860498324771068 0 0
          -0.0047782879567623985 0.005179905719279671 0 -0.003710690062566526 0.0037179027398810127 0
          -0.0015241712739477791 0.0020817676458886845 0 0 0 0
          2.6025025446399566 0.183523170106075 0 2.7120299794031353 0.2926052459795643 0
          2.6223085257340744 0 0 0.2858373544075138 0.2670584382001161 0
          1.023362485965735 0.3493316207756307 0 2.0108289548668736 0.37924328699967613 0
          1.9664445491961273 0.3781906553200313 0 0.06624788540777382 0.19894779377111746 0
          -0.004262113185625352 0.007331060852989572 0
          <InformationKey name="L2_NORM_RANGE" location="vtkDataArray" length="2">
            <Value index="0">
              0
            </Value>
            <Value index="1">
              2.7937620483
            </Value>
          </InformationKey>
        </DataArray>
        <DataArray type="Float64" Name="Pressure" format="ascii" RangeMin="-3.8746788694917513" RangeMax="0.14097097193778688">
          -0.05673313068820525 -0.008080628459100282 -0.007104714614524615 -0.012609903363919206 -0.03676089060759535 0.05527350538791292
          -0.004303249890963176 -0.03406623791175348 -0.07082467847089138 -0.0954593836069993 -0.12880041053911268 -0.07317885849181996
          0.14097097193778688 -0.3709605722430587 -0.3619831600061129 -1.2591122064807692 -0.14355734589091987 -1.7997124445754444
          -1.0526742266861693 -2.17479825010079 -2.324407173697918 -1.264528992865372 -2.693496382747659 -2.351488363093056
          -3.5036859648684353 -2.9218544477896606 -2.8181294919832864 -2.8888419300641917 -3.569755927240971 -3.7047458661352937
          -3.8746788694917513 -3.003328485564258 -3.4931492175706604 -2.6698076894291165 -3.5312897912505217 -3.8652145881188575
          -3.757435854073171 -3.3830427491378963 -3.0170211911719753 -3.5978984047635256 -3.5679324925529374 -3.1024393897002587
          -3.24670022856338 -3.4406655195570264 -3.330103007370481 -3.3255012068162255 -3.054141067704417 -3.163455524630248
          -3.1975355606778817 -2.9135349516391402 -3.2390255587866683 -3.0071117955106 -3.1620283456426566 -3.135697260416182
          -3.0070449993298927 -3.116310798777845 -3.0289171321884854 -3.009184133690754 -3.0436904458935032 -2.8375080881123522
          -2.9921633773849714 -2.8526048153890065 -2.9608361260985587 -2.861976624577718 -2.9577113793167427 -2.832978366160475
          -2.8693045281382146 -2.908071120110419 -2.8643205166917625 -2.8411702527801186 -2.762568088906074 -2.8431621685016504
          -2.749059859202317 -2.7684695215095205 -2.8041281948513044 -2.776850164670828 -2.7673426893396162 -2.751484371758421
          -2.727731117037272 -2.7269370687853733 -2.7289789705310357 -2.7234343633538924 -2.7023432629840296 -2.7284508440382136
          -2.7200977839561538 -2.7308509264613456 -2.7360043050729534 -2.7336951827884426 -1.8492434938342088 -2.435996856954518
          -2.082964439366845 -2.7459088668659497 -2.7097215630996936 -2.5088552883606448 -2.799272415861761 -2.6806224680170514
          -2.6852321879583227
        </DataArray>
        <DataArray type="Float64" Name="BTraction" NumberOfComponents="3" format="ascii" RangeMin="0" RangeMax="3.3709644559037306">
          0.021360149244831518 0.020675830575238002 0 0.003504104188817576 0.006897340428162317 0
          0.014061763852601475 0.0010180984502030689 0 0 0 0
          0 0 0 0.006878848290104571 -0.012345784198105392 0
          0.0026792031425936337 -0.0060893566260319205 0 -0.0005815609844605765 -0.03435144099562346 0
          0 0 0 0 0 0
          0.015005725464290848 0.1520468172852411 0 -0.0009075132667298158 -0.030597143847483972 0
          -0.007545306676974284 0.07003065140490639 0 0.02029221624870075 0.5682315959316218 0
          0 0 0 0 0 0
          -0.013582159564880271 -0.22254647335046507 0 0.015544231511822996 1.6894721451457755 0
          0 0 0 0 0 0
          0 0 0 -0.014060179822824974 -1.2270505121989363 0
          0.007162084563659693 2.574848270453693 0 0 0 0
          0 0 0 0 0 0
          -0.017619595388384608 -2.6081421548760524 0 0.00010695842850448596 2.823312788767666 0
          0 0 0 0 0 0
          0 0 0 0 0 0
          -0.019730162904307617 -3.35770821520958 0 -0.003135528774769602 2.6088122343778584 0
          0 0 0 0 0 0
          0 0 0 -0.01565526860691545 -3.3709281029905074 0
          0 0 0 0 0 0
          0 0 0 0 0 0
          0 0 0 0 0 0
          0 0 0 0 0 0
          -0.011187375182325722 -3.1176650637213084 0 0 0 0
          0 0 0 0 0 0
          0 0 0 0 0 0
          0 0 0 0 0 0
          0 0 0 0 0 0
          0 0 0 0 0 0
          0 0 0 -0.007896729083179588 -2.8994338050057262 0
          0 0 0 0 0 0
          0 0 0 0 0 0
          0 0 0 0 0 0
          0 0 0 0 0 0
          0 0 0 0 0 0
          0 0 0 0 0 0
          -0.003939205976351773 -2.7919206706934023 0 0 0 0
          0 0 0 0 0 0
          0 0 0 0 0 0
          -0.0014508575144722019 -2.751705194736014 0 0 0 0
          0 0 0 0 0 0
          -2.5944990910583186 0.7575561449358802 0 -0.00041054949404868593 -2.7357838285870035 0
          -2.6138508453223444 0.718763768860231 0 -2.6441359724415 0.6321916894460663 0
          -2.691288310694355 0.4208892752578511 0 -1.3114967446623924 -1.2861453385985315 0
          0 0 0 0 0 0
          -0.00556426642049565 1.924641515734489 0 0 0 0
          0 0 0 0 0 0
          0 0 0 0 0 0
          -2.540841572250685 0.7611429379022138 0
          <InformationKey name="L2_NORM_RANGE" location="vtkDataArray" length="2">
            <Value index="0">
              0
            </Value>
            <Value index="1">
              3.3709644559
            </Value>
          </InformationKey>
        </DataArray>
        <DataArray type="Float64" Name="ALEdispl" NumberOfComponents="3" format="ascii" RangeMin="0" RangeMax="2.5287830772468425">
          0 0 0 0 0 0
          0 0 0 0.20033901901696477 0.03338786703388604 0
          0.1310519641447525 -0.05164581855632393 0 0 0 0
          0 0 0 0 0 0
          0.18716109701729755 -0.018207013138871655 0 0.3197147583150039 0.004187962560585748 0
          0 0 0 0 0 0
          0 0 0 0 0 0
          0.5647432125452486 0.008614753793054958 0 0.4090983840340778 0.06833514638761846 0
          0 0 0 0 0 0
          0.41852883298503935 -0.13337012433048026 0 0.8235100673416283 -0.05910952682438945 0
          0.4387826375105686 0.09255974982841515 0 0 0 0
          0 0 0 0.4658616809268947 -0.19796013816199207 0
          1.0537303430079497 -0.14930086313261745 0 0.5405603449268777 0.08666255723640236 0
          0 0 0 0 0 0
          0.5963715522824566 -0.2674403655460504 0 1.1758943866834555 -0.18733241088321875 0
          1.1347408335751552 -0.3651503134742914 0 0.7082062866219502 0.04970411716779686 0
          0 0 0 0 0 0
          1.296606169312633 -0.24251752554393013 0 1.3998212116112967 -0.5193772666004246 0
          0.8058217503579584 -0.45134482956415206 0 0 0 0
          1.3399512029292593 -0.1403010404296437 0 1.7389175861462325 -0.58208064994527 0
          1.3825009970604278 -0.7604465826709802 0 1.6865094071621831 -0.38253832324553455 0
          0.6961623428566953 -0.4988965031551646 0 1.722017622947788 -0.7556878434790941 0
          1.902012063049344 -0.6660123962155569 0 1.641755110627178 -0.8316053890928606 0
          0 0 0 1.9076998843118975 -0.5822907135117005 0
          1.1276433386204834 -0.7380735480480327 0 1.8752284353543416 -0.48210237353730695 0
          1.8810262793174553 -0.8122594279703506 0 0.47544016660189503 -0.376261673309003 0
          1.4560018287545196 -0.8476042194049448 0 2.0461049278980257 -0.7407365221157948 0
          0.8573502647566348 -0.6313987924609934 0 1.7730142606685793 -0.8792239560100931 0
          2.099041653645608 -0.6522754795031165 0 1.2270742578916112 -0.8022830196103271 0
          2.0242282076483913 -0.8437346233454072 0 0 0 0
          1.5758918736510936 -0.8733244472735309 0 0.5405662465318231 -0.44316334722541023 0
          2.190093336233405 -0.7648117929581276 0 0.914444728558735 -0.6735857115752711 0
          1.8943872614388315 -0.8759731233713961 0 2.2586924201452985 -0.6771185666957767 0
          1.2910666517503946 -0.7916852276428797 0 2.153076260820436 -0.824676460846993 0
          1.6595902074421502 -0.8295917804203309 0 2.32075468833677 -0.7395144395291947 0
          0.5489662727969546 -0.45317584056726684 0 1.9940293627814225 -0.8190976981733842 0
          0 0 0 0.9145236241743281 -0.6206394934281592 0
          2.2678023437163626 -0.757611548199802 0 1.3074787718964722 -0.6947018547736721 0
          1.6549502393198179 -0.6838734320340958 0 2.052190176684766 -0.6953510122610458 0
          0 0 0 0.8921156321505448 -0.4903955911917509 0
          1.2963001867051283 -0.4998118283187329 0 0.36815313063647914 -0.26412935273272325 0
          1.4758444521724587 -0.32805740366401864 0 0 0 0
          0.9385857340503916 -0.24088293024636417 0 0.46506484174785057 -0.15645156831097015 0
          0.13697495250481803 -0.07970439761101444 0 0 0 0
          0.8241496152563197 -0.09639185874431361 0 1.6240347571418945 -0.3468473794144429 0
          0 0 0 2.4394226838548603 -0.6663038505549556 0
          2.3985053380281807 -0.6441110416685025 0 2.2433805146692976 -0.5854344168913541 0
          2.0812464546234324 -0.5594598837087555 0 2.346425920105711 -0.6376440786090836 0
          1.9672597622063992 -0.4061516974251658 0
          <InformationKey name="L2_NORM_RANGE" location="vtkDataArray" length="2">
            <Value index="0">
              0
            </Value>
            <Value index="1">
              2.5287830772
            </Value>
          </InformationKey>
        </DataArray>
        <DataArray type="Float64" Name="ALEveloc" NumberOfComponents="3" format="ascii" RangeMin="0" RangeMax="0.008479980071790415">
          0 0 0 0 0 0
          0 0 0 -0.00014534090053941462 -0.000024209794842890153 0
          -0.00009547893037187283 0.000037507399613945225 0 0 0 0
          0 0 0 0 0 0
          -0.00013671117932284593 0.000014678671624183959 0 -0.00023188820667346954 1.1971409990922666e-7 0
          0 0 0 0 0 0
          0 0 0 0 0 0
          -0.0004203292669973102 0.00009291991471089764 0 -0.00029082863742613263 0.00011411535754118907 0
          0 0 0 0 0 0
          -0.00031353205978124077 0.0002509206065206826 0 -0.0006051667292776841 0.0003680250113154149 0
          -0.00026355966837521283 0.00022329912763041637 0 0 0 0
          0 0 0 -0.0003826871096814788 0.00039123437880606016 0
          -0.0008167422120930468 0.000853746001084954 0 -0.00025891438960978785 0.00043430137336511465 0
          0 0 0 0 0 0
          -0.0005187759196236819 0.0005826347640858209 0 -0.0008339277890518915 0.0013286038893594587 0
          -0.0009878158965537231 0.0011566079238630733 0 -0.00027177984615711637 0.0007959345851087929 0
          0 0 0 0 0 0
          -0.0009719655967828089 0.0017573775573018202 0 -0.0012274116553978587 0.0019501746986173574 0
          -0.0008565640477773417 0.0010011781663755714 0 0 0 0
          -0.0006275978866576715 0.002281293119850064 0 -0.0016402912919173396 0.002835854505380042 0
          -0.0018464442966390493 0.002522062103815337 0 -0.0010934000537887734 0.00308877605641511 0
          -0.0010154225706620057 0.0013827110155906208 0 -0.0020408375560716507 0.003214576526875179 0
          -0.0018709975670745393 0.0035016386616751882 0 -0.0023370476054269673 0.0033448175078956144 0
          0 0 0 -0.0016022509975317512 0.0036716001288794597 0
          -0.0018602709000403728 0.0025483206043943607 0 -0.0012521445800075526 0.0037222158414510487 0
          -0.0023933848465080843 0.0038454216882162218 0 -0.0008265412304836461 0.0011873492366852867 0
          -0.0024322086957542233 0.003378618094446617 0 -0.002201020929213815 0.004205953209774682 0
          -0.0016295228379437088 0.002273456417435815 0 -0.0027880434209603955 0.004082956343667732 0
          -0.0018828961926971033 0.004418124310256677 0 -0.002436202538265153 0.0033302980789113867 0
          -0.002810462472755404 0.004595381674872945 0 0 0 0
          -0.002972987359950441 0.004185370484800499 0 -0.001150074689009628 0.0017017264833132373 0
          -0.002535280334551082 0.00495652326685736 0 -0.0021922843060844244 0.0030264526910896983 0
          -0.003249970446899564 0.004864941990683214 0 -0.002178772198732748 0.005151884162113207 0
          -0.0030110054746699255 0.004108500189748954 0 -0.0031975568719504466 0.005382933750373464 0
          -0.0034744299292230885 0.004970352113708776 0 -0.0028532507137115637 0.00573784034846736 0
          -0.0014760327662367567 0.0021563691428930776 0 -0.0036642206123764787 0.005678984641082296 0
          0 0 0 -0.002791750157705053 0.003747613804038097 0
          -0.003531656002740302 0.0062069973215068686 0 -0.0036187867991694933 0.004833676146893895 0
          -0.003961966685069207 0.005712407346942561 0 -0.003953807494364803 0.006476575067413171 0
          0 0 0 -0.0034487933628235545 0.004260981957520005 0
          -0.004357975637476752 0.00546053414018266 0 -0.001949506230270015 0.002806782599393709 0
          -0.004859922306231557 0.006455376018310366 0 0 0 0
          -0.0047782879561193425 0.005179905718582567 0 -0.0037106900620671457 0.003717902739380663 0
          -0.0015241712737426583 0.0020817676456085232 0 0 0 0
          -0.0002602048905686605 0.0017716662361396684 0 -0.0007823311718500037 0.0033111333943600663 0
          0 0 0 -0.003150885932302838 0.006544135124569417 0
          -0.0024843181770219935 0.005886444242041544 0 -0.0018309642009954885 0.005117331268291947 0
          -0.001552472148368178 0.004460133875830108 0 -0.003810224013594432 0.007061126559844033 0
          -0.0042621131850517635 0.0073310608520029685 0
          <InformationKey name="L2_NORM_RANGE" location="vtkDataArray" length="2">
            <Value index="0">
              0
            </Value>
            <Value index="1">
              0.0084799800718
            </Value>
          </InformationKey>
        </DataArray>
      </PointData>
      <CellData>
        <DataArray type="UInt8" Name="vtkGhostType" format="ascii" RangeMin="0" RangeMax="0">
          0 0 0 0 0 0
          0 0 0 0 0 0
          0 0 0 0 0 0
          0 0 0 0 0 0
          0 0 0 0 0 0
          0 0 0 0 0 0
          0 0 0 0 0 0
          0 0 0 0 0 0
          0 0 0 0 0 0
          0 0 0 0 0 0
          0 0 0 0 0 0
          0 0 0 0 0 0
          0 0 0 0 0 0
          0 0 0 0 0 0
          0 0 0 0 0 0
          0 0 0 0 0 0
          0 0 0 0 0 0
          0 0 0 0 0 0
          0 0 0 0 0 0
          0 0 0 0 0 0
          0 0 0 0 0 0
          0 0 0 0 0 0
          0 0 0 0 0 0
          0 0 0 0 0 0
          0 0 0 0 0 0
          0 0 0 0
        </DataArray>
        <DataArray type="Float64" Name="PStrain" NumberOfComponents="6" format="ascii" RangeMin="6.84316894869262e-8" RangeMax="0.46542252482610086">
          0.09999999999999999 0.09999999999999999 0 0.09999999999999999 0 0
          0.000001799944549353497 0.000001799944549353497 0 0.000001799944549353497 0 0
          0.00000840711844334998 0.00000840711844334998 0 0.00000840711844334998 0 0
          0.0000016156125342832838 0.0000016156125342832838 0 0.0000016156125342832838 0 0
          0.0000016546919191111206 0.0000016546919191111206 0 0.0000016546919191111206 0 0
          2.387015604406013e-7 2.387015604406013e-7 0 2.387015604406013e-7 0 0
          0.0000010959328600887605 0.0000010959328600887605 0 0.0000010959328600887605 0 0
          1.5494506448139416e-7 1.5494506448139416e-7 0 1.5494506448139416e-7 0 0
          5.173052611797107e-7 5.173052611797107e-7 0 5.173052611797107e-7 0 0
          4.4923338669858614e-7 4.4923338669858614e-7 0 4.4923338669858614e-7 0 0
          1.1345806859287988e-7 1.1345806859287988e-7 0 1.1345806859287988e-7 0 0
          2.022251694692473e-7 2.022251694692473e-7 0 2.022251694692473e-7 0 0
          0.00001343055501115086 0.00001343055501115086 0 0.00001343055501115086 0 0
          8.554708483212771e-8 8.554708483212771e-8 0 8.554708483212771e-8 0 0
          8.554708483212771e-8 8.554708483212771e-8 0 8.554708483212771e-8 0 0
          0.00001343055501115086 0.00001343055501115086 0 0.00001343055501115086 0 0
          3.950905434637773e-8 3.950905434637773e-8 0 3.950905434637773e-8 0 0
          0.000009882422550726918 0.000009882422550726918 0 0.000009882422550726918 0 0
          0.009020125211821509 0.009020125211821509 0 0.009020125211821509 0 0
          0.005747475936832962 0.005747475936832962 0 0.005747475936832962 0 0
          0.00825142004063319 0.00825142004063319 0 0.00825142004063319 0 0
          0.004698050126250004 0.004698050126250004 0 0.004698050126250004 0 0
          0.005440915762435208 0.005440915762435208 0 0.005440915762435208 0 0
          0.005303029679830245 0.005303029679830245 0 0.005303029679830245 0 0
          0.005148564032400804 0.005148564032400804 0 0.005148564032400804 0 0
          0.002818773192332575 0.002818773192332575 0 0.002818773192332575 0 0
          0.002154412485133351 0.002154412485133351 0 0.002154412485133351 0 0
          0.004013161310064431 0.004013161310064431 0 0.004013161310064431 0 0
          0.005199166285463614 0.005199166285463614 0 0.005199166285463614 0 0
          0.002065072264694829 0.002065072264694829 0 0.002065072264694829 0 0
          0.000999531401834703 0.000999531401834703 0 0.000999531401834703 0 0
          0.0024357488192081472 0.0024357488192081472 0 0.0024357488192081472 0 0
          0.003647966958003631 0.003647966958003631 0 0.003647966958003631 0 0
          0.0017180239638733721 0.0017180239638733721 0 0.0017180239638733721 0 0
          0.004354370524771628 0.004354370524771628 0 0.004354370524771628 0 0
          0.0021740720305302923 0.0021740720305302923 0 0.0021740720305302923 0 0
          0.0024179589937126764 0.0024179589937126764 0 0.0024179589937126764 0 0
          0.0017369077228687273 0.0017369077228687273 0 0.0017369077228687273 0 0
          0.0006148395840034281 0.0006148395840034281 0 0.0006148395840034281 0 0
          0.0008053166925397683 0.0008053166925397683 0 0.0008053166925397683 0 0
          0.0008559287181028798 0.0008559287181028798 0 0.0008559287181028798 0 0
          0.0007030045676579687 0.0007030045676579687 0 0.0007030045676579687 0 0
          0.0009469820091718476 0.0009469820091718476 0 0.0009469820091718476 0 0
          0.0011432473505600944 0.0011432473505600944 0 0.0011432473505600944 0 0
          0.0022083201668115712 0.0022083201668115712 0 0.0022083201668115712 0 0
          0.0010756883354636245 0.0010756883354636245 0 0.0010756883354636245 0 0
          0.000784092364356015 0.000784092364356015 0 0.000784092364356015 0 0
          0.0003076455482566029 0.0003076455482566029 0 0.0003076455482566029 0 0
          0.0002647160429407236 0.0002647160429407236 0 0.0002647160429407236 0 0
          0.00029393228098757826 0.00029393228098757826 0 0.00029393228098757826 0 0
          0.0003219712733571916 0.0003219712733571916 0 0.0003219712733571916 0 0
          0.0001884757481869658 0.0001884757481869658 0 0.0001884757481869658 0 0
          0.00023857321857075818 0.00023857321857075818 0 0.00023857321857075818 0 0
          0.00011559014750565303 0.00011559014750565303 0 0.00011559014750565303 0 0
          0.0000757655767923804 0.0000757655767923804 0 0.0000757655767923804 0 0
          0.0000730992118761211 0.0000730992118761211 0 0.0000730992118761211 0 0
          0.00010349407803396173 0.00010349407803396173 0 0.00010349407803396173 0 0
          0.00030927349508011947 0.00030927349508011947 0 0.00030927349508011947 0 0
          0.00012922404669283617 0.00012922404669283617 0 0.00012922404669283617 0 0
          0.00039673937500106537 0.00039673937500106537 0 0.00039673937500106537 0 0
          0.000052600523285701925 0.000052600523285701925 0 0.000052600523285701925 0 0
          0.00005477102555071319 0.00005477102555071319 0 0.00005477102555071319 0 0
          0.00008515797521580927 0.00008515797521580927 0 0.00008515797521580927 0 0
          0.08932534291585975 0.08932534291585975 0 0.08932534291585975 0 0
          0.09126151537243275 0.09126151537243275 0 0.09126151537243275 0 0
          0.045277788758820464 0.045277788758820464 0 0.045277788758820464 0 0
          0.11148203344831364 0.11148203344831364 0 0.11148203344831364 0 0
          0.13184904443597717 0.13184904443597717 0 0.13184904443597717 0 0
          0.09763354009299871 0.09763354009299871 0 0.09763354009299871 0 0
          0.07254849035717213 0.07254849035717213 0 0.07254849035717213 0 0
          0.1495723353834006 0.1495723353834006 0 0.1495723353834006 0 0
          0.04989860502907231 0.04989860502907231 0 0.04989860502907231 0 0
          0.05417205399929356 0.05417205399929356 0 0.05417205399929356 0 0
          0.02808627123715439 0.02808627123715439 0 0.02808627123715439 0 0
          0.04158150816756873 0.04158150816756873 0 0.04158150816756873 0 0
          0.024440258800831834 0.024440258800831834 0 0.024440258800831834 0 0
          0.054285748651247245 0.054285748651247245 0 0.054285748651247245 0 0
          0.0663171340749433 0.0663171340749433 0 0.0663171340749433 0 0
          0.07498068152782308 0.07498068152782308 0 0.07498068152782308 0 0
          0.0428576280867299 0.0428576280867299 0 0.0428576280867299 0 0
          0.04963328364931201 0.04963328364931201 0 0.04963328364931201 0 0
          0.038698027547962276 0.038698027547962276 0 0.038698027547962276 0 0
          0.07681971437677342 0.07681971437677342 0 0.07681971437677342 0 0
          0.02856967573656089 0.02856967573656089 0 0.02856967573656089 0 0
          0.028083863327499993 0.028083863327499993 0 0.028083863327499993 0 0
          0.01700997398861374 0.01700997398861374 0 0.01700997398861374 0 0
          0.03151414988163629 0.03151414988163629 0 0.03151414988163629 0 0
          0.017518909968405043 0.017518909968405043 0 0.017518909968405043 0 0
          0.028994746542893753 0.028994746542893753 0 0.028994746542893753 0 0
          0.044342838201128366 0.044342838201128366 0 0.044342838201128366 0 0
          0.047166128668335194 0.047166128668335194 0 0.047166128668335194 0 0
          0.028488579513872153 0.028488579513872153 0 0.028488579513872153 0 0
          0.03916488923509349 0.03916488923509349 0 0.03916488923509349 0 0
          0.025537767865999192 0.025537767865999192 0 0.025537767865999192 0 0
          0.027027379990947592 0.027027379990947592 0 0.027027379990947592 0 0
          0.021103609448930867 0.021103609448930867 0 0.021103609448930867 0 0
          0.017416563540995876 0.017416563540995876 0 0.017416563540995876 0 0
          0.009730181357732416 0.009730181357732416 0 0.009730181357732416 0 0
          0.015322861444078292 0.015322861444078292 0 0.015322861444078292 0 0
          0.013068966979854203 0.013068966979854203 0 0.013068966979854203 0 0
          0.052811998612723635 0.052811998612723635 0 0.052811998612723635 0 0
          0.01620501472982186 0.01620501472982186 0 0.01620501472982186 0 0
          0.018225272096107838 0.018225272096107838 0 0.018225272096107838 0 0
          0.012547668152237696 0.012547668152237696 0 0.012547668152237696 0 0
          0.04495702425186082 0.04495702425186082 0 0.04495702425186082 0 0
          0.058287074253656104 0.058287074253656104 0 0.058287074253656104 0 0
          0.0169094951966903 0.0169094951966903 0 0.0169094951966903 0 0
          0.0324975480563441 0.0324975480563441 0 0.0324975480563441 0 0
          0.027695338974067278 0.027695338974067278 0 0.027695338974067278 0 0
          0.017157905997077366 0.017157905997077366 0 0.017157905997077366 0 0
          0.020581277373547334 0.020581277373547334 0 0.020581277373547334 0 0
          0.01066602225801878 0.01066602225801878 0 0.01066602225801878 0 0
          0.0326617377949061 0.0326617377949061 0 0.0326617377949061 0 0
          0.01977196425577966 0.01977196425577966 0 0.01977196425577966 0 0
          0.01632636332672871 0.01632636332672871 0 0.01632636332672871 0 0
          0.012737726062017538 0.012737726062017538 0 0.012737726062017538 0 0
          0.007835180561758748 0.007835180561758748 0 0.007835180561758748 0 0
          0.03825450066226699 0.03825450066226699 0 0.03825450066226699 0 0
          0.018793185022646045 0.018793185022646045 0 0.018793185022646045 0 0
          0.010708843186829907 0.010708843186829907 0 0.010708843186829907 0 0
          0.015018568211347092 0.015018568211347092 0 0.015018568211347092 0 0
          0.03821831322781577 0.03821831322781577 0 0.03821831322781577 0 0
          0.023651608987576 0.023651608987576 0 0.023651608987576 0 0
          0.02372382804890463 0.02372382804890463 0 0.02372382804890463 0 0
          0.0110185128568479 0.0110185128568479 0 0.0110185128568479 0 0
          0.022950708640644135 0.022950708640644135 0 0.022950708640644135 0 0
          0.014687321260103813 0.014687321260103813 0 0.014687321260103813 0 0
          0.024937406598857053 0.024937406598857053 0 0.024937406598857053 0 0
          0.017647440581625793 0.017647440581625793 0 0.017647440581625793 0 0
          0.014095410052320772 0.014095410052320772 0 0.014095410052320772 0 0
          0.011276400501946414 0.011276400501946414 0 0.011276400501946414 0 0
          0.017835015448543188 0.017835015448543188 0 0.017835015448543188 0 0
          0.010532968856217715 0.010532968856217715 0 0.010532968856217715 0 0
          0.00688873145763008 0.00688873145763008 0 0.00688873145763008 0 0
          0.007238544337835478 0.007238544337835478 0 0.007238544337835478 0 0
          0.011315105552724681 0.011315105552724681 0 0.011315105552724681 0 0
          0.012037004627244526 0.012037004627244526 0 0.012037004627244526 0 0
          0.027999073894205223 0.027999073894205223 0 0.027999073894205223 0 0
          0.2687118199952646 0.2687118199952646 0 0.2687118199952646 0 0
          0.24746920564751873 0.24746920564751873 0 0.24746920564751873 0 0