<?xml version="1.0"?>
<VTKFile type="UnstructuredGrid" version="0.1" byte_order="LittleEndian" header_type="UInt32" compressor="vtkZLibDataCompressor">
  <UnstructuredGrid>
    <Piece NumberOfPoints="97" NumberOfCells="154">
      <PointData>
        <DataArray type="Float64" Name="Velocity" NumberOfComponents="3" format="ascii" RangeMin="0" RangeMax="2.7704643757343765">
          1.042119023324036 0.017049468439785147 0 1.0781955930324962 0 0
          0.9780356500135429 -0.010679057886740619 0 0.9879811936398691 -0.021367038655478864 0
          0.9741933721579777 -0.018161063540203047 0 1.1711584974140865 0 0
          0.9879509290156046 0.0014845079158576093 0 0.9610215862691638 0 0
          0.963363589550394 0.008718365027887604 0 0.9462901887075631 -0.0244853554723588 0
          1.325648952102347 0 0 0.9338664676050575 0 0
          0.8519009815146606 0 0 1.8763269167387844 0 0
          0.902190227182409 -0.5815544544325307 0 1.845484067061208 -0.4733524534675603 0
          0.264817736990431 0 0 2.512349182011731 0 0
          0.18432148622569866 -0.577082764523254 0 1.1709015922044046 -0.6536974492459987 0
          2.4204343430012485 -0.22515461348580643 0 -0.29591514298133054 0 0
          2.7309753412502085 0 0 -0.330217024629234 -0.5513181346634485 0
          1.1153131592468364 -0.39341013268481273 0 2.6887591593208207 -0.05198312545540427 0
          -0.9785303065453126 0 0 2.718809031433997 0 0
          -0.6546924360245019 -0.08383544535428643 0 1.7387607367024183 -0.1269670721210811 0
          0.23091709002326946 -0.03497503815912634 0 2.770408688444701 0.017565767941661405 0
          -1.0669618587404621 0 0 2.662504112724772 0 0
          2.061049432238763 -0.09519054696039432 0 0.4109938997723719 0.13646418638725452 0
          -0.6663451670903435 0.11406659182005505 0 -0.9261991026678585 0 0
          2.7374699801462037 0.09443633276454244 0 0.845837081865819 0.18252057831482202 0
          -0.1975661454426366 0.3139877907457672 0 2.1040434051481625 0.09361581045045139 0
          -0.5703460372905689 0.2020447262862611 0 0.34536671740841723 0.35448403018157526 0
          0.6967651281791094 0.2551313193476321 0 0.05559162893355956 0.40228771844435096 0
          -0.6483605361669452 0 0 1.2938860458946673 0.11708291556611129 0
          -0.31401003672258615 0.316715636809236 0 2.0531402495930995 0.19719927964509337 0
          0.31153681073878314 0.399816754212395 0 -0.4861287975593959 0.1634758434319643 0
          -0.10585489593362382 0.38460669714178575 0 0.4830956309789325 0.27352572750801746 0
          -0.3810211686863847 0.2790813365047093 0 0.10114294166493472 0.41530629718573125 0
          1.112131766395837 0.23353919876812712 0 -0.21385438520849553 0.35589842775621583 0
          0.24880626964837196 0.3725903804703578 0 -0.3837630371881303 0 0
          -0.036362605838908844 0.4014525267945992 0 -0.31628199474037777 0.16455855325623092 0
          0.3692347965647287 0.29032143282825107 0 -0.24297750249455266 0.26283150474095557 0
          0.11555541607647028 0.41209644999646405 0 1.0424008946489538 0.2574058103002067 0
          -0.11349403971846253 0.33227892865115066 0 0.19785883748692062 0.3840437224995803 0
          0.029290049460428715 0.3770916507056336 0 0.2794732099061483 0.3149664278777734 0
          -0.17997832762042273 0.14347291662392955 0 0.12774839840224808 0.3774035997031858 0
          -0.19968354322585205 0 0 -0.12670144859602778 0.22436836063123136 0
          0.14663916725319368 0.31957957490248934 0 -0.020048360131916878 0.30242789036457257 0
          0.05878578045830997 0.311803920957516 0 0.09330798052139698 0.2838390734085911 0
          -0.07402112488432935 0 0 -0.025815745828025972 0.18150288247789345 0
          0.030350616270179154 0.17827910870358255 0 -0.02297221496589067 0.06347409477025101 0
          -0.012048889118804728 0.0054527759688642215 0 -0.016778253244954563 0 0
          -0.00518401144114358 0.0035734686442609556 0 -0.00023382337967010452 0.0016122358550148112 0
          0.0009850073122509946 0.00015969448716425362 0 0 0 0
          2.584792275821933 0.1713211932665431 0 2.71264157733562 0.272614645015601 0
          2.5849293126452237 0 0 0.2872873411240427 0.2790274013064856 0
          1.0433059071281499 0.3546941604137704 0 2.0386299581604366 0.3749950857255647 0
          1.9998342418282569 0.3620635309079533 0 0.06104711676463084 0.20757099643579446 0
          -0.018099874900382566 0.006486911903465345 0
          <InformationKey name="L2_NORM_RANGE" location="vtkDataArray" length="2">
            <Value index="0">
              0
            </Value>
            <Value index="1">
              2.7704643757
            </Value>
          </InformationKey>
        </DataArray>
        <DataArray type="Float64" Name="Pressure" format="ascii" RangeMin="-3.9107856856420242" RangeMax="0.16979898061008017">
          -0.048339233619954056 -0.01367072390155854 -0.004722556596295228 -0.011341065469140986 -0.023556425837667032 0.03906306309669398
          -0.0024597848740603155 -0.019699738088492746 -0.03634725177199211 -0.0689647846654349 -0.07155314142249651 -0.024214849447950066
          0.16979898061008017 -0.189703626150885 -0.22879045905016912 -1.1027222389435583 -0.053035789617782526 -1.6421329686088337
          -0.9269407244716399 -2.0190970640667376 -2.2345629368949482 -1.1667503146264022 -2.6446523830465476 -2.2324375501292724
          -3.516772560549131 -2.8986386143268708 -2.6945326047034803 -2.869658662093695 -3.5427655964007756 -3.728128297864169
          -3.9107856856420242 -2.9856973926743353 -3.4792653664637188 -2.6892325688942327 -3.4968681263059893 -3.8818173231467887
          -3.78673583931573 -3.4180229482635656 -3.0181869761720828 -3.60496186350422 -3.616009256944831 -3.1364422126823586
          -3.2983234387282416 -3.4868925463671494 -3.386094269782527 -3.3889203737145706 -3.105420399982617 -3.2386028244187357
          -3.259836183964406 -2.9974322870511205 -3.3142209626030774 -3.056591968908272 -3.2315156732196284 -3.2348461030070728
          -3.060805993525112 -3.1987231451538225 -3.1523995104682054 -3.0707555280351926 -3.146589464359876 -2.877684114215987
          -3.0684755221486295 -2.8918518997685068 -3.0929376526673327 -2.904079859571919 -3.055820778055428 -2.983230826212393
          -2.926503402596147 -3.03286704289501 -2.945034694158616 -2.9901321688177 -2.7751002943110743 -2.9548139260307624
          -2.758352422623564 -2.7907625096134803 -2.9443008603894603 -2.8257778900633377 -2.8443732745023675 -2.8730595710772167
          -2.6907889330022314 -2.7272044620182982 -2.769125530527282 -2.6626220269762157 -2.776199919558822 -2.649310826803795
          -2.6922737438525854 -2.641774422723306 -2.6242281614463296 -2.623048614323099 -1.9128736926022247 -2.5113332865994815
          -2.13674617096011 -2.9005754070093994 -2.8653332385443955 -2.649918061369527 -2.9212625604637275 -2.8264016132318157
          -2.8198938668041964
        </DataArray>
        <DataArray type="Float64" Name="BTraction" NumberOfComponents="3" format="ascii" RangeMin="0" RangeMax="3.398995804239326">
          0.01792724003478394 0.018574426012266252 0 0.002807358990241392 0.011810614542428606 0
          0.010956174487451079 0.0008669570268236137 0 0 0 0
          0 0 0 0.0056205876042241705 -0.010669301671152076 0
          0.0016180253666251143 -0.003216172820760925 0 -0.0005686504040942961 -0.01633044820700668 0
          0 0 0 0 0 0
          0.013042719276088785 0.08502246341938066 0 -0.0008184730111480451 0.009209563036420069 0
          -0.006531926675026286 0.1116547151501983 0 0.01877162146606551 0.4141828675000135 0
          0 0 0 0 0 0
          -0.011826619032242188 -0.14255605088406328 0 0.014979182478194306 1.5467999959584517 0
          0 0 0 0 0 0
          0 0 0 -0.012304905034813704 -1.1231486346936537 0
          0.006463037137021558 2.5121846843163325 0 0 0 0
          0 0 0 0 0 0
          -0.015823323115496137 -2.5014590857998225 0 -0.0006973117023038133 2.8038221073287244 0
          0 0 0 0 0 0
          0 0 0 0 0 0
          -0.017867825699365646 -3.330160339891855 0 -0.004182073182729283 2.6270798605402836 0
          0 0 0 0 0 0
          0 0 0 -0.013213125130784525 -3.3989701220459145 0
          0 0 0 0 0 0
          0 0 0 0 0 0
          0 0 0 0 0 0
          0 0 0 0 0 0
          -0.008558932480901097 -3.1633753133054756 0 0 0 0
          0 0 0 0 0 0
          0 0 0 0 0 0
          0 0 0 0 0 0
          0 0 0 0 0 0
          0 0 0 0 0 0
          0 0 0 -0.005722916854323143 -2.935788390991256 0
          0 0 0 0 0 0
          0 0 0 0 0 0
          0 0 0 0 0 0
          0 0 0 0 0 0
          0 0 0 0 0 0
          0 0 0 0 0 0
          -0.002447647250625713 -2.7986945827128697 0 0 0 0
          0 0 0 0 0 0
          0 0 0 0 0 0
          -0.0007187387944245262 -2.7164092291953628 0 0 0 0
          0 0 0 0 0 0
          -2.658114980267849 0.7763505087985907 0 -0.0004005605048108706 -2.6589304199046446 0
          -2.5937334715754843 0.7138402178003734 0 -2.563330488983164 0.6146009381650931 0
          -2.5843100708291713 0.406223741055476 0 -1.2578834052207597 -1.2390489923532844 0
          0 0 0 0 0 0
          -0.0066394971779918455 1.9810452407010553 0 0 0 0
          0 0 0 0 0 0
          0 0 0 0 0 0
          -2.663690553855855 0.7980737339122219 0
          <InformationKey name="L2_NORM_RANGE" location="vtkDataArray" length="2">
            <Value index="0">
              0
            </Value>
            <Value index="1">
              3.3989958042
            </Value>
          </InformationKey>
        </DataArray>
        <DataArray type="Float64" Name="ALEdispl" NumberOfComponents="3" format="ascii" RangeMin="0" RangeMax="2.5319616106812313">
          0 0 0 0 0 0
          0 0 0 0.20043591295065774 0.03340400689711463 0
          0.13111561676500041 -0.051670823489399886 0 0 0 0
          0 0 0 0 0 0
          0.18725223780351277 -0.018216798919954442 0 0.3198693504527862 0.004187882751185808 0
          0 0 0 0 0 0
          0 0 0 0 0 0
          0.5650234320565802 0.008552807183247692 0 0.40929226979236183 0.06825906948259101 0
          0 0 0 0 0 0
          0.4187378543582268 -0.1335374047348274 0 0.8239135118278135 -0.05935487683193306 0
          0.43895834395615213 0.09241088374332822 0 0 0 0
          0 0 0 0.4661168056666823 -0.1982209610811961 0
          1.0542748378160116 -0.14987002713334074 0 0.5407329545199508 0.08637302298749228 0
          0 0 0 0 0 0
          0.5967174028955391 -0.2678287887221076 0 1.1764503385428233 -0.1882181468094584 0
          1.135399377506191 -0.3659213854235335 0 0.7083874731860549 0.04917349411105767 0
          0 0 0 0 0 0
          1.2972541463771547 -0.24368911058213133 0 1.4006394860482285 -0.5206773830661695 0
          0.8063927930564767 -0.4520122816750691 0 0 0 0
          1.3403696015203646 -0.14182190250954374 0 1.7400111136741772 -0.5839712196155233 0
          1.3837319599248539 -0.762127957406857 0 1.6872383405313758 -0.3845975072831446 0
          0.6968392912371367 -0.49981831049889164 0 1.7233781813185025 -0.7578308944970109 0
          1.903259394760727 -0.6683468219900071 0 1.643313142364129 -0.8338352674314576 0
          0 0 0 1.9087680516435854 -0.5847384469309534 0
          1.1288835192205102 -0.7397724284509622 0 1.8760631984076799 -0.484583850764941 0
          1.8826218692151273 -0.8148230424291613 0 0.47599119408888413 -0.3770532394667932 0
          1.4576233012183557 -0.8498566314679091 0 2.047572275184168 -0.7435404909223112 0
          0.8584366133152639 -0.6329144300726173 0 1.774872956282553 -0.8819459269058716 0
          2.1002969177740725 -0.6552208957099542 0 1.2286983929171214 -0.8045032183296013 0
          2.0261018492968947 -0.8467982111286557 0 0 0 0
          1.577873865224394 -0.8761146942633978 0 0.5413329629911628 -0.4442978315476191 0
          2.191783523123106 -0.7681161418026993 0 0.915906251429458 -0.6756033467026643 0
          1.8965539084034313 -0.8792164180318516 0 2.260144934944454 -0.6805531561371856 0
          1.2930739887335079 -0.794424227769379 0 2.155207965401736 -0.828265083347242 0
          1.6619064940616324 -0.8329053484961367 0 2.322656855479244 -0.743339666428173 0
          0.5499502946411124 -0.45461341999586224 0 1.996472176523007 -0.8228836879341057 0
          0 0 0 0.9163847909461315 -0.6231379026308512 0
          2.2701567810515226 -0.76174954641414 0 1.309891296429252 -0.697924305538268 0
          1.6575915504431973 -0.6876817035987242 0 2.054826048347676 -0.6996687289726545 0
          0 0 0 0.8944148277257604 -0.49323624583009756 0
          1.2992055037967793 -0.503452184412188 0 0.36945280145665915 -0.266000541132319 0
          1.479084400376613 -0.3323609876762255 0 0 0 0
          0.941771259354471 -0.2443362007254192 0 0.467538635122562 -0.1589301701372239 0
          0.13799106668731312 -0.08109224270808679 0 0 0 0
          0.8243230851833654 -0.09757296956840672 0 1.6245563112564614 -0.3490548016773496 0
          0 0 0 2.4415232744763955 -0.6706666073046685 0
          2.4001615501461955 -0.6480353378298636 0 2.2446011574699614 -0.5888459710702154 0
          2.082281436055678 -0.5624333062926423 0 2.3489660694481076 -0.6423514963156463 0
          1.9701011709964336 -0.41103907132650114 0
          <InformationKey name="L2_NORM_RANGE" location="vtkDataArray" length="2">
            <Value index="0">
              0
            </Value>
            <Value index="1">
              2.5319616107
            </Value>
          </InformationKey>
        </DataArray>
        <DataArray type="Float64" Name="ALEveloc" NumberOfComponents="3" format="ascii" RangeMin="0" RangeMax="0.025154825630380868">
          0 0 0 0 0 0
          0 0 0 -0.0018616471638093213 -0.000308601738219387 0
          -0.0012189334629465198 0.00048151349350065986 0 0 0 0
          0 0 0 0 0 0
          -0.0017405823155455247 0.00017301403827789386 0 -0.0029709600861433927 -0.000030562978474583946 0
          0 0 0 0 0 0
          0 0 0 0 0 0
          -0.00525145388970083 -0.00000884268321709944 0 -0.0037560317781735186 -0.0004998703795353887 0
          0 0 0 0 0 0
          -0.003941929103802311 0.0013567060745252046 0 -0.007626676735836391 0.0008516060277564408 0
          -0.004001999238521514 -0.0006527045095068851 0 0 0 0
          0 0 0 -0.004426781985794492 0.002036380403547311 0
          -0.009780825483407751 0.002067865908102151 0 -0.004916470689593333 -0.0004021941290774933 0
          0 0 0 0 0 0
          -0.005680515536582331 0.002890087097800087 0 -0.010842312149262234 0.003012131779614735 0
          -0.010616535709871311 0.00452450234419588 0 -0.006539052642188237 0.0002851770105906648 0
          0 0 0 0 0 0
          -0.012000787997620943 0.004126239965051459 0 -0.01296204277877866 0.006877843924133931 0
          -0.007679165205763505 0.00518710229215591 0 0 0 0
          -0.012701773035492359 0.0034017014931105316 0 -0.01614796255157014 0.008585801136464788 0
          -0.012620223005722853 0.009833803801398089 0 -0.01601589367632661 0.006579609634259298 0
          -0.006629797601855891 0.006137061434953517 0 -0.015833323954865364 0.010596128110053948 0
          -0.017762341729938846 0.009886163293589822 0 -0.014954681586601737 0.01142054798732306 0
          0 0 0 -0.018018852423613563 0.00902301411453088 0
          -0.010185590289035762 0.009716146470573506 0 -0.017940672606778563 0.007827815497672419 0
          -0.01733431825807763 0.011579586872574765 0 -0.004561790235674268 0.0048091468476718635 0
          -0.013005532537870401 0.011557467196978033 0 -0.019179563079209316 0.010945244994310821 0
          -0.00768442100528377 0.008407796255627376 0 -0.01606696194643087 0.01233399456434725 0
          -0.019970226436928584 0.009958398235871968 0 -0.01070304306499148 0.011008068365301993 0
          -0.01869859246465433 0.01212635629755221 0 0 0 0
          -0.013926991612292827 0.012241306572499333 0 -0.004956864350263102 0.006157215354860246 0
          -0.02062128147391551 0.011265099922738386 0 -0.007683304663545165 0.009472471529104798 0
          -0.01716523858804564 0.012467672420564346 0 -0.02160466460588273 0.010201633967341195 0
          -0.010888819152001128 0.011256323509674537 0 -0.019964233087645056 0.011894611228819407 0
          -0.01454264792309301 0.011908470354812462 0 -0.02194997982128921 0.01086160144001691 0
          -0.004539979233708413 0.006917227045275753 0 -0.018130377444522505 0.011774960842644733 0
          0 0 0 -0.007061591801628131 0.009185951893389221 0
          -0.021116112229461415 0.010946405670911208 0 -0.010597031491177855 0.010281367112083828 0
          -0.0142597269415079 0.010154358950786646 0 -0.01876999162579862 0.010179557628188451 0
          0 0 0 -0.006006836625213285 0.0075914863346494554 0
          -0.010018985607882058 0.007767797233478424 0 -0.0014350866070812485 0.0039054940722434983 0
          -0.012048889117250994 0.005452775968161072 0 0 0 0
          -0.005184011440475089 0.0035734686438001484 0 -0.00023382337963995248 0.0016122358548069093 0
          0.0009850073121239755 0.00015969448714366064 0 0 0 0
          -0.007988173780449914 0.0022804736795941916 0 -0.0157110530334581 0.006007059119809588 0
          0 0 0 -0.023159666962989878 0.009818099544120606 0
          -0.023054791499657945 0.009666308967567705 0 -0.02176835610721639 0.008973610921461095 0
          -0.020079135425713712 0.008807891753629171 0 -0.021871196230565992 0.009301043893142902 0
          -0.01809987489804854 0.006486911902628845 0
          <InformationKey name="L2_NORM_RANGE" location="vtkDataArray" length="2">
            <Value index="0">
              0
            </Value>
            <Value index="1">
              0.02515482563
            </Value>
          </InformationKey>
        </DataArray>
      </PointData>
      <CellData>
        <DataArray type="UInt8" Name="vtkGhostType" format="ascii" RangeMin="0" RangeMax="0">
          0 0 0 0 0 0
          0 0 0 0 0 0
          0 0 0 0 0 0
          0 0 0 0 0 0
          0 0 0 0 0 0
          0 0 0 0 0 0
          0 0 0 0 0 0
          0 0 0 0 0 0
          0 0 0 0 0 0
          0 0 0 0 0 0
          0 0 0 0 0 0
          0 0 0 0 0 0
          0 0 0 0 0 0
          0 0 0 0 0 0
          0 0 0 0 0 0
          0 0 0 0 0 0
          0 0 0 0 0 0
          0 0 0 0 0 0
          0 0 0 0 0 0
          0 0 0 0 0 0
          0 0 0 0 0 0
          0 0 0 0 0 0
          0 0 0 0 0 0
          0 0 0 0 0 0
          0 0 0 0 0 0
          0 0 0 0
        </DataArray>
        <DataArray type="Float64" Name="PStrain" NumberOfComponents="6" format="ascii" RangeMin="6.864522570868682e-8" RangeMax="0.46626264550366475">
          0.09999999999999999 0.09999999999999999 0 0.09999999999999999 0 0
          0.000001805571712171497 0.000001805571712171497 0 0.000001805571712171497 0 0
          0.000008433714587697883 0.000008433714587697883 0 0.000008433714587697883 0 0
          0.0000016206716715232252 0.0000016206716715232252 0 0.0000016206716715232252 0 0
          0.0000016598627097285071 0.0000016598627097285071 0 0.0000016598627097285071 0 0
          2.3944764586655983e-7 2.3944764586655983e-7 0 2.3944764586655983e-7 0 0
          0.0000010993595941908115 0.0000010993595941908115 0 0.0000010993595941908115 0 0
          1.5542792213213453e-7 1.5542792213213453e-7 0 1.5542792213213453e-7 0 0
          5.189171461763305e-7 5.189171461763305e-7 0 5.189171461763305e-7 0 0
          4.506344179009342e-7 4.506344179009342e-7 0 4.506344179009342e-7 0 0
          1.1381275360077254e-7 1.1381275360077254e-7 0 1.1381275360077254e-7 0 0
          2.0285734584731457e-7 2.0285734584731457e-7 0 2.0285734584731457e-7 0 0
          0.000013472502993785836 0.000013472502993785836 0 0.000013472502993785836 0 0
          8.58139978361457e-8 8.58139978361457e-8 0 8.58139978361457e-8 0 0
          8.58139978361457e-8 8.58139978361457e-8 0 8.58139978361457e-8 0 0
          0.000013472502993785836 0.000013472502993785836 0 0.000013472502993785836 0 0
          3.963233954149295e-8 3.963233954149295e-8 0 3.963233954149295e-8 0 0
          0.000009912983836997428 0.000009912983836997428 0 0.000009912983836997428 0 0
          0.009022271135822147 0.009022271135822147 0 0.009022271135822147 0 0
          0.005747209887252102 0.005747209887252102 0 0.005747209887252102 0 0
          0.008294547092626042 0.008294547092626042 0 0.008294547092626042 0 0
          0.0047046914249917636 0.0047046914249917636 0 0.0047046914249917636 0 0
          0.00546036999772828 0.00546036999772828 0 0.00546036999772828 0 0
          0.005331387990277831 0.005331387990277831 0 0.005331387990277831 0 0
          0.005170307073791462 0.005170307073791462 0 0.005170307073791462 0 0
          0.0028309255056912903 0.0028309255056912903 0 0.0028309255056912903 0 0
          0.0021610474723459563 0.0021610474723459563 0 0.0021610474723459563 0 0
          0.0040239607990474715 0.0040239607990474715 0 0.0040239607990474715 0 0
          0.005210846516239586 0.005210846516239586 0 0.005210846516239586 0 0
          0.0020689959290081093 0.0020689959290081093 0 0.0020689959290081093 0 0
          0.0010034250878784288 0.0010034250878784288 0 0.0010034250878784288 0 0
          0.0024439552413354675 0.0024439552413354675 0 0.0024439552413354675 0 0
          0.003651098614851412 0.003651098614851412 0 0.003651098614851412 0 0
          0.001720994121419078 0.001720994121419078 0 0.001720994121419078 0 0
          0.004365695107951597 0.004365695107951597 0 0.004365695107951597 0 0
          0.0021765303857175958 0.0021765303857175958 0 0.0021765303857175958 0 0
          0.002422646205507511 0.002422646205507511 0 0.002422646205507511 0 0
          0.0017418628480484078 0.0017418628480484078 0 0.0017418628480484078 0 0
          0.0006167208317574349 0.0006167208317574349 0 0.0006167208317574349 0 0
          0.0008073359540484843 0.0008073359540484843 0 0.0008073359540484843 0 0
          0.0008579148523910512 0.0008579148523910512 0 0.0008579148523910512 0 0
          0.000704583282737509 0.000704583282737509 0 0.000704583282737509 0 0
          0.0009506165017235809 0.0009506165017235809 0 0.0009506165017235809 0 0
          0.0011472405473561577 0.0011472405473561577 0 0.0011472405473561577 0 0
          0.0022180383115578887 0.0022180383115578887 0 0.0022180383115578887 0 0
          0.0010784621618719417 0.0010784621618719417 0 0.0010784621618719417 0 0
          0.000787160402988425 0.000787160402988425 0 0.000787160402988425 0 0
          0.00030851417089211895 0.00030851417089211895 0 0.00030851417089211895 0 0
          0.0002654143052710514 0.0002654143052710514 0 0.0002654143052710514 0 0
          0.00029497981382800386 0.00029497981382800386 0 0.00029497981382800386 0 0
          0.00032310861430688846 0.00032310861430688846 0 0.00032310861430688846 0 0
          0.0001889724263746621 0.0001889724263746621 0 0.0001889724263746621 0 0
          0.00023942757171777177 0.00023942757171777177 0 0.00023942757171777177 0 0
          0.00011594317729297647 0.00011594317729297647 0 0.00011594317729297647 0 0
          0.00007598743564270571 0.00007598743564270571 0 0.00007598743564270571 0 0
          0.00007334403344050611 0.00007334403344050611 0 0.00007334403344050611 0 0
          0.00010383296611607873 0.00010383296611607873 0 0.00010383296611607873 0 0
          0.0003102699435946307 0.0003102699435946307 0 0.0003102699435946307 0 0
          0.00012963178183564669 0.00012963178183564669 0 0.00012963178183564669 0 0
          0.0003979369839497073 0.0003979369839497073 0 0.0003979369839497073 0 0
          0.000052777429642543466 0.000052777429642543466 0 0.000052777429642543466 0 0
          0.00005493132257793742 0.00005493132257793742 0 0.00005493132257793742 0 0
          0.00008541013018939632 0.00008541013018939632 0 0.00008541013018939632 0 0
          0.0894167518227194 0.0894167518227194 0 0.0894167518227194 0 0
          0.09132552513302175 0.09132552513302175 0 0.09132552513302175 0 0
          0.04529980964288628 0.04529980964288628 0 0.04529980964288628 0 0
          0.11168655047830933 0.11168655047830933 0 0.11168655047830933 0 0
          0.13225223619150905 0.13225223619150905 0 0.13225223619150905 0 0
          0.09783585326576373 0.09783585326576373 0 0.09783585326576373 0 0
          0.07276126789947507 0.07276126789947507 0 0.07276126789947507 0 0
          0.15002544936629159 0.15002544936629159 0 0.15002544936629159 0 0
          0.04996068525822199 0.04996068525822199 0 0.04996068525822199 0 0
          0.05422905502487685 0.05422905502487685 0 0.05422905502487685 0 0
          0.028107269444890656 0.028107269444890656 0 0.028107269444890656 0 0
          0.041585990506196074 0.041585990506196074 0 0.041585990506196074 0 0
          0.02444663616044092 0.02444663616044092 0 0.02444663616044092 0 0
          0.05439792375462266 0.05439792375462266 0 0.05439792375462266 0 0
          0.06658863890914579 0.06658863890914579 0 0.06658863890914579 0 0
          0.0751950198348976 0.0751950198348976 0 0.0751950198348976 0 0
          0.043023439633476886 0.043023439633476886 0 0.043023439633476886 0 0
          0.04973673580219323 0.04973673580219323 0 0.04973673580219323 0 0
          0.03881616716175476 0.03881616716175476 0 0.03881616716175476 0 0
          0.07714504251979284 0.07714504251979284 0 0.07714504251979284 0 0
          0.0286110933242543 0.0286110933242543 0 0.0286110933242543 0 0
          0.028100273736111563 0.028100273736111563 0 0.028100273736111563 0 0
          0.017016691146081033 0.017016691146081033 0 0.017016691146081033 0 0
          0.031557992305335486 0.031557992305335486 0 0.031557992305335486 0 0
          0.017536822255131833 0.017536822255131833 0 0.017536822255131833 0 0
          0.029062921090832097 0.029062921090832097 0 0.029062921090832097 0 0
          0.044553988662795765 0.044553988662795765 0 0.044553988662795765 0 0
          0.04734934926186049 0.04734934926186049 0 0.04734934926186049 0 0
          0.028617826025774902 0.028617826025774902 0 0.028617826025774902 0 0
          0.03927932892989215 0.03927932892989215 0 0.03927932892989215 0 0
          0.025636752477803913 0.025636752477803913 0 0.025636752477803913 0 0
          0.027087033390596066 0.027087033390596066 0 0.027087033390596066 0 0
          0.021170943619350163 0.021170943619350163 0 0.021170943619350163 0 0
          0.01743397744793515 0.01743397744793515 0 0.01743397744793515 0 0
          0.009741057583419251 0.009741057583419251 0 0.009741057583419251 0 0
          0.015323049649483191 0.015323049649483191 0 0.015323049649483191 0 0
          0.01308297317335601 0.01308297317335601 0 0.01308297317335601 0 0
          0.053094841991368255 0.053094841991368255 0 0.053094841991368255 0 0
          0.016233362966932962 0.016233362966932962 0 0.016233362966932962 0 0
          0.018256773954731607 0.018256773954731607 0 0.018256773954731607 0 0
          0.012560215977177491 0.012560215977177491 0 0.012560215977177491 0 0
          0.04520599902179112 0.04520599902179112 0 0.04520599902179112 0 0
          0.05874515328737773 0.05874515328737773 0 0.05874515328737773 0 0
          0.016953849905983434 0.016953849905983434 0 0.016953849905983434 0 0
          0.032672509723266234 0.032672509723266234 0 0.032672509723266234 0 0
          0.027802758318017082 0.027802758318017082 0 0.027802758318017082 0 0
          0.017234929684328458 0.017234929684328458 0 0.017234929684328458 0 0
          0.020642574663219913 0.020642574663219913 0 0.020642574663219913 0 0
          0.010704179983536587 0.010704179983536587 0 0.010704179983536587 0 0
          0.03282452619947947 0.03282452619947947 0 0.03282452619947947 0 0
          0.01987044010309445 0.01987044010309445 0 0.01987044010309445 0 0
          0.016366866886098525 0.016366866886098525 0 0.016366866886098525 0 0
          0.012783671627230738 0.012783671627230738 0 0.012783671627230738 0 0
          0.007850229691583888 0.007850229691583888 0 0.007850229691583888 0 0
          0.03852568894644553 0.03852568894644553 0 0.03852568894644553 0 0
          0.018884157500947484 0.018884157500947484 0 0.018884157500947484 0 0
          0.010758374904136316 0.010758374904136316 0 0.010758374904136316 0 0
          0.01507627311570553 0.01507627311570553 0 0.01507627311570553 0 0
          0.03848481621287182 0.03848481621287182 0 0.03848481621287182 0 0
          0.023787765162138465 0.023787765162138465 0 0.023787765162138465 0 0
          0.02391055420960699 0.02391055420960699 0 0.02391055420960699 0 0
          0.011050406634415406 0.011050406634415406 0 0.011050406634415406 0 0
          0.023091614954277605 0.023091614954277605 0 0.023091614954277605 0 0
          0.014767226493818258 0.014767226493818258 0 0.014767226493818258 0 0
          0.02514693922201419 0.02514693922201419 0 0.02514693922201419 0 0
          0.017772882810118434 0.017772882810118434 0 0.017772882810118434 0 0
          0.014174509170460377 0.014174509170460377 0 0.014174509170460377 0 0
          0.01134447210122511 0.01134447210122511 0 0.01134447210122511 0 0
          0.017956464467638437 0.017956464467638437 0 0.017956464467638437 0 0
          0.010553385081132002 0.010553385081132002 0 0.010553385081132002 0 0
          0.006895994307957089 0.006895994307957089 0 0.006895994307957089 0 0
          0.00724565289984223 0.00724565289984223 0 0.00724565289984223 0 0
          0.01137133571751732 0.01137133571751732 0 0.01137133571751732 0 0
          0.012109092695928034 0.012109092695928034 0 0.012109092695928034 0 0
          0.02832803636160592 0.02832803636160592 0 0.02832803636160592 0 0
          0.2691968638946079 0.2691968638946079 0 0.2691968638946079 0 0
          0.24806262403679835 0.24806262403679835 0 0.24806262403679835 0 0
          0.14510275473095308 0.14510275473095308 0 0.14510275473095308 0 0