<?xml version="1.0"?>
<VTKFile type="UnstructuredGrid" version="0.1" byte_order="LittleEndian" header_type="UInt32" compressor="vtkZLibDataCompressor">
  <UnstructuredGrid>
    <Piece NumberOfPoints="94" NumberOfCells="150">
      <PointData>
        <DataArray type="Float64" Name="Velocity" NumberOfComponents="3" format="ascii" RangeMin="4.5864891513122185e-23" RangeMax="2.795800770414152">
          2.6798023223871024 0 0 2.614051651794942 0.20544503037915895 0
          2.697089717715857 0.32046272533044196 0 2.320506891864088 0 0
          1.9133253143983908 0.3925103792784434 0 2.4137377911893783 0.31369956762942136 0
          2.587097138683291 0.5393384857317592 0 1.9706937708261696 0.37571258278564806 0
          0.9980065199931223 0.3327242829796674 0 1.8388434470486659 0 0
          2.144522518578778 0.5317959863844716 0 2.178287061018506 0.4233144878287825 0
          2.4252878995984957 0.7701330559564251 0 0.28290919145821386 0.24487436253542968 0
          1.2078179445999806 0.4066914424682017 0 2.413627120005028 0.8226431074014015 0
          0.0682880678653873 0.17944191655483405 0 2.2432583250799456 0.761839790278427 0
          0.4331393527520451 0.26582836270067534 0 1.6642049443154334 0.769666909040759 0
          -0.0007558029087060368 0.009210723181944424 0 2.362919837787116 1.1226598232285436 0
          1.7252770465683556 0.29961357306756226 0 -0.0018424847454820738 0.009370236494057948 0
          0.9382193375586709 0.5108176887310673 0 2.095018571943708 0.9102024234046823 0
          2.06434157745218 1.3425653527257502 0 -0.0004976646676309442 0.009932892553255364 0
          -0.0016160363646125142 0.009635745194109346 0 2.035758021826631 1.1160767172150423 0
          1.718415313636058 1.521650823628776 0 1.4097548352024516 0 0
          -0.001771902850844392 0.00808037781691855 0 -0.000713097383879583 0.00584410606822437 0
          1.8491539203907847 1.3787426377110856 0 1.108023636843229 1.6547328135417032 0
          1.6732215307796008 0.6423027485925036 0 0.0007280954238278747 0.003510873433883832 0
          1.7277531626586413 1.0183383445377598 0 1.5571818631140382 1.5298274502549565 0
          0.0012198029944280543 0.00181915478524928 0 1.09633439256561 1.5850558806510087 0
          0.3210481719072388 0.8015222023597972 0 4.5864891513122185e-23 0 0
          1.5263862075684653 1.1278317336214285 0 1.232917527278298 1.4405069262853711 0
          0.9378824504702773 1.3927107982579647 0 1.4458479392545156 0.7408159412653205 0
          1.2659551595246745 0.19739113046370646 0 0.43955323142045605 0.7441874958597343 0
          1.32469638870462 1.051699346860491 0 1.0805529235476488 1.174789387916481 0
          1.3586662975573394 0.8247425271841333 0 0.7893575004854353 1.0304707187267506 0
          0.19358336854616393 0 0 1.1498736009211294 0.9622377733003189 0
          1.2952480052371493 0.6411453915443729 0 0.3450420371876007 0.270725497456268 0
          0.9514645227870185 0.9312532862593822 0 0.6515959332760695 0.5475215667570911 0
          1.2312544585127136 0.3806718700805917 0 1.2140659416506885 0.598838685744627 0
          1.1142509360767825 0 0 1.0454775210992657 0.6799766905801077 0
          0.4928203774378247 0 0 0.890194474462006 0.6262821645927681 0
          0.8282874789276546 0.4889609840598328 0 1.0403868561408836 0.12482605751275413 0
          0.7693764505555569 0.285746492487166 0 0.7337189749246261 0 0
          1.050531846088591 0.22542385572420445 0 1.0492190565499462 0.35024224431674844 0
          0.979934090290241 0.32288551100063584 0 0.9530969648033434 0.2550955010636865 0
          0.9090441301003213 0.15284580861683492 0 0.9189322495468901 0 0
          1.0000000001615956 0 0 1.0000000001615956 0 0
          1.0000000001615956 0 0 1.002130769520064 0 0
          1.0000000001615956 0 0 1.0000000001615956 0 0
          1.0000000001615956 0 0 1.0000000001615956 0 0
          2.743131525147019 0.15028512804335492 0 2.795800770414152 0 0
          0.15420829369616937 0.2888780758941538 0 0.2732789405335284 0.28870472878000236 0
          0.9791081835508962 0.25182947922899457 0 1.0327200994959551 0.2703919011704582 0
          1.971518406096229 0.25359254311927776 0 2.052328545388058 0.16927142361310382 0
          0.09969482521038231 0.253971762461956 0 -0.0018487709038253954 0.008627413619248505 0
          <InformationKey name="L2_NORM_RANGE" location="vtkDataArray" length="2">
            <Value index="0">
              4.5864891513e-23
            </Value>
            <Value index="1">
              2.7958007704
            </Value>
          </InformationKey>
        </DataArray>
        <DataArray type="Float64" Name="Pressure" format="ascii" RangeMin="-2.9731119610716563" RangeMax="6.7712912739356845">
          -1.9731392630972784 -1.7130169031603164 -2.264459614273606 -0.49934204310898694 -2.570593798839588 -0.572575037538012
          -1.4037229025070774 -2.28063259534317 -2.4975609248350485 1.3362584460471507 -2.0238551758468626 0.48795253625230056
          -1.2325159187264838 -2.5659702819682186 -2.4042991728116156 -1.5154914564019477 -2.5330930844865245 0.27252184578248817
          -2.505945756638034 -2.1509906661903484 -2.3047805854804566 -0.4474575900704503 1.8568574495391572 -2.566140665454109
          -2.005427990256235 0.9019179876340869 -0.789793607396606 0.12525168926716337 3.2422825620704088 1.0074804017198968
          -0.4675921613082968 2.657959632646218 4.77292754953039 5.892038092248994 1.0706079483912625 1.4821323802724742
          2.1838974524367485 6.519731696326076 2.056756895535577 1.897595740796131 6.705248246253413 3.3895658363563044
          5.35809595779065 6.7712912739356845 2.575973396405635 3.1702011347520065 4.540539700976072 2.8267964079647485
          3.0543309347790526 6.103246245731585 3.2639195092969344 4.158429371303319 3.2557626987159645 5.514842460381348
          6.765821842505148 3.992093209240488 3.3156988817717763 6.671240067607869 4.943852242584759 6.407296455363798
          3.4147880676071583 3.800176719915349 3.486778972446286 4.541245024166636 6.649549843304222 5.332803926989398
          5.9816388952353625 3.6334694094610698 6.31325772268408 6.359219464594656 3.9953683191704443 4.4558438847198145
          5.13976599052825 5.656189975759638 6.010949861517409 6.17116260310987 3.646788909724173 3.8473824863265103
          4.363436278465566 6.056304957501407 5.03237526914211 5.566885855579902 5.889334442464791 5.997531940023368
          -2.9716965558749733 -2.656346501213306 -2.6265903856098856 -2.6348789903037004 -2.5959771507558043 -2.789754354297394
          -2.713531152914219 -2.9731119610716563 -2.591537686273993 -2.5297107087138193
        </DataArray>
        <DataArray type="Float64" Name="BTraction" NumberOfComponents="3" format="ascii" RangeMin="0" RangeMax="6.722667853648816">
          -0.002854540992242798 1.8150061873449033 0 0 0 0
          0 0 0 -0.007777382090374326 0.39070626895756133 0
          0 0 0 0 0 0
          0 0 0 0 0 0
          0 0 0 -0.007355002719218072 -1.3083355013179043 0
          0 0 0 0 0 0
          0 0 0 0 0 0
          0 0 0 0 0 0
          0 0 0 0 0 0
          0 0 0 0 0 0
          -1.660148651492712 -0.26253343000892154 0 0 0 0
          0 0 0 -2.4181322006596706 0.7235888123252314 0
          0 0 0 0 0 0
          0 0 0 -1.02361635771952 -0.31470449418581503 0
          -3.1098302733919376 0.6887918448388028 0 0 0 0
          0 0 0 -0.0004247102352200132 -2.624341996284771 0
          -4.654737640364139 1.2279035849193711 0 -5.662047812718816 1.48728220307253 0
          0 0 0 0 0 0
          0 0 0 -6.314343379532547 1.4750902756219826 0
          0 0 0 0 0 0
          -6.64606821222368 1.0119488074765017 0 0 0 0
          0 0 0 -3.375250887459245 3.713388218274245 0
          0 0 0 0 0 0
          0 0 0 0 0 0
          0 0 0 0 0 0
          0 0 0 0 0 0
          0 0 0 0 0 0
          -0.004036911193360479 6.713910157632441 0 0 0 0
          0 0 0 0 0 0
          0 0 0 0 0 0
          0 0 0 0 0 0
          0.0035612652697968017 -3.4037795953658594 0 0 0 0
          -0.006700422198029756 6.559147558191272 0 0 0 0
          0 0 0 0 0 0
          0 0 0 -0.007397136002770419 6.328365674695921 0
          0 0 0 0 0 0
          0 0 0 0 0 0
          0 0 0 -0.002992338109294626 6.144943391300922 0
          1.8544684808598482 -1.8095827360192083 0 3.886874421617138 -0.009726894294830656 0
          4.371979915393547 -0.015914845581871666 0 0.0004955964859418083 6.05269304127389 0
          4.99045917072104 -0.018782906287333822 0 5.52607072461461 -0.017284868858801875 0
          5.853077327565345 -0.00810328450933268 0 3.438426113689615 2.54631033215386 0
          0 0 0 -0.0003363654118204574 2.5959546361836687 0
          0 0 0 0 0 0
          0 0 0 0 0 0
          0 0 0 0 0 0
          0 0 0 -2.4250119306118254 0.7058383056752305 0
          <InformationKey name="L2_NORM_RANGE" location="vtkDataArray" length="2">
            <Value index="0">
              0
            </Value>
            <Value index="1">
              6.7226678536
            </Value>
          </InformationKey>
        </DataArray>
        <DataArray type="Float64" Name="ALEdispl" NumberOfComponents="3" format="ascii" RangeMin="0" RangeMax="2.619604452792673">
          0 0 0 0.8218696775695365 -0.096045663006518 0
          1.619554069469086 -0.34573373035073657 0 0 0 0
          2.0755285516632704 -0.5577429831117536 0 1.0291919429272882 -0.157916895063493 0
          1.915025058651138 -0.4215855524390654 0 2.2372287584312556 -0.5836917866856637 0
          2.391959973988178 -0.6422423955283237 0 0 0 0
          2.346642187585495 -0.5274968750922496 0 1.3271417556708336 -0.19506275804577133 0
          2.230041291042957 -0.40321883728005364 0 2.4327937782973783 -0.6644235506334503 0
          2.5166093536297147 -0.5547013975851747 0 2.445553749661966 -0.4222532633728116 0
          2.3400617244415653 -0.6358948064249325 0 2.088212289058139 -0.27709872215965403 0
          2.5302774649724595 -0.5369754435208551 0 2.5913054844929344 -0.3840096029112266 0
          2.414153348949206 -0.47514065550207574 0 2.4865360250314006 -0.2655131741357484 0
          1.1244598699895723 -0.09584489101971895 0 1.9617688397421518 -0.4050223297058312 0
          2.5799731908875922 -0.31144624132278176 0 2.241824328378935 -0.19001754480824845 0
          2.578250326771388 -0.20684922138220943 0 2.460566517121273 -0.1739682736553552 0
          2.0106448577508904 -0.10574889162416318 0 2.407372968216481 -0.1237875812515926 0
          2.5346251200340073 -0.09722665794032298 0 0 0 0
          1.530033635157228 -0.03752998474186303 0 1.005248961467725 0.027250856771113156 0
          2.4771866304859107 -0.0406957719224809 0 2.345037916117004 0.015371585757678654 0
          1.9663224625461078 -0.08100384833340213 0 0.5005082870274785 0.0735530165533827 0
          2.2913979313374457 -0.014184216641900378 0 2.3972879389663793 0.06538450378183389 0
          0.1491009099666986 0.06861089219979045 0 2.010346837724432 0.1430214671957457 0
          1.3087898308367565 0.15906354289485083 0 0 0 0
          2.2897149028209434 0.07667501211330728 0 2.1957326193940685 0.18974226120688772 0
          1.59814224967699 0.23518741994423684 0 2.0617632884765724 0.021300193829728406 0
          0.9508218910819826 -0.12952732708143863 0 0.8972486608617548 0.26087361349291555 0
          2.174625684962089 0.1771090478711382 0 1.8699478605232693 0.30639335151081654 0
          2.062062544262473 0.1226826558466584 0 1.2531365370020957 0.3423782314011755 0
          0 0 0 1.9619903595048078 0.29486582202223294 0
          1.8535552670721316 0.09282334228602525 0 0.24101076404136368 0.18451539024056715 0
          1.5150936154389676 0.38711050917618806 0 0.5744824543963686 0.29954030840348694 0
          1.4789827529610038 -0.04388520461798026 0 1.8102191174764684 0.182735266650579 0
          0 0 0 1.647730319734803 0.37527509159041883 0
          0 0 0 1.1954684565208766 0.4503275127905895 0
          0.7769810828006992 0.4402420117245666 0 0.7626166380853828 -0.16374988287389386 0
          0.36897927830278976 0.28704279330785487 0 0 0 0
          0.939667068594165 0.025029393775224788 0 1.0908241708986937 0.23217999137665635 0
          0.8755851705406675 0.3594293812060142 0 0.6456394450871012 0.39326127365471714 0
          0.3624322922616736 0.3087260520993398 0 0 0 0
          0 0 0 0 0 0
          0 0 0 0 0 0
          0 0 0 0 0 0
          0 0 0 0 0 0
          1.3362655640300032 -0.13977601957232821 0 0 0 0
          2.2616521915859438 -0.7554398266170108 0 2.314434572941455 -0.7373522168694666 0
          2.2525141679824134 -0.6750935843345274 0 2.0932957207021468 -0.650267968133402 0
          1.8700761540797497 -0.480577752595254 0 1.6818784983458461 -0.3812860556872452 0
          2.046594014741598 -0.6933435527246647 0 1.4719522505839688 -0.32715812549766926 0
          <InformationKey name="L2_NORM_RANGE" location="vtkDataArray" length="2">
            <Value index="0">
              0
            </Value>
            <Value index="1">
              2.6196044528
            </Value>
          </InformationKey>
        </DataArray>
        <DataArray type="Float64" Name="ALEveloc" NumberOfComponents="3" format="ascii" RangeMin="0" RangeMax="0.010058059483580717">
          0 0 0 0.0005771198363611063 0.0028222537171420647 0
          0.0008940349113264467 0.005203280331251725 0 0 0 0
          0.0006525660698919467 0.006712403880967721 0 0.00046083543420349926 0.0027632098937189487 0
          0.0005938015885278425 0.005743279428221615 0 0.0004857386799970165 0.007198950115549385 0
          0.00017386567313026902 0.007937299942350373 0 0 0 0
          0.00038219997347521684 0.00739024148651668 0 0.00027064965028267274 0.0028625620576717137 0
          0.00040535023728427433 0.006453072780806424 0 -0.00023220811296020827 0.008437475678548578 0
          0.000039636715564395075 0.008377197125438052 0 0.0003229971501550466 0.007578701057042836 0
          -0.000746201085592979 0.008727111125088838 0 0.0005477047959319137 0.005236445687968994 0
          -0.0002874123057430289 0.008891222242881525 0 0.0001039951552375129 0.008840256399724189 0
          -0.0007558029085839024 0.009210723180456015 0 0.00023250088736403995 0.008110644636290743 0
          0.00047155994233682996 0.0018919906122796537 0 -0.0018424847451843362 0.00937023649254376 0
          -0.00011842350487967224 0.00954672444822019 0 0.00016329717936480748 0.00709018394739569 0
          0.00005675081080447342 0.009323411688553052 0 -0.0004976646675505236 0.009932892551650252 0
          -0.0016160363643513698 0.009635745192552253 0 -0.00011360810559013501 0.0086329915804354 0
          -0.00018058735905324141 0.009902102872679036 0 0 0 0
          -0.0017719028505580603 0.0080803778156128 0 -0.0007130973837643495 0.005844106067279989 0
          -0.00030343085033202044 0.009470239240757704 0 -0.00047746429471828833 0.010046720281888868 0
          -0.00023388362247400707 0.00703511319983241 0 0.0007280954237102177 0.0035108734333164915 0
          -0.0005848076170824612 0.008692917456118953 0 -0.0004636332071354943 0.009635345091878009 0
          0.0012198029942309396 0.0018191547849553125 0 -0.0006791772004421937 0.009373584832912396 0
          -0.0009607099464861157 0.00702114677275284 0 0 0 0
          -0.0007544851128593599 0.008970007808089459 0 -0.0004349761755033654 0.009316110765362595 0
          -0.0005371923439692061 0.008009884985472282 0 -0.0010563701516894675 0.008085300817506157 0
          -0.00009517565395733563 0.0037792521685992564 0 -0.00027492840462128854 0.004991142424415118 0
          -0.0007757402009529457 0.008679098340056812 0 -0.0003570318666796801 0.008446586471721362 0
          -0.0010632581936897978 0.008112887936993718 0 -0.00032015085388947817 0.006567107444052311 0
          0 0 0 -0.00044118862013542426 0.008116653665992901 0
          -0.0012291496857281814 0.007397164759148478 0 0.0001689115580544298 0.00128633485464269 0
          -0.00012797356370741753 0.007208133401321537 0 -0.0001601611233063016 0.0033426302394713447 0
          -0.001758131352877168 0.006342926255736778 0 -0.0011742368193816688 0.006990208082176874 0
          0 0 0 -0.00029810775746952345 0.006790773989241994 0
          0 0 0 0.00016194999725471781 0.00585172146016244 0
          0.000113480322560644 0.004300022265678605 0 -0.0015299396550911837 0.0037715710105813427 0
          -0.00017784109988294716 0.0020019338081966875 0 0 0 0
          -0.0012593253381667502 0.0037047854222003254 0 -0.0005893952006053027 0.004071178233003125 0
          0.00007947891159942877 0.003559971890595426 0 0.00027053068627658217 0.0029273366817728075 0
          0.00007740272736400655 0.0016956509389970398 0 0 0 0
          0 0 0 0 0 0
          0 0 0 0 0 0
          0 0 0 0 0 0
          0 0 0 0 0 0
          0.0009694343374326841 0.003926283111392259 0 0 0 0
          -0.0005249593092258031 0.008312498885089115 0 -0.00004000669252413047 0.00797179310565932 0
          0.0003686281193866492 0.007453178790586268 0 0.0005625533886233214 0.006832621850899057 0
          0.0008491131123733453 0.005925206775883263 0 0.0008947775017000836 0.005190112394673041 0
          -0.0010532784908359183 0.008608737577954217 0 -0.001848770903526642 0.008627413617854351 0
          <InformationKey name="L2_NORM_RANGE" location="vtkDataArray" length="2">
            <Value index="0">
              0
            </Value>
            <Value index="1">
              0.010058059484
            </Value>
          </InformationKey>
        </DataArray>
      </PointData>
      <CellData>
        <DataArray type="UInt8" Name="vtkGhostType" format="ascii" RangeMin="0" RangeMax="1">
          0 0 0 0 0 0
          0 0 1 0 0 1
          0 1 0 0 1 1
          1 0 0 0 0 0
          1 1 0 1 1 0
          1 1 0 1 0 0
          0 0 0 0 0 0
          0 0 0 0 0 0
          0 0 0 0 0 0
          0 0 0 0 0 0
          0 0 0 0 0 0
          0 0 0 0 0 0
          0 0 0 0 0 0
          0 0 0 0 0 0
          0 1 0 0 0 0
          0 0 0 1 0 0
          0 0 0 0 0 1
          0 0 0 0 0 0
          0 0 0 0 0 0
          0 0 0 0 0 0
          0 0 0 0 0 0
          0 0 0 0 0 0
          0 1 0 0 0 0
          0 0 0 0 0 0
          0 0 0 0 0 0
        </DataArray>
        <DataArray type="Float64" Name="PStrain" NumberOfComponents="6" format="ascii" RangeMin="0.00647408423862398" RangeMax="2.2336479908027234">
          0.009841622871768962 0.009841622871768962 0 0.009841622871768962 0 0
          0.01196122548883986 0.01196122548883986 0 0.01196122548883986 0 0
          0.014532790056006547 0.014532790056006547 0 0.014532790056006547 0 0
          0.011754663674951331 0.011754663674951331 0 0.011754663674951331 0 0
          0.008545198849285082 0.008545198849285082 0 0.008545198849285082 0 0
          0.008137558518216789 0.008137558518216789 0 0.008137558518216789 0 0
          0.007395990008772425 0.007395990008772425 0 0.007395990008772425 0 0
          0.01037374853143442 0.01037374853143442 0 0.01037374853143442 0 0
          0.008971704070077743 0.008971704070077743 0 0.008971704070077743 0 0
          0.007404865311647477 0.007404865311647477 0 0.007404865311647477 0 0
          0.009186332733597386 0.009186332733597386 0 0.009186332733597386 0 0
          0.005716857425958713 0.005716857425958713 0 0.005716857425958713 0 0
          0.0070413113840462616 0.0070413113840462616 0 0.0070413113840462616 0 0
          0.0046731560841570974 0.0046731560841570974 0 0.0046731560841570974 0 0
          0.07552926035549995 0.07552926035549995 0 0.07552926035549995 0 0
          0.05093599089730278 0.05093599089730278 0 0.05093599089730278 0 0
          0.08883516631435995 0.08883516631435995 0 0.08883516631435995 0 0
          0.09076172680298897 0.09076172680298897 0 0.09076172680298897 0 0
          0.04503074402356865 0.04503074402356865 0 0.04503074402356865 0 0
          0.05234041447291107 0.05234041447291107 0 0.05234041447291107 0 0
          0.040309782393287516 0.040309782393287516 0 0.040309782393287516 0 0
          0.023246324278007425 0.023246324278007425 0 0.023246324278007425 0 0
          0.01982307078923272 0.01982307078923272 0 0.01982307078923272 0 0
          0.023291830905513823 0.023291830905513823 0 0.023291830905513823 0 0
          0.041354647304422495 0.041354647304422495 0 0.041354647304422495 0 0
          0.02430771744911456 0.02430771744911456 0 0.02430771744911456 0 0
          0.021034143447132315 0.021034143447132315 0 0.021034143447132315 0 0
          0.027930339079703367 0.027930339079703367 0 0.027930339079703367 0 0
          0.01691774366527946 0.01691774366527946 0 0.01691774366527946 0 0
          0.024188438767532752 0.024188438767532752 0 0.024188438767532752 0 0
          0.015239728046475682 0.015239728046475682 0 0.015239728046475682 0 0
          0.012998496399761268 0.012998496399761268 0 0.012998496399761268 0 0
          0.014644013928569045 0.014644013928569045 0 0.014644013928569045 0 0
          0.0068520384489669395 0.0068520384489669395 0 0.0068520384489669395 0 0
          0.09999999999999999 0.09999999999999999 0 0.09999999999999999 0 0
          0.004823715299339908 0.004823715299339908 0 0.004823715299339908 0 0
          0.011516539088720091 0.011516539088720091 0 0.011516539088720091 0 0
          0.007407690275337128 0.007407690275337128 0 0.007407690275337128 0 0
          0.0054725529284712065 0.0054725529284712065 0 0.0054725529284712065 0 0
          0.013968183060619636 0.013968183060619636 0 0.013968183060619636 0 0
          0.027534111570701535 0.027534111570701535 0 0.027534111570701535 0 0
          0.03288616171103835 0.03288616171103835 0 0.03288616171103835 0 0
          0.013272714142843017 0.013272714142843017 0 0.013272714142843017 0 0
          0.04288551747782539 0.04288551747782539 0 0.04288551747782539 0 0
          0.01965753311891204 0.01965753311891204 0 0.01965753311891204 0 0
          0.05572158006738202 0.05572158006738202 0 0.05572158006738202 0 0
          0.01236280302776822 0.01236280302776822 0 0.01236280302776822 0 0
          0.008034860640172961 0.008034860640172961 0 0.008034860640172961 0 0
          0.049519019643812036 0.049519019643812036 0 0.049519019643812036 0 0
          0.03165157729242614 0.03165157729242614 0 0.03165157729242614 0 0
          0.03684179165707123 0.03684179165707123 0 0.03684179165707123 0 0
          0.024435557040488692 0.024435557040488692 0 0.024435557040488692 0 0
          0.010014760652957509 0.010014760652957509 0 0.010014760652957509 0 0
          0.015416361534417541 0.015416361534417541 0 0.015416361534417541 0 0
          0.029533512334881364 0.029533512334881364 0 0.029533512334881364 0 0
          0.029625118996448117 0.029625118996448117 0 0.029625118996448117 0 0
          0.02732593805308138 0.02732593805308138 0 0.02732593805308138 0 0
          0.013087213814826382 0.013087213814826382 0 0.013087213814826382 0 0
          0.016866434799125442 0.016866434799125442 0 0.016866434799125442 0 0
          0.012044756739247688 0.012044756739247688 0 0.012044756739247688 0 0
          0.004211312638732879 0.004211312638732879 0 0.004211312638732879 0 0
          0.007412586083016618 0.007412586083016618 0 0.007412586083016618 0 0
          0.013535745332632663 0.013535745332632663 0 0.013535745332632663 0 0
          0.011006101361180291 0.011006101361180291 0 0.011006101361180291 0 0
          0.009129696746122257 0.009129696746122257 0 0.009129696746122257 0 0
          0.006179186361760203 0.006179186361760203 0 0.006179186361760203 0 0
          0.003737814277925868 0.003737814277925868 0 0.003737814277925868 0 0
          1.289597268764819 1.289597268764819 0 1.289597268764819 0 0
          0.8276428336766195 0.8276428336766195 0 0.8276428336766195 0 0
          0.8461185430277365 0.8461185430277365 0 0.8461185430277365 0 0
          0.8817863999795701 0.8817863999795701 0 0.8817863999795701 0 0
          0.20749885565436865 0.20749885565436865 0 0.20749885565436865 0 0
          0.23255628209875057 0.23255628209875057 0 0.23255628209875057 0 0
          1.1207919889732927 1.1207919889732927 0 1.1207919889732927 0 0
          0.5611498994743715 0.5611498994743715 0 0.5611498994743715 0 0
          0.14846943665440865 0.14846943665440865 0 0.14846943665440865 0 0
          0.22812669381038336 0.22812669381038336 0 0.22812669381038336 0 0
          0.0596203225843991 0.0596203225843991 0 0.0596203225843991 0 0
          0.29616085645076023 0.29616085645076023 0 0.29616085645076023 0 0
          0.20533151984238998 0.20533151984238998 0 0.20533151984238998 0 0
          0.19381899654485618 0.19381899654485618 0 0.19381899654485618 0 0
          0.5517960502645993 0.5517960502645993 0 0.5517960502645993 0 0
          0.1554369618613061 0.1554369618613061 0 0.1554369618613061 0 0
          0.24111312547091823 0.24111312547091823 0 0.24111312547091823 0 0
          0.12049874600669919 0.12049874600669919 0 0.12049874600669919 0 0
          0.2672383758833701 0.2672383758833701 0 0.2672383758833701 0 0
          0.0814518905275603 0.0814518905275603 0 0.0814518905275603 0 0
          0.054392008865288506 0.054392008865288506 0 0.054392008865288506 0 0
          0.35791346522571776 0.35791346522571776 0 0.35791346522571776 0 0
          0.06992049860340296 0.06992049860340296 0 0.06992049860340296 0 0
          0.02154845593837916 0.02154845593837916 0 0.02154845593837916 0 0
          0.07949992575092268 0.07949992575092268 0 0.07949992575092268 0 0
          0.02714591360778635 0.02714591360778635 0 0.02714591360778635 0 0
          0.24611503058812628 0.24611503058812628 0 0.24611503058812628 0 0
          0.14272261319450802 0.14272261319450802 0 0.14272261319450802 0 0
          0.07967529681791655 0.07967529681791655 0 0.07967529681791655 0 0
          0.30507902447699786 0.30507902447699786 0 0.30507902447699786 0 0
          0.09095439109051798 0.09095439109051798 0 0.09095439109051798 0 0
          0.05137187745699727 0.05137187745699727 0 0.05137187745699727 0 0
          0.14341547873267546 0.14341547873267546 0 0.14341547873267546 0 0
          0.07312586739550767 0.07312586739550767 0 0.07312586739550767 0 0
          0.14363051817901024 0.14363051817901024 0 0.14363051817901024 0 0
          0.032896350408897025 0.032896350408897025 0 0.032896350408897025 0 0
          0.1762455927324273 0.1762455927324273 0 0.1762455927324273 0 0
          0.16449293914379998 0.16449293914379998 0 0.16449293914379998 0 0
          0.18565007455034338 0.18565007455034338 0 0.18565007455034338 0 0
          0.03183480108420642 0.03183480108420642 0 0.03183480108420642 0 0
          0.028779827448010352 0.028779827448010352 0 0.028779827448010352 0 0
          0.14552425519489226 0.14552425519489226 0 0.14552425519489226 0 0
          0.08763825636680388 0.08763825636680388 0 0.08763825636680388 0 0
          0.08254163978746898 0.08254163978746898 0 0.08254163978746898 0 0
          0.027165107403142437 0.027165107403142437 0 0.027165107403142437 0 0
          0.17307294984410138 0.17307294984410138 0 0.17307294984410138 0 0
          0.0437952187620511 0.0437952187620511 0 0.0437952187620511 0 0
          0.0695295803610406 0.0695295803610406 0 0.0695295803610406 0 0
          0.04825557538425961 0.04825557538425961 0 0.04825557538425961 0 0
          0.07078263063923035 0.07078263063923035 0 0.07078263063923035 0 0
          0.05582513089531474 0.05582513089531474 0 0.05582513089531474 0 0
          0.03650796602801253 0.03650796602801253 0 0.03650796602801253 0 0
          0.08391684185204029 0.08391684185204029 0 0.08391684185204029 0 0
          0.09931675789628117 0.09931675789628117 0 0.09931675789628117 0 0
          0.09200881271554583 0.09200881271554583 0 0.09200881271554583 0 0
          0.01480786088923303 0.01480786088923303 0 0.01480786088923303 0 0
          0.10343599483870206 0.10343599483870206 0 0.10343599483870206 0 0
          0.09030690923911944 0.09030690923911944 0 0.09030690923911944 0 0
          0.02765002405124916 0.02765002405124916 0 0.02765002405124916 0 0
          0.049334463218356994 0.049334463218356994 0 0.049334463218356994 0 0
          0.06603951181721554 0.06603951181721554 0 0.06603951181721554 0 0
          0.06785707986760012 0.06785707986760012 0 0.06785707986760012 0 0
          0.25852589603645904 0.25852589603645904 0 0.25852589603645904 0 0
          0.030728202977815165 0.030728202977815165 0 0.030728202977815165 0 0
          0.016706627303646134 0.016706627303646134 0 0.016706627303646134 0 0
          0.05600182268508039 0.05600182268508039 0 0.05600182268508039 0 0
          0.24843041591183035 0.24843041591183035 0 0.24843041591183035 0 0
          0.07215295964014304 0.07215295964014304 0 0.07215295964014304 0 0
          0.11576743570131551 0.11576743570131551 0 0.11576743570131551 0 0
          0.1124000555235273 0.1124000555235273 0 0.1124000555235273 0 0
          0.05428576494186485 0.05428576494186485 0 0.05428576494186485 0 0
          0.0177540570748905 0.0177540570748905 0 0.0177540570748905 0 0
          0.014876303562514136 0.014876303562514136 0 0.014876303562514136 0 0
          0.03728175417655845 0.03728175417655845 0 0.03728175417655845 0 0
          0.011516539088720096 0.011516539088720096 0 0.011516539088720096 0 0
          0.07929453644036785 0.07929453644036785 0 0.07929453644036785 0 0
          0.014952010492508393 0.014952010492508393 0 0.014952010492508393 0 0
          0.04162200940021293 0.04162200940021293 0 0.04162200940021293 0 0
          0.025784789905171808 0.025784789905171808 0 0.025784789905171808 0 0
          0.0256487486030574 0.0256487486030574 0 0.0256487486030574 0 0
          0.036641189865283766 0.036641189865283766 0 0.036641189865283766 0 0
          0.039211157070148064 0.039211157070148064 0 0.039211157070148064 0 0