<?xml version="1.0"?>
<VTKFile type="UnstructuredGrid" version="0.1" byte_order="LittleEndian" header_type="UInt32" compressor="vtkZLibDataCompressor">
  <UnstructuredGrid>
    <Piece NumberOfPoints="82" NumberOfCells="0">
      <PointData>
        <DataArray type="Float64" Name="nsi_BC" NumberOfComponents="3" format="ascii" RangeMin="0" RangeMax="0">
          0 0 0 0 0 0
          0 0 0 0 0 0
          0 0 0 0 0 0
          0 0 0 0 0 0
          0 0 0 0 0 0
          0 0 0 0 0 0
          0 0 0 0 0 0
          0 0 0 0 0 0
          0 0 0 0 0 0
          0 0 0 0 0 0
          0 0 0 0 0 0
          0 0 0 0 0 0
          0 0 0 0 0 0
          0 0 0 0 0 0
          0 0 0 0 0 0
          0 0 0 0 0 0
          0 0 0 0 0 0
          0 0 0 0 0 0
          0 0 0 0 0 0
          0 0 0 0 0 0
          0 0 0 0 0 0
          0 0 0 0 0 0
          0 0 0 0 0 0
          0 0 0 0 0 0
          0 0 0 0 0 0
          0 0 0 0 0 0
          0 0 0 0 0 0
          0 0 0 0 0 0
          0 0 0 0 0 0
          0 0 0 0 0 0
          0 0 0 0 0 0
          0 0 0 0 0 0
          0 0 0 0 0 0
          0 0 0 0 0 0
          0 0 0 0 0 0
          0 0 0 0 0 0
          0 0 0 0 0 0
          0 0 0 0 0 0
          0 0 0 0 0 0
          0 0 0 0 0 0
          0 0 0 0 0 0
          <InformationKey name="L2_NORM_RANGE" location="vtkDataArray" length="2">
            <Value index="0">
              0
            </Value>
            <Value index="1">
              0
            </Value>
          </InformationKey>
        </DataArray>
        <DataArray type="Float64" Name="nsi_FIXNO" NumberOfComponents="3" format="ascii" RangeMin="1" RangeMax="1.4142135623730951">
          -1 -1 0 -1 -1 0
          1 0 0 -1 -1 0
          -1 -1 0 -1 -1 0
          -1 -1 0 -1 -1 0
          1 0 0 -1 -1 0
          1 0 0 -1 -1 0
          -1 -1 0 -1 -1 0
          -1 -1 0 1 0 0
          -1 -1 0 1 0 0
          -1 -1 0 -1 -1 0
          -1 -1 0 -1 -1 0
          -1 -1 0 -1 -1 0
          -1 -1 0 1 0 0
          1 0 0 -1 -1 0
          -1 -1 0 -1 -1 0
          -1 -1 0 -1 -1 0
          -1 -1 0 -1 -1 0
          -1 -1 0 -1 -1 0
          -1 -1 0 -1 -1 0
          -1 -1 0 -1 -1 0
          1 0 0 1 0 0
          -1 -1 0 -1 -1 0
          1 0 0 1 0 0
          -1 -1 0 -1 -1 0
          -1 -1 0 -1 -1 0
          1 0 0 -1 -1 0
          -1 -1 0 -1 -1 0
          1 0 0 1 0 0
          -1 -1 0 1 0 0
          -1 -1 0 -1 -1 0
          -1 -1 0 -1 -1 0
          -1 -1 0 1 0 0
          -1 -1 0 1 0 0
          -1 -1 0 -1 -1 0
          -1 -1 0 1 0 0
          -1 -1 0 -1 -1 0
          1 0 0 -1 -1 0
          -1 -1 0 -1 -1 0
          1 0 0 -1 -1 0
          -1 -1 0 -1 -1 0
          -1 -1 0 -1 -1 0
          <InformationKey name="L2_NORM_RANGE" location="vtkDataArray" length="2">
            <Value index="0">
              1
            </Value>
            <Value index="1">
              1.4142135624
            </Value>
          </InformationKey>
        </DataArray>
      </PointData>
      <CellData>
        <DataArray type="UInt8" Name="vtkGhostType" format="ascii" RangeMin="0" RangeMax="1">
          1 1 1 1 1 1
          0 0 0 0 0 0
          0 0 0 0 0 0
          0 0 0 0 0 0
          0 0 0 0 0 0
          0 0
        </DataArray>
      </CellData>
      <Points>
        <DataArray type="Float32" Name="Points" NumberOfComponents="3" format="ascii" RangeMin="2.6204938888549805" RangeMax="14.14161310867357">
          8.954882621765137 1.125633955001831 0 9.248306274414062 3.769001007080078 0
          8.412951469421387 0 0 8.412951469421387 2.2512669563293457 0
          7.871018886566162 1.125633955001831 0 9.787784576416016 6.643366813659668 0
          8.799636840820312 5.206761837005615 0 7.964282035827637 3.6890289783477783 0
          7.329086780548096 0 0 7.283721923828125 2.2820630073547363 0
          9.491908073425293 8 0 8.50376033782959 6.563395023345947 0
          6.741789817810059 1.1564290523529053 0 7.515613079071045 5.126791000366211 0
          6.835052967071533 3.7198240756988525 0 6.1931471824646 0 0
          6.154493808746338 2.3128581047058105 0 8.407225608825684 8 0
          7.4190778732299805 6.563395023345947 0 6.4895339012146 4.672304153442383 0
          5.605851173400879 1.1564290523529053 0 6.619455814361572 5.481435775756836 0
          5.808973789215088 3.2653369903564453 0 5.441469192504883 1.9511979818344116 0
          5.364596843719482 2.658724069595337 0 5.057207107543945 0 0
          7.322544097900391 8 0 4.892826080322266 0.7947694063186646 0
          5.4634552001953125 4.2178168296813965 0 6.522921085357666 6.918041229248047 0
          5.593377113342285 5.026949882507324 0 4.728445053100586 1.5895390510559082 0
          5.019076824188232 3.611203908920288 0 5.723298072814941 5.8360819816589355 0
          4.651572227478027 2.297065019607544 0 4.981727123260498 4.1089091300964355 0
          5.019076824188232 4.6066131591796875 0 4.574699878692627 3.0045900344848633 0
          5.148999214172363 5.415746212005615 0 4.537350177764893 3.5022950172424316 0
          6.185208797454834 8 0 4.5 4 0
          4.054769992828369 2.0480599403381348 0 4.537350177764893 4.497704982757568 0
          4.25 3.5669870376586914 0 3.838850975036621 0 0
          5.385585784912109 6.918041229248047 0 4.162350177764893 3.2857890129089355 0
          3.977897882461548 2.755584955215454 0 3.674468994140625 0.7947694063186646 0
          3.75 3.5669870376586914 0 3.5655479431152344 3.0367839336395264 0
          3.3810958862304688 2.5065810680389404 0 3.0007948875427246 1.253290057182312 0
          9.496814727783203 0 0 11.661270141601562 8 0
          10.083660125732422 5.286734104156494 0 10.576589584350586 8 0
          10.872469902038574 6.643366813659668 0 10.975410461425781 2.7158799171447754 0
          10.236109733581543 1.3579399585723877 0 9.69417953491211 2.4835739135742188 0
          10.529540061950684 4.001307010650635 0 3.75 4.433012962341309 0
          2.8785550594329834 3.8529679775238037 0 3.5 4 0
          3.314276933670044 4.1429901123046875 0 3.314276933670044 3.7099781036376953 0
          4.574699878692627 4.995409965515137 0 4.25 4.433012962341309 0
          4.162350177764893 4.7142109870910645 0 3.129826068878174 3.179774045944214 0
          2.6204938888549805 0 0 4.232917785644531 6.667374134063721 0
          4.978107929229736 6.251728057861328 0 4.403809070587158 5.83139181137085 0
          5.0478739738464355 8 0 4.6403961181640625 7.333686828613281 0
          1.7623389959335327 2.8783669471740723 0 2.3204469680786133 3.3656671047210693 0
          2.5717179775238037 2.692473888397217 0 2.1914169788360596 1.439182996749878 0
          <InformationKey name="L2_NORM_RANGE" location="vtkDataArray" length="2">
            <Value index="0">
              2.6204938889
            </Value>
            <Value index="1">
              14.141613109
            </Value>
          </InformationKey>
        </DataArray>
      </Points>
      <Cells>
        <DataArray type="Int64" Name="connectivity" format="ascii" RangeMin="1e+299" RangeMax="-1e+299">
        </DataArray>
        <DataArray type="Int64" Name="offsets" format="ascii" RangeMin="1e+299" RangeMax="-1e+299">
        </DataArray>
        <DataArray type="UInt8" Name="types" format="ascii" RangeMin="1e+299" RangeMax="-1e+299">
        </DataArray>
      </Cells>
    </Piece>
  </UnstructuredGrid>
</VTKFile>
