<?xml version="1.0"?>
<VTKFile type="UnstructuredGrid" version="0.1" byte_order="LittleEndian" header_type="UInt32" compressor="vtkZLibDataCompressor">
  <UnstructuredGrid>
    <Piece NumberOfPoints="82" NumberOfCells="0">
      <PointData>
        <DataArray type="Float64" Name="nsi_BC" NumberOfComponents="3" format="ascii" RangeMin="0" RangeMax="0">
          0 0 0 0 0 0
          0 0 0 0 0 0
          0 0 0 0 0 0
          0 0 0 0 0 0
          0 0 0 0 0 0
          0 0 0 0 0 0
          0 0 0 0 0 0
          0 0 0 0 0 0
          0 0 0 0 0 0
          0 0 0 0 0 0
          0 0 0 0 0 0
          0 0 0 0 0 0
          0 0 0 0 0 0
          0 0 0 0 0 0
          0 0 0 0 0 0
          0 0 0 0 0 0
          0 0 0 0 0 0
          0 0 0 0 0 0
          0 0 0 0 0 0
          0 0 0 0 0 0
          0 0 0 0 0 0
          0 0 0 0 0 0
          0 0 0 0 0 0
          0 0 0 0 0 0
          0 0 0 0 0 0
          0 0 0 0 0 0
          0 0 0 0 0 0
          0 0 0 0 0 0
          0 0 0 0 0 0
          0 0 0 0 0 0
          0 0 0 0 0 0
          0 0 0 0 0 0
          0 0 0 0 0 0
          0 0 0 0 0 0
          0 0 0 0 0 0
          0 0 0 0 0 0
          0 0 0 0 0 0
          0 0 0 0 0 0
          0 0 0 0 0 0
          0 0 0 0 0 0
          0 0 0 0 0 0
          <InformationKey name="L2_NORM_RANGE" location="vtkDataArray" length="2">
            <Value index="0">
              0
            </Value>
            <Value index="1">
              0
            </Value>
          </InformationKey>
        </DataArray>
        <DataArray type="Float64" Name="nsi_FIXNO" NumberOfComponents="3" format="ascii" RangeMin="1" RangeMax="1.4142135623730951">
          -1 -1 0 -1 -1 0
          1 0 0 -1 -1 0
          -1 -1 0 -1 -1 0
          -1 -1 0 -1 -1 0
          1 0 0 -1 -1 0
          1 0 0 -1 -1 0
          -1 -1 0 -1 -1 0
          -1 -1 0 1 0 0
          -1 -1 0 1 0 0
          -1 -1 0 -1 -1 0
          -1 -1 0 -1 -1 0
          -1 -1 0 -1 -1 0
          -1 -1 0 1 0 0
          1 0 0 -1 -1 0
          -1 -1 0 -1 -1 0
          -1 -1 0 -1 -1 0
          -1 -1 0 -1 -1 0
          -1 -1 0 -1 -1 0
          -1 -1 0 -1 -1 0
          -1 -1 0 -1 -1 0
          1 0 0 1 0 0
          -1 -1 0 -1 -1 0
          1 0 0 1 0 0
          -1 -1 0 -1 -1 0
          -1 -1 0 -1 -1 0
          1 0 0 -1 -1 0
          -1 -1 0 -1 -1 0
          1 0 0 1 0 0
          -1 -1 0 1 0 0
          -1 -1 0 -1 -1 0
          -1 -1 0 -1 -1 0
          -1 -1 0 1 0 0
          -1 -1 0 1 0 0
          -1 -1 0 -1 -1 0
          -1 -1 0 1 0 0
          -1 -1 0 -1 -1 0
          1 0 0 -1 -1 0
          -1 -1 0 -1 -1 0
          1 0 0 -1 -1 0
          -1 -1 0 -1 -1 0
          -1 -1 0 -1 -1 0
          <InformationKey name="L2_NORM_RANGE" location="vtkDataArray" length="2">
            <Value index="0">
              1
            </Value>
            <Value index="1">
              1.4142135624
            </Value>
          </InformationKey>
        </DataArray>
        <DataArray type="Float64" Name="Velocity" NumberOfComponents="3" format="ascii" RangeMin="2.288490643273977" RangeMax="77.40794422773877">
          11.419819751567552 -0.05641962484851095 0 10.778133923543574 -0.16503023510940576 0
          13.357490118723474 -1.0261753068548667e-14 0 11.728716737863646 -0.17821835492890373 0
          15.59530036398867 0.5395393037831159 0 11.553187710191313 0.3793524850538906 0
          10.49742739432969 -0.05497208195715632 0 10.257170338714722 0.3454913281060183 0
          17.940480269861027 3.005198585824649e-14 0 13.865526372476449 2.403191996739327 0
          11.7432738514512 2.794600542789284e-14 0 11.911157447132155 -0.6840274255147453 0
          16.297492480530074 2.959207034915124 0 13.122416048932127 -1.6536004270767146 0
          16.423070439766192 -0.19322382228016288 0 23.804013750550784 -1.7448829128818404e-15 0
          20.268562651359638 3.00556841072169 0 13.474383943101849 -2.430781022754514e-14 0
          15.493595564464488 -2.0849632743068915 0 16.302322712348644 -0.7144491489986416 0
          38.19836056721485 4.4530278429944765 0 16.028213095435746 -2.161470550778754 0
          20.494508695010484 1.9599382870966737 0 41.491342260002995 7.571093023724452 0
          30.30603326517789 10.47675005752639 0 38.954905726447194 -6.062131482362457e-14 0
          16.577419496469417 -6.212137219266921e-16 0 36.42624436148173 -0.7265639975040926 0
          19.21124355068871 -0.10155624014920596 0 17.092278038499064 -2.210590305167303 0
          22.692106568706453 -3.115599811881654 0 33.92568746441171 4.977194194443149 0
          25.882426598483157 5.83388325106975 0 23.091992810593784 -3.3164859586291047 0
          44.39145117122045 16.292690664901446 0 18.63490134751765 -2.2042687206495915 0
          30.78010016799505 -6.981554963760769 0 45.45057246754287 15.845125045800591 0
          34.461252540561276 -5.643671313982324 0 38.145931645134674 16.507825605470053 0
          18.07750845974952 2.3161128063469793e-14 0 4.615053306449175e-15 -2.999964927553936 0
          28.700458935965052 2.5365110664713737 0 36.76261586626926 -15.195254097387695 0
          67.03723461799491 38.703992098188266 0 28.26208246464301 1.4486468553175263e-14 0
          28.481671337864327 -1.6291047238432337 0 58.14140698796163 4.361075726973565 0
          41.36338715591147 7.393001538924473 0 25.38583547150969 0.6261509139803243 0
          20.379553441612437 -11.76614876588382 0 41.91951643103287 -6.918954391938098 0
          24.12257669782299 -2.5519560559018823 0 27.512166567616873 -1.5012685569226405 0
          10.947143229873252 2.5335171764409594e-14 0 13.485110712070098 3.785365808003742e-14 0
          12.322230860672699 0.09260206457396924 0 13.45894154948234 -3.04791169369854e-14 0
          14.015451298151683 0.39302950751362936 0 12.541951058215686 0.3342678127363279 0
          11.079238610712778 -0.22772776532121325 0 11.479698697472804 -0.4523506250883132 0
          12.83494406588021 -0.1548616233903283 0 19.083312930410507 11.017763442581161 0
          14.257429170079549 -0.3958936194462129 0 5.670479581807452e-15 3.931768805189587 0
          28.086725129484236 12.56304965587073 0 30.05738222663715 -11.40276725775182 0
          42.09375802750468 -9.674699906518768 0 62.2567612656933 -35.94398262125486 0
          50.280586456111905 -2.0433970048746195 0 25.34056760508824 -5.630586408616581 0
          2.288490643273977 -1.5071959562312284e-16 0 32.48360119824429 2.1247706639567623 0
          36.530558889756286 -1.2658949889075692 0 40.770688462308335 -2.588989460542396 0
          32.86839236562163 -3.718648580285277e-14 0 35.97772876295797 1.4154763600977707 0
          4.222878291712569 -4.159651290202009 0 23.23414931297991 -3.2713370552721313 0
          26.99263107041075 -4.3368528153348 0 9.952881857789695 -2.400548487784947 0
          <InformationKey name="L2_NORM_RANGE" location="vtkDataArray" length="2">
            <Value index="0">
              2.2884906433
            </Value>
            <Value index="1">
              77.407944228
            </Value>
          </InformationKey>
        </DataArray>
        <DataArray type="Float64" Name="Pressure" format="ascii" RangeMin="366070.353186954" RangeMax="1394710.8368772469">
          526505.044347175 517786.1529373904 559997.5874174399 557995.4390816687 593194.4525517983 488114.839532543
          539981.4512740994 580592.2241072219 637179.4937262214 627558.8514066499 502125.81229848845 556398.0253800912
          682191.4606807583 606253.4631089377 648824.5811283988 753317.7047328933 716254.1127727947 566248.6794981053
          627018.6436026667 680887.4925045673 816322.8360416269 675939.9908954492 744906.3755184296 833182.0648881
          812901.7311847125 942882.8425365178 643512.256192788 978365.7669030678 770614.1442017071 700340.91656042
          763346.4809852437 997399.351675906 826234.0377227474 760252.7278344167 968218.9575076294 824757.4167312956
          830273.2262531179 928776.405425065 833940.3411653673 898535.0749851364 734832.9517097687 874791.5023005181
          1094939.1887222973 899970.9148800406 964064.5266544803 1135160.451593987 815170.0122642403 1022034.0758429342
          1081476.5489995538 1155635.0920768492 1148783.368162917 1163828.0293475827 1190314.3576428087 1233294.7269627368
          497521.73076183116 366070.353186954 473107.56110531295 437404.18398939224 419792.4466340736 419113.9679690727
          461037.35534080927 490858.8942440883 445494.1500963649 1130605.011026483 1289681.8462251085 1215831.7300174201
          1231047.960655877 1231282.8473448248 925764.1769598542 960314.2990925417 1009854.7314923418 1243511.850225502
          1271812.1594949625 1021559.4407705681 875769.2245795118 984059.1391089716 865642.1872562172 941122.3740607749
          1394710.8368772469 1342382.1179106603 1302955.9519994718 1324045.136982262
        </DataArray>
      </PointData>
      <CellData>
        <DataArray type="UInt8" Name="vtkGhostType" format="ascii" RangeMin="0" RangeMax="1">
          1 1 1 1 1 1
          0 0 0 0 0 0
          0 0 0 0 0 0
          0 0 0 0 0 0
          0 0 0 0 0 0
          0 0
        </DataArray>
      </CellData>
      <Points>
        <DataArray type="Float32" Name="Points" NumberOfComponents="3" format="ascii" RangeMin="2.6204938888549805" RangeMax="14.14161310867357">
          8.954882621765137 1.125633955001831 0 9.248306274414062 3.769001007080078 0
          8.412951469421387 0 0 8.412951469421387 2.2512669563293457 0
          7.871018886566162 1.125633955001831 0 9.787784576416016 6.643366813659668 0
          8.799636840820312 5.206761837005615 0 7.964282035827637 3.6890289783477783 0
          7.329086780548096 0 0 7.283721923828125 2.2820630073547363 0
          9.491908073425293 8 0 8.50376033782959 6.563395023345947 0
          6.741789817810059 1.1564290523529053 0 7.515613079071045 5.126791000366211 0
          6.835052967071533 3.7198240756988525 0 6.1931471824646 0 0
          6.154493808746338 2.3128581047058105 0 8.407225608825684 8 0
          7.4190778732299805 6.563395023345947 0 6.4895339012146 4.672304153442383 0
          5.605851173400879 1.1564290523529053 0 6.619455814361572 5.481435775756836 0
          5.808973789215088 3.2653369903564453 0 5.441469192504883 1.9511979818344116 0
          5.364596843719482 2.658724069595337 0 5.057207107543945 0 0
          7.322544097900391 8 0 4.892826080322266 0.7947694063186646 0
          5.4634552001953125 4.2178168296813965 0 6.522921085357666 6.918041229248047 0
          5.593377113342285 5.026949882507324 0 4.728445053100586 1.5895390510559082 0
          5.019076824188232 3.611203908920288 0 5.723298072814941 5.8360819816589355 0
          4.651572227478027 2.297065019607544 0 4.981727123260498 4.1089091300964355 0
          5.019076824188232 4.6066131591796875 0 4.574699878692627 3.0045900344848633 0
          5.148999214172363 5.415746212005615 0 4.537350177764893 3.5022950172424316 0
          6.185208797454834 8 0 4.5 4 0
          4.054769992828369 2.0480599403381348 0 4.537350177764893 4.497704982757568 0
          4.25 3.5669870376586914 0 3.838850975036621 0 0
          5.385585784912109 6.918041229248047 0 4.162350177764893 3.2857890129089355 0
          3.977897882461548 2.755584955215454 0 3.674468994140625 0.7947694063186646 0
          3.75 3.5669870376586914 0 3.5655479431152344 3.0367839336395264 0
          3.3810958862304688 2.5065810680389404 0 3.0007948875427246 1.253290057182312 0
          9.496814727783203 0 0 11.661270141601562 8 0
          10.083660125732422 5.286734104156494 0 10.576589584350586 8 0
          10.872469902038574 6.643366813659668 0 10.975410461425781 2.7158799171447754 0
          10.236109733581543 1.3579399585723877 0 9.69417953491211 2.4835739135742188 0
          10.529540061950684 4.001307010650635 0 3.75 4.433012962341309 0
          2.8785550594329834 3.8529679775238037 0 3.5 4 0
          3.314276933670044 4.1429901123046875 0 3.314276933670044 3.7099781036376953 0
          4.574699878692627 4.995409965515137 0 4.25 4.433012962341309 0
          4.162350177764893 4.7142109870910645 0 3.129826068878174 3.179774045944214 0
          2.6204938888549805 0 0 4.232917785644531 6.667374134063721 0
          4.978107929229736 6.251728057861328 0 4.403809070587158 5.83139181137085 0
          5.0478739738464355 8 0 4.6403961181640625 7.333686828613281 0
          1.7623389959335327 2.8783669471740723 0 2.3204469680786133 3.3656671047210693 0
          2.5717179775238037 2.692473888397217 0 2.1914169788360596 1.439182996749878 0
          <InformationKey name="L2_NORM_RANGE" location="vtkDataArray" length="2">
            <Value index="0">
              2.6204938889
            </Value>
            <Value index="1">
              14.141613109
            </Value>
          </InformationKey>
        </DataArray>
      </Points>
      <Cells>
        <DataArray type="Int64" Name="connectivity" format="ascii" RangeMin="1e+299" RangeMax="-1e+299">
        </DataArray>
        <DataArray type="Int64" Name="offsets" format="ascii" RangeMin="1e+299" RangeMax="-1e+299">
        </DataArray>
        <DataArray type="UInt8" Name="types" format="ascii" RangeMin="1e+299" RangeMax="-1e+299">
        </DataArray>
      </Cells>
    </Piece>
  </UnstructuredGrid>
</VTKFile>
