<?xml version="1.0"?>
<VTKFile type="UnstructuredGrid" version="0.1" byte_order="LittleEndian" header_type="UInt32" compressor="vtkZLibDataCompressor">
  <UnstructuredGrid>
    <Piece NumberOfPoints="113" NumberOfCells="199">
      <PointData>
        <DataArray type="Float64" Name="nsi_BC" NumberOfComponents="3" format="ascii" RangeMin="0" RangeMax="1">
          0 0 0 0 0 0
          0 0 0 0 0 0
          0 0 0 0 0 0
          0 0 0 0 0 0
          0 0 0 0 0 0
          0 0 0 0 0 0
          0 0 0 0 0 0
          0 0 0 0 0 0
          0 0 0 0 0 0
          0 0 0 0 0 0
          0 0 0 0 0 0
          0 0 0 0 0 0
          0 0 0 0 0 0
          0 0 0 0 0 0
          0 0 0 0 0 0
          0 0 0 0 0 0
          0 0 0 0 0 0
          0 0 0 0 0 0
          0 0 0 0 0 0
          0 0 0 0 0 0
          0 0 0 0 0 0
          0 0 0 0 0 0
          0 0 0 0 0 0
          0 0 0 0 0 0
          0 0 0 0 0 0
          0 0 0 0 0 0
          0 0 0 0 0 0
          0 0 0 0 0 0
          0 0 0 0 0 0
          0 0 0 0 0 0
          0 0 0 0 0 0
          0 0 0 0 0 0
          0 0 0 0 0 0
          0 0 0 0 0 0
          0 0 0 0 0 0
          0 0 0 0 0 0
          0 0 0 0 0 0
          0 0 0 0 0 0
          0 0 0 0 0 0
          0 0 0 0 0 0
          0 0 0 0 0 0
          0 0 0 0 0 0
          0 0 0 0 0 0
          0 0 0 0 0 0
          0 0 0 0 0 0
          0 0 0 0 0 0
          0 0 0 0 0 0
          0 0 0 0 0 0
          0 0 0 0 0 0
          0 0 0 0 0 0
          0 0 0 0 0 0
          0 0 0 0 0 0
          0 0 0 0 0 0
          1 0 0 0 0 0
          1 0 0 0 0 0
          1 0 0 1 0 0
          1 0 0
          <InformationKey name="L2_NORM_RANGE" location="vtkDataArray" length="2">
            <Value index="0">
              0
            </Value>
            <Value index="1">
              1
            </Value>
          </InformationKey>
        </DataArray>
        <DataArray type="Float64" Name="nsi_FIXNO" NumberOfComponents="3" format="ascii" RangeMin="1" RangeMax="1.4142135623730951">
          0 1 0 -1 -1 0
          0 1 0 -1 -1 0
          -1 -1 0 0 1 0
          -1 -1 0 -1 -1 0
          -1 -1 0 -1 -1 0
          -1 -1 0 -1 -1 0
          -1 -1 0 -1 -1 0
          0 1 0 -1 -1 0
          -1 -1 0 -1 -1 0
          -1 -1 0 -1 -1 0
          -1 -1 0 -1 -1 0
          -1 -1 0 -1 -1 0
          -1 -1 0 -1 -1 0
          -1 -1 0 0 1 0
          0 1 0 -1 -1 0
          0 1 0 -1 -1 0
          -1 -1 0 -1 -1 0
          -1 -1 0 -1 -1 0
          0 1 0 -1 -1 0
          -1 -1 0 -1 -1 0
          -1 -1 0 -1 -1 0
          -1 -1 0 -1 -1 0
          -1 -1 0 -1 -1 0
          -1 -1 0 -1 -1 0
          0 1 0 0 1 0
          -1 -1 0 -1 -1 0
          -1 -1 0 -1 -1 0
          -1 -1 0 -1 -1 0
          -1 -1 0 -1 -1 0
          -1 -1 0 -1 -1 0
          -1 -1 0 -1 -1 0
          0 1 0 -1 -1 0
          -1 -1 0 -1 -1 0
          -1 -1 0 -1 -1 0
          -1 -1 0 -1 -1 0
          -1 -1 0 0 1 0
          1 1 0 -1 -1 0
          -1 -1 0 -1 -1 0
          -1 -1 0 1 1 0
          0 1 0 -1 -1 0
          -1 -1 0 1 1 0
          -1 -1 0 -1 -1 0
          -1 -1 0 -1 -1 0
          -1 -1 0 -1 -1 0
          -1 -1 0 -1 -1 0
          -1 -1 0 0 1 0
          -1 -1 0 -1 -1 0
          -1 -1 0 0 1 0
          -1 -1 0 -1 -1 0
          -1 -1 0 -1 -1 0
          -1 -1 0 -1 -1 0
          -1 -1 0 -1 -1 0
          -1 -1 0 -1 -1 0
          1 1 0 0 1 0
          1 1 0 -1 -1 0
          1 1 0 1 1 0
          1 1 0
          <InformationKey name="L2_NORM_RANGE" location="vtkDataArray" length="2">
            <Value index="0">
              1
            </Value>
            <Value index="1">
              1.4142135624
            </Value>
          </InformationKey>
        </DataArray>
        <DataArray type="Float64" Name="Velocity" NumberOfComponents="3" format="ascii" RangeMin="0" RangeMax="1.2871108344782098">
          0.8346317096883503 0 0 1.2865537645148553 -0.03786437961789826 0
          0.014891458350419417 0 0 -0.30717963381161173 -0.0006317513828529726 0
          0.8222414088729292 0.058955227641875274 0 0.04451280109372908 0 0
          0.06131893415120917 0.006238556298457788 0 -0.029590937860514175 -0.04596593058350063 0
          0.043721879765423424 0.0001140032249727342 0 0.04204358234175971 -0.003702639572030768 0
          -0.27163828887226776 -0.0012921723629416885 0 0.07736693441065572 0.01478677870911098 0
          0.04723487609294744 0.002622989232487026 0 1.0394488641036583 -0.011288162837938256 0
          0.05255888717097939 0 0 0.05033288170747685 0.004381342593082659 0
          0.044327690348663726 -0.0011903000807137886 0 0.049177468941400695 0.0008522096279857794 0
          0.07244263146309822 -0.002723086538646641 0 -0.22067199802599605 0.00847196868821415 0
          0.06649209998579549 -0.0018132382110615818 0 0.06233970495123129 -0.00034483789566233913 0
          0.04378033732600005 0.0011980569006805727 0 0.05883598158231351 -0.00003944805478061317 0
          0.050521745583316784 0.002349674378120893 0 0.05975372519600785 0.0011260835589931473 0
          0.038888243622873846 0.0008020735207596515 0 0.8688802153291088 0 0
          0.06859079749374358 0 0 0.06652838679692097 -0.0021782783898610086 0
          -0.005676722533421914 0 0 0.06598696926505344 -0.0016376197908200745 0
          0.06039429831799269 0.00192896450450813 0 0.05160535935400072 0.0036080209745643736 0
          0.06526823460140993 -0.00000787921449007264 0 0.058665359557770115 0.0013063250945435114 0
          0.10303711862588566 0 0 0.06384712389687687 0.0017487913921223083 0
          0.07053810252239584 -0.003677116212506589 0 0.06960348276342397 -0.003564933073989405 0
          0.03833077809221062 -0.0010293803399952022 0 0.06902062460474245 -0.0008592730650049699 0
          0.06359369653291436 0.0010112875493451007 0 0.058627775043016035 0.0019343776272644439 0
          0.06944015553317984 0.0003233363828851213 0 0.07118673550069256 -0.003923462987533755 0
          0.06444388804057179 0.0015669246747734066 0 0.06964935785721928 0.001471159613352005 0
          0.043837402063851706 0 0 0.07170072689636967 0 0
          0.07247932023869692 -0.002611491951687852 0 0.060175087024872106 0.003734633434008913 0
          0.07250250989092571 0.0005336730424617801 0 0.06979869624309236 0.0019293743962962456 0
          0.06513046901244733 0.0009536838890554773 0 0.07268443196725406 0.0015040440679343274 0
          0.075181281939612 -0.0031362074803912027 0 0.07302849800970226 -0.0012136094806367015 0
          0.0744963949799061 0.002014772695691524 0 0.0733690009505191 0.0012606400459267498 0
          0.07151369726672657 0.004250717011285807 0 0.08232114918685207 -0.00024556415816941673 0
          0.06701745654377074 0 0 0.07605155893825735 0.004176133091905022 0
          0.07664567885112027 0.0006607498420173231 0 0.07427432377627877 0.0036088897920593522 0
          0.08323360642701133 0.0060154785010388965 0 0.07219224461435501 -0.0001814904400611719 0
          0.09794968097658008 -0.0005836586433310559 0 0.07474177510047991 0.0014575887576850713 0
          0.07429764247551031 0.00440357243413536 0 0.0654682609001121 0 0
          0 0 0 0.07701300547521017 0.003986761721872712 0
          0.07538437671939106 0.002949524482697107 0 0.09762241572024558 0.005577134332271702 0
          0.08516606811466722 0.0009066898477277845 0 0 0 0
          0.0734399501780597 0 0 0.06971272840260928 0.0015028254752420585 0
          0.07279963758321978 -0.0011526982144355732 0 0 0 0
          0.0677900775009244 0.0031963822721461717 0 0.08949776288426306 0.004248525538874003 0
          0.07324796063487597 -0.0013462523033336516 0 0.09971849963426395 0.004639027680571071 0
          0.084808000554792 -0.0005361746815553672 0 0.11351467972930085 0.0032569348350615515 0
          0.07514049412423845 -0.002238131898637632 0 0.09934997950905756 -0.000955211809009632 0
          0.0630239342327881 0.0107167751679997 0 0.13241841259315285 0 0
          0.06929457946219371 0.014023301449862692 0 0.06678266837843613 -0.0019017195031785484 0
          0.08939004290989962 -0.002922058745981691 0 0.06533165488980619 0 0
          0.06762133374526022 0.00434592338608632 0 0.07079602307889922 -0.005053902044778444 0
          0.3922480241410811 0.015984258595106486 0 0.27650832827477434 0.014508836077745165 0
          0.0676453966737947 -0.012634547895149941 0 0.3998209946475849 0.009555217651320416 0
          0.2817661508170083 0.005494033368309154 0 0.0644210502349329 -0.007109939014534568 0
          0.3978367494606367 -0.010777749856436345 0 0.27508321741648556 -0.00821957093236256 0
          1 0 0 0.12497262338784842 0 0
          1 0 0 0.3886472214854182 -0.02757411274869358 0
          1 0 0 1 0 0
          1 0 0
          <InformationKey name="L2_NORM_RANGE" location="vtkDataArray" length="2">
            <Value index="0">
              0
            </Value>
            <Value index="1">
              1.2871108345
            </Value>
          </InformationKey>
        </DataArray>
        <DataArray type="Float64" Name="Pressure" format="ascii" RangeMin="0.222495331498898" RangeMax="9.822561670808662">
          0.3873700303226976 0.222495331498898 1.4020856791346468 1.288676734606096 0.4048598376236341 2.0955870377259056
          1.9351543559607627 1.5390275120218881 2.3492081724699103 2.3656731137746143 1.4855000115890558 1.9848886857280634
          2.7163811221675673 0.5101938258329062 2.7574895307045617 2.75443933910913 2.408304486100762 2.7740510183455935
          1.9400175245361138 1.4541785447925704 3.188984374424126 3.183774452750431 2.3784755451765722 3.1918340228788185
          2.8193990680482552 3.2024387115770065 2.388263204083548 0.6075487364253663 3.688022229152172 3.6741554934700966
          1.39084731507904 3.662809477747621 3.218526819419999 2.789516037247986 3.6651573379490987 3.217948051047574
          2.1140015240823966 3.6726949739908377 4.168788751130367 4.145447345469497 2.789769181692421 4.141744550160688
          3.6801715634555014 3.223751056988787 4.1453769442822805 4.613997753999834 3.684225855532435 4.153983354104686
          2.8435817835992845 4.745023832883187 4.618815146955483 3.2345606830568205 4.62367718879568 4.161016107420364
          3.694161008741768 4.637363784416412 5.069460865954106 5.153511113157085 4.646319651912276 5.090690178311888
          4.174409134610227 5.110705414211531 3.711974427090786 4.6590131549602 5.526528804793939 4.206758150804551
          5.129742961273452 5.544026246657801 5.565545579223891 5.143126769205289 4.660435239329554 5.826076019086687
          5.572990735160158 5.133039619440748 6.022239384187371 5.6015992652366196 6.012983971347355 6.00953760316432
          4.793154764872578 5.595546912227023 5.210644191678837 6.03075420394848 6.43541701053383 6.486536564659533
          5.577854410700358 6.47018414527808 6.0494248679484235 6.481423036926932 6.059209467700784 6.504721680702647
          7.042950428361579 7.024486328921588 7.073504292240729 7.111760546854183 6.529039877096306 5.849115095349347
          7.125870983234654 6.490296125140316 7.918909941950547 7.905655215783779 7.103040879095165 8.198549094725076
          8.048244007913118 7.090632827969104 8.208121782044513 7.92831111163727 9.331880873379248 7.0766358819786355
          9.653080125959052 7.977596534733955 9.822561670808662 9.696702401268514 9.279086870298116
        </DataArray>
      </PointData>
      <CellData>
        <DataArray type="UInt8" Name="vtkGhostType" format="ascii" RangeMin="0" RangeMax="0">
          0 0 0 0 0 0
          0 0 0 0 0 0
          0 0 0 0 0 0
          0 0 0 0 0 0
          0 0 0 0 0 0
          0 0 0 0 0 0
          0 0 0 0 0 0
          0 0 0 0 0 0
          0 0 0 0 0 0
          0 0 0 0 0 0
          0 0 0 0 0 0
          0 0 0 0 0 0
          0 0 0 0 0 0
          0 0 0 0 0 0
          0 0 0 0 0 0
          0 0 0 0 0 0
          0 0 0 0 0 0
          0 0 0 0 0 0
          0 0 0 0 0 0
          0 0 0 0 0 0
          0 0 0 0 0 0
          0 0 0 0 0 0
          0 0 0 0 0 0
          0 0 0 0 0 0
          0 0 0 0 0 0
          0 0 0 0 0 0
          0 0 0 0 0 0
          0 0 0 0 0 0
          0 0 0 0 0 0
          0 0 0 0 0 0
          0 0 0 0 0 0
          0 0 0 0 0 0
          0 0 0 0 0 0
          0
        </DataArray>
      </CellData>
      <Points>
        <DataArray type="Float32" Name="Points" NumberOfComponents="3" format="ascii" RangeMin="0" RangeMax="17.88854381999832">
          16 8 0 16 6 0
          14 8 0 14.061200141906738 5.992724895477295 0
          16 4 0 12 8 0
          12.431690216064453 5.8549418449401855 0 13.441089630126953 4.479526996612549 0
          11.239230155944824 6.375944137573242 0 11.217659950256348 5.386390209197998 0
          13.619739532470703 2.986970901489258 0 12.27101993560791 3.53582501411438 0
          10.12201976776123 6.929948806762695 0 16 2 0
          10 8 0 10.088720321655273 5.894905090332031 0
          11.1041898727417 3.9310829639434814 0 10.059619903564453 4.748307228088379 0
          12.431690216064453 2.1450579166412354 0 13.786109924316406 1.4929959774017334 0
          9.034836769104004 7.274971008300781 0 9.026233673095703 6.435861110687256 0
          11.217659950256348 2.613610029220581 0 9.012736320495605 5.381321907043457 0
          9.929994583129883 3.4530270099639893 0 9.004406929016113 4.443112850189209 0
          11.239230155944824 1.6240559816360474 0 16 0 0
          8 8 0 8.025931358337402 7.009047985076904 0
          14 0 0 8.010846138000488 5.889841079711914 0
          9.004406929016113 3.556886911392212 0 10.088720321655273 2.1050949096679688 0
          7.998897075653076 4.897066116333008 0 9.012736320495605 2.618678092956543 0
          12 0 0 7.994072914123535 4 0
          7.062894821166992 7.271141052246094 0 7.06796407699585 6.430123805999756 0
          10.12201976776123 1.0700509548187256 0 7.053746223449707 5.375164031982422 0
          7.998897075653076 3.102933883666992 0 9.026233673095703 1.5641390085220337 0
          7.043994903564453 4.438754081726074 0 6.2205810546875 6.916534900665283 0
          8.010846138000488 2.110158920288086 0 7.043994903564453 3.561245918273926 0
          10 0 0 6 8 0
          6.164988040924072 5.884434223175049 0 9.034836769104004 0.7250285148620605 0
          6.151587963104248 4.890026092529297 0 7.053746223449707 2.624835968017578 0
          8.025931358337402 0.9909523725509644 0 6.14536714553833 4 0
          5.356449127197266 6.349438190460205 0 5.2253007888793945 7.216625213623047 0
          6.151587963104248 3.109973907470703 0 5.3138298988342285 5.370083808898926 0
          7.06796407699585 1.569875955581665 0 5.301236152648926 4.432648181915283 0
          8 0 0 6.164988040924072 2.1155660152435303 0
          4.5612711906433105 6.739451885223389 0 7.062894821166992 0.7288587093353271 0
          5.301236152648926 3.567352056503296 0 4.529612064361572 5.82285213470459 0
          4.511250019073486 4.8855109214782715 0 5.3138298988342285 2.629915952682495 0
          6.2205810546875 1.0834649801254272 0 4 8 0
          4.5 4 0 5.356449127197266 1.650562047958374 0
          3.694991111755371 6.308342933654785 0 4.511250019073486 3.1144890785217285 0
          3.7240660190582275 5.343226909637451 0 3.75 4.433012962341309 0
          6 0 0 4.529612064361572 2.1771481037139893 0
          5.2253007888793945 0.7833750247955322 0 3.75 3.5669870376586914 0
          2.94406795501709 6.916616916656494 0 2.9273159503936768 5.857943058013916 0
          4.5612711906433105 1.2605479955673218 0 2.974698066711426 4.910579204559326 0
          3.7240660190582275 2.656773090362549 0 2.9774999618530273 4 0
          3.694991111755371 1.6916569471359253 0 2.974698066711426 3.089421033859253 0
          2.0980300903320312 6.416800022125244 0 2 8 0
          2.153420925140381 5.418316841125488 0 2.156558036804199 4.452767848968506 0
          2.9273159503936768 2.142056941986084 0 4 0 0
          2.156558036804199 3.547231912612915 0 2.94406795501709 1.0833829641342163 0
          1.2236700057983398 7.014613151550293 0 1.3243329524993896 5.964217185974121 0
          2.153420925140381 2.5816829204559326 0 1.1465469598770142 4.971354007720947 0
          1.2871019840240479 4 0 2.0980300903320312 1.5831999778747559 0
          1.1465469598770142 3.0286459922790527 0 1.3243329524993896 2.035783052444458 0
          0 8 0 2 0 0
          0 6 0 1.2236700057983398 0.9853870272636414 0
          0 4 0 0 2 0
          0 0 0
          <InformationKey name="L2_NORM_RANGE" location="vtkDataArray" length="2">
            <Value index="0">
              0
            </Value>
            <Value index="1">
              17.88854382
            </Value>
          </InformationKey>
        </DataArray>
      </Points>
      <Cells>
        <DataArray type="Int64" Name="connectivity" format="ascii" RangeMin="0" RangeMax="112">
          72 81 75 81 77 87
          77 72 68 75 81 86
          87 77 85 68 72 61
          72 75 66 81 87 89
          77 68 76 86 81 89
          86 89 94 61 72 66
          61 66 55 89 87 96
          85 77 76 85 76 83
          66 75 69 76 68 67
          75 86 79 68 61 59
          87 85 93 96 87 93
          96 93 102 67 68 59
          67 59 56 59 61 52
          69 75 79 69 79 73
          79 86 88 93 85 92
          89 96 100 76 67 74
          66 69 58 94 89 100
          94 100 103 55 66 58
          55 58 47 83 76 74
          83 74 82 86 94 88
          88 94 97 61 55 52
          52 55 44 85 83 92
          92 83 90 74 67 64
          100 96 104 58 69 63
          59 52 50 93 92 101
          79 88 84 102 93 101
          102 101 110 56 59 50
          56 50 45 73 79 84
          73 84 80 96 102 104
          104 102 110 67 56 64
          64 56 57 69 73 63
          63 73 70 101 92 99
          50 52 41 84 88 95
          74 64 71 58 63 53
          100 104 105 103 100 105
          103 105 109 82 74 71
          44 55 47 44 47 37
          47 58 53 47 53 42
          97 94 103 97 103 107
          90 83 82 90 82 91
          52 44 41 41 44 34
          88 97 95 92 90 99
          99 90 98 53 63 60
          105 104 111 101 99 108
          50 41 39 45 50 39
          45 39 38 80 84 95
          57 56 45 57 45 49
          57 49 71 70 73 80
          70 80 78 78 80 95
          64 57 71 63 70 60
          60 70 65 37 47 42
          37 42 32 44 37 34
          34 37 25 53 60 46
          39 41 31 109 105 111
          42 53 46 42 46 35
          98 90 91 103 109 107
          41 34 31 31 34 23
          99 98 108 46 60 54
          39 31 29 38 39 29
          38 29 28 28 29 20
          38 28 49 45 38 49
          65 70 78 60 65 54
          54 65 62 62 65 78
          54 62 51 32 42 35
          32 35 24 37 32 25
          25 32 24 34 25 23
          23 25 17 46 54 43
          29 31 21 35 46 43
          35 43 33 31 23 21
          21 23 15 43 54 51
          43 51 40 29 21 20
          20 21 12 24 35 33
          24 33 22 17 25 24
          23 17 15 15 17 9
          28 20 14 14 20 12
          14 12 5 51 62 48
          51 48 40 40 48 36
          33 43 40 33 40 26
          21 15 12 12 15 8
          22 33 26 22 26 18
          24 22 16 9 17 16
          15 9 8 8 9 6
          26 40 36 12 8 5
          98 91 106 107 109 112
          18 26 36 22 18 11
          6 9 11 8 6 5
          16 22 11 16 11 9
          24 16 17 11 18 10
          97 107 95 91 82 71
          10 18 19 11 10 7
          19 18 36 10 19 13
          7 10 4 11 7 6
          98 106 108 112 109 111
          110 101 108 104 110 111
          6 7 3 3 7 4
          6 3 2 27 13 19
          0 2 3 4 1 3
          3 1 0 36 30 19
          19 30 27 13 4 10
          2 5 6
        </DataArray>
        <DataArray type="Int64" Name="offsets" format="ascii" RangeMin="3" RangeMax="597">
          3 6 9 12 15 18
          21 24 27 30 33 36
          39 42 45 48 51 54
          57 60 63 66 69 72
          75 78 81 84 87 90
          93 96 99 102 105 108
          111 114 117 120 123 126
          129 132 135 138 141 144
          147 150 153 156 159 162
          165 168 171 174 177 180
          183 186 189 192 195 198
          201 204 207 210 213 216
          219 222 225 228 231 234
          237 240 243 246 249 252
          255 258 261 264 267 270
          273 276 279 282 285 288
          291 294 297 300 303 306
          309 312 315 318 321 324
          327 330 333 336 339 342
          345 348 351 354 357 360
          363 366 369 372 375 378
          381 384 387 390 393 396
          399 402 405 408 411 414
          417 420 423 426 429 432
          435 438 441 444 447 450
          453 456 459 462 465 468
          471 474 477 480 483 486
          489 492 495 498 501 504
          507 510 513 516 519 522
          525 528 531 534 537 540
          543 546 549 552 555 558
          561 564 567 570 573 576
          579 582 585 588 591 594
          597
        </DataArray>
        <DataArray type="UInt8" Name="types" format="ascii" RangeMin="5" RangeMax="5">
          5 5 5 5 5 5
          5 5 5 5 5 5
          5 5 5 5 5 5
          5 5 5 5 5 5
          5 5 5 5 5 5
          5 5 5 5 5 5
          5 5 5 5 5 5
          5 5 5 5 5 5
          5 5 5 5 5 5
          5 5 5 5 5 5
          5 5 5 5 5 5
          5 5 5 5 5 5
          5 5 5 5 5 5
          5 5 5 5 5 5
          5 5 5 5 5 5
          5 5 5 5 5 5
          5 5 5 5 5 5
          5 5 5 5 5 5
          5 5 5 5 5 5
          5 5 5 5 5 5
          5 5 5 5 5 5
          5 5 5 5 5 5
          5 5 5 5 5 5
          5 5 5 5 5 5
          5 5 5 5 5 5
          5 5 5 5 5 5
          5 5 5 5 5 5
          5 5 5 5 5 5
          5 5 5 5 5 5
          5 5 5 5 5 5
          5 5 5 5 5 5
          5 5 5 5 5 5
          5 5 5 5 5 5
          5
        </DataArray>
      </Cells>
    </Piece>
  </UnstructuredGrid>
</VTKFile>
