<?xml version="1.0"?>
<VTKFile type="UnstructuredGrid" version="0.1" byte_order="LittleEndian" header_type="UInt32" compressor="vtkZLibDataCompressor">
  <UnstructuredGrid>
    <Piece NumberOfPoints="69" NumberOfCells="107">
      <PointData>
        <DataArray type="Float64" Name="nsi_SBC" NumberOfComponents="3" format="ascii" RangeMin="0" RangeMax="0">
          0 0 0 0 0 0
          0 0 0 0 0 0
          0 0 0 0 0 0
          0 0 0 0 0 0
          0 0 0 0 0 0
          0 0 0 0 0 0
          0 0 0 0 0 0
          0 0 0 0 0 0
          0 0 0 0 0 0
          0 0 0 0 0 0
          0 0 0 0 0 0
          0 0 0 0 0 0
          0 0 0 0 0 0
          0 0 0 0 0 0
          0 0 0 0 0 0
          0 0 0 0 0 0
          0 0 0 0 0 0
          0 0 0 0 0 0
          0 0 0 0 0 0
          0 0 0 0 0 0
          0 0 0 0 0 0
          0 0 0 0 0 0
          0 0 0 0 0 0
          0 0 0 0 0 0
          0 0 0 0 0 0
          0 0 0 0 0 0
          0 0 0 0 0 0
          0 0 0 0 0 0
          0 0 0 0 0 0
          0 0 0 0 0 0
          0 0 0 0 0 0
          0 0 0 0 0 0
          0 0 0 0 0 0
          0 0 0 0 0 0
          0 0 0
          <InformationKey name="L2_NORM_RANGE" location="vtkDataArray" length="2">
            <Value index="0">
              0
            </Value>
            <Value index="1">
              0
            </Value>
          </InformationKey>
        </DataArray>
        <DataArray type="Float64" Name="nsi_SFIXNO" NumberOfComponents="3" format="ascii" RangeMin="0" RangeMax="1.7320508075688772">
          0 0 0 0 0 0
          0 0 0 0 0 0
          0 0 0 -1 -1 -1
          -1 -1 -1 -1 -1 -1
          0 0 0 0 0 0
          -1 -1 -1 -1 -1 -1
          -1 -1 -1 -1 -1 -1
          0 0 0 0 0 0
          -1 -1 -1 0 0 0
          0 0 0 -1 -1 -1
          -1 -1 -1 -1 -1 -1
          0 0 0 0 0 0
          -1 -1 -1 -1 -1 -1
          -1 -1 -1 -1 -1 -1
          -1 -1 -1 0 0 0
          -1 -1 -1 -1 -1 -1
          -1 -1 -1 0 0 0
          -1 -1 -1 -1 -1 -1
          -1 -1 -1 0 0 0
          0 0 0 -1 -1 -1
          -1 -1 -1 0 0 0
          0 0 0 0 0 0
          -1 -1 -1 -1 -1 -1
          0 0 0 0 0 0
          -1 -1 -1 -1 -1 -1
          -1 -1 -1 -1 -1 -1
          -1 -1 -1 0 0 0
          -1 -1 -1 -1 -1 -1
          0 0 0 -1 -1 -1
          -1 -1 -1 -1 -1 -1
          -1 -1 -1 -1 -1 -1
          0 0 0 0 0 0
          0 0 0 0 0 0
          0 0 0 0 0 0
          0 0 0
          <InformationKey name="L2_NORM_RANGE" location="vtkDataArray" length="2">
            <Value index="0">
              0
            </Value>
            <Value index="1">
              1.7320508076
            </Value>
          </InformationKey>
        </DataArray>
        <DataArray type="Float64" Name="nsi_UBC" NumberOfComponents="3" format="ascii" RangeMin="0" RangeMax="1">
          0 0 0 0 0 0
          0 0 0 0 0 0
          0 0 0 0 0 0
          0 0 0 0 0 0
          0 0 0 0 0 0
          0 0 0 0 0 0
          0 0 0 0 0 0
          0 0 0 0 0 0
          0 0 0 0 0 0
          0 0 0 0 0 0
          0 0 0 0 0 0
          0 0 0 0 0 0
          0 0 0 0 0 0
          0 0 0 0 0 0
          0 0 0 0 0 0
          0 0 0 0 0 0
          0 0 0 0 0 0
          0 0 0 0 0 0
          0 0 0 0 0 0
          0 0 0 0 0 0
          0 0 0 0 0 0
          0 0 0 0 0 0
          0 0 0 0 0 0
          0 0 0 0 0 0
          0 0 0 0 0 0
          0 0 0 0 0 0
          0 0 0 0 0 0
          0 0 0 0 0 0
          0 0 0 0 0 0
          0 0 0 0 0 0
          0 0 0 0 0 0
          1 0 0 1 0 0
          0 0 0 1 0 0
          1 0 0 1 0 0
          1 0 0
          <InformationKey name="L2_NORM_RANGE" location="vtkDataArray" length="2">
            <Value index="0">
              0
            </Value>
            <Value index="1">
              1
            </Value>
          </InformationKey>
        </DataArray>
        <DataArray type="Float64" Name="nsi_UFIXNO" NumberOfComponents="3" format="ascii" RangeMin="0" RangeMax="1.4142135623730951">
          0 1 0 0 0 0
          0 1 0 0 0 0
          0 1 0 -1 -1 0
          -1 -1 0 -1 -1 0
          0 0 0 0 1 0
          -1 -1 0 -1 -1 0
          -1 -1 0 -1 -1 0
          0 1 0 0 1 0
          -1 -1 0 0 1 0
          0 1 0 -1 -1 0
          -1 -1 0 -1 -1 0
          0 1 0 0 1 0
          -1 -1 0 -1 -1 0
          -1 -1 0 -1 -1 0
          -1 -1 0 0 1 0
          -1 -1 0 -1 -1 0
          -1 -1 0 0 1 0
          -1 -1 0 -1 -1 0
          -1 -1 0 1 1 0
          1 1 0 -1 -1 0
          -1 -1 0 1 1 0
          1 1 0 0 1 0
          -1 -1 0 -1 -1 0
          1 1 0 1 1 0
          -1 -1 0 -1 -1 0
          -1 -1 0 -1 -1 0
          -1 -1 0 0 1 0
          -1 -1 0 -1 -1 0
          0 1 0 -1 -1 0
          -1 -1 0 -1 -1 0
          -1 -1 0 -1 -1 0
          1 1 0 1 1 0
          0 1 0 1 1 0
          1 1 0 1 1 0
          1 1 0
          <InformationKey name="L2_NORM_RANGE" location="vtkDataArray" length="2">
            <Value index="0">
              0
            </Value>
            <Value index="1">
              1.4142135624
            </Value>
          </InformationKey>
        </DataArray>
        <DataArray type="Float64" Name="Velocity" NumberOfComponents="3" format="ascii" RangeMin="0" RangeMax="1.8703370107080917">
          0.90546465506143 0 0 1.050327271729681 -0.017312509364095587 0
          1.270584417446686 0 0 1.008189194984849 0.016612170340965283 0
          1.2234414516330037 0 0 1.2702443462476525 0.012416576864855491 0
          1.2822890136531413 -0.004981081056843577 0 1.2404127054579255 -0.0005241593863792851 0
          1.0374878195202295 0.002278522182751183 0 1.2519320390013784 0 0
          1.2105217232861507 0.0013204477519314008 0 1.2463339930018182 -0.009463982557087431 0
          1.2248667243562539 -0.005249882919046907 0 1.2409528616815535 0.003619160240481894 0
          0.9025301742686884 0 0 1.2418542650919768 0 0
          1.2424808228137683 0.0036502096961505376 0 1.313998523680697 0 0
          1.220156237983744 0 0 1.230395214419885 0.006385816924198248 0
          1.239277423817528 -0.020355006909549563 0 1.2301397638015379 0.005943870867476538 0
          1.2454414675120764 0 0 1.2774001223171647 0 0
          1.1910184991231503 0.009988157022591251 0 1.1550790007920468 -0.1188972700285181 0
          1.2485654392203689 0.021017597254094675 0 1.2886445517817893 -0.044372370286681555 0
          1.0344334706292644 0.016816701981570502 0 1.2474696338442846 0 0
          1.1659579098209203 0.13048385187187805 0 1.4693662680582364 -0.15877785143519135 0
          1.048751530159401 -0.4393452114736096 0 1.3073517424597372 0 0
          1.278487560561269 0.03981439800927191 0 1.05031427614915 0.46029917333869547 0
          1.318455157929003 -0.012080648839319696 0 0 0 0
          0 0 0 1.4675848226063792 0.17237002303577406 0
          1.8307213382147072 0.1130343304234002 0 0 0 0
          0 0 0 1.2690937684386085 0 0
          1.8675577188824695 -0.10192497371590252 0 1.3537709908914692 0.1551125289461567 0
          0 0 0 0 0 0
          1.1688549568885247 0.46631412609996553 0 1.209857741856903 0.0420692972499897 0
          1.328018779013619 0.0063225551908712724 0 1.1770007816679553 -0.38895042067783 0
          1.3722953890223915 -0.14477199000332955 0 1.2978972939991829 0 0
          1.0448212290199181 0.06629077111100655 0 0.9898292959251946 0.044471920674161586 0
          1.329328555303653 0 0 1.1360675862561607 -0.0633679818758095 0
          1.234158825822434 -0.05361092475608875 0 1.1975789559747616 0.07208373219876955 0
          1.2608744555375337 -0.045242364005442126 0 1.3286129228355787 -0.04991927628222151 0
          1.0000000001458413 0 0 1.0000000001458413 0 0
          1.1588094382508005 0 0 1.0000000001458413 0 0
          1.0000000001458413 0 0 1.0000000001458413 0 0
          1.0000000001458413 0 0
          <InformationKey name="L2_NORM_RANGE" location="vtkDataArray" length="2">
            <Value index="0">
              0
            </Value>
            <Value index="1">
              1.8703370107
            </Value>
          </InformationKey>
        </DataArray>
        <DataArray type="Float64" Name="Pressure" format="ascii" RangeMin="-2.9679166228384024" RangeMax="37.80924597363551">
          -2.736325922299205 -2.6728031297190777 4.947069855057237 -2.9679166228384024 8.397039869843372 6.743775647654477
          4.02115411586324 10.963148124114365 -2.3724342245457155 13.651597812488706 8.277691692979241 6.863843741534555
          15.328373826779464 13.065822845549082 -2.4572877546121417 18.333703581089917 11.270716437739738 5.035308035944453
          8.60778523424503 17.53140714110628 20.613716481416915 15.937131835808575 13.610962707451158 23.14480989557446
          21.321400191730014 23.600943535138537 20.500197447324872 24.82741748210074 23.60098750345972 18.365041911107465
          23.587187765787558 25.861838398611624 24.59749673635891 28.119386140021582 23.804244668466175 24.46929466582781
          27.91495536668999 24.938882059889202 26.35804848318679 25.547308815341033 27.812614914474786 26.408665279603674
          29.357440096649093 23.120260563777453 27.855541260529943 30.110306296680683 29.473670153559812 31.128886170006698
          31.451714039793984 31.332885598105047 27.797913379846516 31.461505390928867 30.055803982776414 32.168871425641164
          32.69335128958007 32.63484519229197 28.068694403328397 32.53375509714823 31.024029378896216 34.91055653458189
          34.40044734251055 33.828486213862526 36.80023844235825 37.656088608941644 32.824098449542355 37.80924597363551
          37.53085843731796 37.59626502324423 37.11388643014046
        </DataArray>
        <DataArray type="Float64" Name="Sigma" NumberOfComponents="6" format="ascii" RangeMin="0.000027193855018601824" RangeMax="0.039594901572191414">
          0.00044057502034400287 -0.00009457830840164938 0 0.00028266453093173105 0 0
          0.00002129055725053064 0.00003386464380028542 0 -0.00009657660902939735 0 0
          -0.0002871183415409373 -0.0001017528556968017 0 0.00001014059964263292 0 0
          0.00011899700352868692 0.00007413874063555426 0 4.855708200107722e-7 0 0
          -0.00017260851788991616 -0.0000133454483131068 0 0.00009568892412048502 0 0
          -0.0002895344588194071 0.000006537694530184268 0 0.00000220874067638141 0 0
          -0.0001743079667493319 0.0000855143103106748 0 -0.00002262597000451949 0 0
          0.00015880074930585408 -0.000009640183834536131 0 0.00003534009669764471 0 0
          -0.000025765467581706503 -0.00000836884269661553 0 -0.000002368312265743633 0 0
          0.0001316620554470127 0.000018550450220367054 0 -0.000012026198401710042 0 0
          -0.00013909480630625026 0.00004853688020389768 0 -0.000015046219729863974 0 0
          -0.00027999928547961517 0.000035344249660340665 0 -0.00004678698843491036 0 0
          -0.00007079735588333413 -0.000012681550692894561 0 0.00000764037820788488 0 0
          0.000058717176620870504 -0.0000405924154067705 0 0.000006647407752718992 0 0
          0.00012333409705744813 -0.00004354653351246185 0 -0.00010646720799145637 0 0
          -0.00008427529283316915 0.000054674798055653895 0 0.000025546990381486445 0 0
          0.00018589616148645405 0.000011301160374177499 0 -0.000019735007492777124 0 0
          -0.00029521955576816694 -0.00015687379479878416 0 0.00018442599196422105 0 0
          -0.000055364014533987316 -0.0000663156358382544 0 -0.00009431072144072683 0 0
          -0.000030746654605673385 -0.00004281051656507273 0 -0.00003344629139478972 0 0
          0.00004792748579118822 -0.00000507383686731977 0 0.00011308485958483327 0 0
          -0.00010568579084657692 0.000009707428716421163 0 -0.000026254257851077156 0 0
          0.000005626194954366781 0.00003756035491520038 0 -0.000006353357595578757 0 0
          -0.0002529961840247452 0.00013432346870345668 0 -0.000020880477330856295 0 0
          0.000856849941288651 -0.00040258642571289194 0 -0.0000930955934716482 0 0
          -0.00023675891411834016 0.0006573751799687777 0 0.0013192754506341497 0 0
          -0.000008673861623398338 0.000040694323288903433 0 -0.00007562924349835409 0 0
          -0.00017641451138250552 0.0003003714338367658 0 0.00012659610640480823 0 0
          -0.0006027660396201728 -0.003497159483961676 0 -0.0002061318570070747 0 0
          -0.000019591285205233788 0.00006630109342653512 0 -0.000020750156327908886 0 0
          -0.0005223822166389169 0.0006973677255217581 0 -0.0014900239169418628 0 0
          -0.004715303139396498 0.0022491036663407904 0 -0.0016409312769638529 0 0
          0.005156097438463458 -0.0018594063193988486 0 0.0033733939511365607 0 0
          0.000017101392646434732 0.00010400506967878087 0 0.00020038088794915865 0 0
          -0.00026297357028637336 0.0003281175847025253 0 -0.00014234751368191745 0 0
          0.005451524765520688 -0.0018563482969802259 0 -0.003626479962021145 0 0
          0.0006452511869148303 -0.0003049284471812186 0 -0.0014086538446228536 0 0
          0.03894892845419662 -0.007113884974391249 0 0.00036033783111033904 0 0
          0.020330575847771204 -0.0014109503871928553 0 0.015262879919022976 0 0
          -0.00467544109875595 0.002566029658990221 0 0.001464824968738787 0 0
          0.0016973970336953137 -0.0005603546819998861 0 0.0014564567180186394 0 0
          0.0203266382508005 -0.0018512609220977527 0 -0.0151621251914702 0 0
          -0.009802042663892285 0.003989382168445577 0 0.015275176570012095 0 0
          -0.00027145168585707147 0.0001327387046279327 0 0.00007072500292637507 0 0
          0.0016514922008936672 -0.00018709748020873107 0 -0.0014120927804839312 0 0
          0.0043115922132686 -0.0027875067401539333 0 -0.0009609678495767215 0 0
          -0.00961515836979121 0.002980181178902086 0 -0.015840355861831967 0 0
          -0.025504777658591493 0.006411601262656941 0 -0.00032385667579799826 0 0
          -0.0001892991463026128 0.002083504095040656 0 0.0025315694710648096 0 0
          0.00015137059283798493 -0.00010566687823621024 0 0.0003251422877659227 0 0
          0.0003311270552530665 -0.00015900355345155326 0 0.0014258339389061625 0 0
          -0.0002516807591779191 0.002476347578905802 0 -0.0027770021457707017 0 0
          0.0038448535471635736 -0.0022259065882712648 0 0.0011138421648390628 0 0
          0.0002389807132407995 -0.00027771076067106826 0 0.00008969057163632499 0 0
          -0.0002196761303696615 -0.0005107852318442241 0 0.0010467412537185083 0 0
          0.000013195450720981938 0.0025556432981854726 0 0.00011783315942530403 0 0
          0.00026321072069679374 -0.00006067671943776887 0 -0.0001992919321874842 0 0
          -0.00031794694577147453 -0.00027283828770152674 0 -0.0007340466546601476 0 0
          0.00014765947622397135 -0.0000719836630969084 0 -0.00016907388538101031 0 0
          -0.00020293300050933105 0.0001524228152138818 0 0.000009525637631631334 0 0
          -0.0009705077887778302 0.00033136256103460937 0 0.00008325439867090667 0 0
          -0.00017677345910960263 0.000020329923489104118 0 -0.00007667783177844889 0 0
          0.0005407059935347291 0.0002971445603128231 0 -0.0002375977095986359 0 0
          0.00010924302797921115 -0.0002672668843017867 0 0.00034121431772005106 0 0
          0.00011833355930690459 -0.00038493611543288786 0 0.00043375200365625144 0 0
          0.0006619077244640614 0.0002845191862888008 0 -0.00017992755108608982 0 0
          0.00042313475372424136 -0.00005521508130712505 0 -0.00003645933230739251 0 0
          0.00108835790225692 0.000035305577650301956 0 -0.0002522170500021681 0 0
          0.00023048789460355934 -0.00012164762644983895 0 0.00015167612351651982 0 0
          <InformationKey name="L2_NORM_RANGE" location="vtkDataArray" length="2">
            <Value index="0">
              2.7193855019e-05
            </Value>
            <Value index="1">
              0.039594901572
            </Value>
          </InformationKey>
        </DataArray>
        <DataArray type="Float64" Name="Psi" NumberOfComponents="6" format="ascii" RangeMin="5.438772331588936e-7" RangeMax="0.000791601512002807">
          0.000008811445606062887 -0.0000018915839370110371 0 0.000005653271058616711 0 0
          4.258091892482985e-7 6.772907813140175e-7 0 -0.000001931531115205597 0 0
          -0.000005742383338764124 -0.000002035059205129001 0 2.0281278153937576e-7 0 0
          0.0000023799372383750247 0.0000014827737133889682 0 9.711397641341548e-9 0 0
          -0.000003452178147971942 -2.669108333259698e-7 0 0.000001913782041129867 0 0
          -0.000005790705943565744 1.30753880875005e-7 0 4.4174938540573234e-8 0 0
          -0.0000034861655141651297 0.000001710284641217857 0 -4.5251980189779145e-7 0 0
          0.000003176009692920027 -1.928039450846077e-7 0 7.068008796767207e-7 0 0
          -5.153094854394742e-7 -1.6737686887313347e-7 0 -4.736626152551751e-8 0 0
          0.000002633237612886584 3.7100890666146866e-7 0 -2.4052360673085543e-7 0 0
          -0.0000027819000410702695 9.707370874914392e-7 0 -3.009246671073829e-7 0 0
          -0.0000056000018273412566 7.068843056404519e-7 0 -9.357420580484791e-7 0 0
          -0.0000014159481316493328 -2.536310574567241e-7 0 1.5280769172082098e-7 0 0
          0.0000011743428339609466 -8.11848646601779e-7 0 1.329481309656233e-7 0 0
          0.000002466676632013634 -8.709333163689186e-7 0 -0.000002129342460875276 0 0
          -0.0000016855074073260667 0.0000010934952329433934 0 5.109399588566646e-7 0 0
          0.000003717916240187311 2.260231038511348e-7 0 -3.946993715319533e-7 0 0
          -0.000005904415348897607 -0.0000031374876203832896 0 0.000003688536514897814 0 0
          -0.0000011072826825546825 -0.0000013263153752099677 0 -0.0000018862167239911952 0 0
          -6.149335050714379e-7 -8.562109217508144e-7 0 -6.68926319930886e-7 0 0
          9.585466987618596e-7 -1.0147930030980466e-7 0 0.0000022616962225445206 0 0
          -0.000002113718188939885 1.9414841751271614e-7 0 -5.250856609857665e-7 0 0
          1.1252388462307644e-7 7.512068079332483e-7 0 -1.270670970418048e-7 0 0
          -0.000005059936568831454 0.0000026864656784957924 0 -4.1761004220396446e-7 0 0
          0.0000171368502556207 -0.00000805176266316093 0 -0.0000018619034115865914 0 0
          -0.0000047355375901983675 0.00001314706907884045 0 0.00002638539803823758 0 0
          -1.7347839145155205e-7 8.138849906172124e-7 0 -0.0000015125843855988594 0 0
          -0.0000035282996572777367 0.0000060074074268974135 0 0.0000025319189896550356 0 0
          -0.000012055401956926103 -0.00006994564431713894 0 -0.00000412280617330615 0 0
          -3.9182586686869144e-7 0.0000013260209034301752 0 -4.150029327222867e-7 0 0
          -0.000010448142946023152 0.000013946813218146246 0 -0.00002980042620275056 0 0
          -0.00009431104846675471 0.000044980523131199146 0 -0.00003281943499689846 0 0
          0.00010311435636584272 -0.000037191093797169986 0 0.00006746565510155185 0 0
          3.4201976393282365e-7 0.0000020800911997973224 0 0.000004007612905581786 0 0
          -0.000005259489289197876 0.0000065623261094157996 0 -0.000002846948419033808 0 0
          0.00010902192196344623 -0.00003713028537317704 0 -0.00007252699202334544 0 0
          0.000012904543613515792 -0.000006098984400736693 0 -0.000028172981021665382 0 0
          0.0007786752968055604 -0.0001422878478799838 0 0.000007204463587598965 0 0
          0.0004064823061631647 -0.00002826598613741383 0 0.0003051998699940323 0 0
          -0.00009351362337884556 0.0000513188471835503 0 0.00002929711743111369 0 0
          0.00003394694021831737 -0.00001120758069007245 0 0.000029128803166702152 0 0
          0.00040640419872666915 -0.000037071871714411874 0 -0.00030318650324044334 0 0
          -0.00019610674772158716 0.00007973779316301934 0 0.00030552130175899274 0 0
          -0.000005429049454659458 0.0000026547695685143062 0 0.000001414502020668377 0 0
          0.000033028899759814794 -0.000003742355399731766 0 -0.00002824144205413999 0 0
          0.00008622794183634763 -0.000055751873594181575 0 -0.000019219064111236834 0 0
          -0.00019237185427339865 0.00005955166152932297 0 -0.00031682815098801713 0 0
          -0.0005102257171562283 0.00012822378324971168 0 -0.000006478370662805265 0 0
          -0.0000037872718325673224 0.00004166793202619892 0 0.00005063043042923877 0 0
          0.0000030273861303749488 -0.00000211336094159552 0 0.000006502842783415607 0 0
          0.00000662211257824782 -0.000003180482726002455 0 0.000028516629702192983 0 0
          -0.000005035170159764714 0.00004952418290760453 0 -0.00005553880743286598 0 0
          0.00007689386640421816 -0.000044519370857870474 0 0.00002227648268337176 0 0
          0.000004779601233344241 -0.0000055542322471980235 0 0.0000017938121275071035 0 0
          -0.0000043937513949925285 -0.000010215975954526307 0 0.000020934977999408885 0 0
          2.6390620287036815e-7 0.00005111155696878211 0 0.0000023566026516903725 0 0
          0.000005264192614791601 -0.0000012135430683549314 0 -0.000003985830571116386 0 0
          -0.000006359066899929747 -0.000005456888408463308 0 -0.000014681019827548007 0 0
          0.0000029531794464713494 -0.0000014396800154864872 0 -0.000003381475148676385 0 0
          -0.0000040586682647103395 0.000003048451639640916 0 1.9051284885906744e-7 0 0
          -0.00001941034554122488 0.000006627227874344413 0 0.0000016650986158965243 0 0
          -0.000003535476607958664 4.0659721112387793e-7 0 -0.0000015335590347482169 0 0
          0.000010814050108340668 0.000005942862256810987 0 -0.000004751914378158698 0 0
          0.0000021848348872013603 -0.00000534537525801053 0 0.0000068242971385644615 0 0
          0.00000236663075767231 -0.000007698789572175833 0 0.000008675063201431512 0 0
          0.000013238060391073792 0.000005690361060927011 0 -0.0000035985169644006954 0 0
          0.000008462659000439148 -0.0000011043025016653349 0 -7.29183963365594e-7 0 0
          0.00002176690842200714 7.060985815778177e-7 0 -0.000005044284319498096 0 0
          0.000004609742665701655 -0.000002432960090046971 0 0.0000030335191686022124 0 0
          <InformationKey name="L2_NORM_RANGE" location="vtkDataArray" length="2">
            <Value index="0">
              5.4387723316e-07
            </Value>
            <Value index="1">
              0.000791601512
            </Value>
          </InformationKey>
        </DataArray>
      </PointData>
      <CellData>
        <DataArray type="UInt8" Name="vtkGhostType" format="ascii" RangeMin="0" RangeMax="0">
          0 0 0 0 0 0
          0 0 0 0 0 0
          0 0 0 0 0 0
          0 0 0 0 0 0
          0 0 0 0 0 0
          0 0 0 0 0 0
          0 0 0 0 0 0
          0 0 0 0 0 0
          0 0 0 0 0 0
          0 0 0 0 0 0
          0 0 0 0 0 0
          0 0 0 0 0 0
          0 0 0 0 0 0
          0 0 0 0 0 0
          0 0 0 0 0 0
          0 0 0 0 0 0
          0 0 0 0 0 0
          0 0 0 0 0
        </DataArray>
        <DataArray type="Float64" Name="Velocity_SGS" NumberOfComponents="3" format="ascii" RangeMin="0" RangeMax="0.19029467842721146">
          6.93106875911825e-310 6.93106875911825e-310 4.6832553489696e-310 0.04993779996397424 -0.01908631050645422 0
          -0.05051681573731501 -0.03186295606617541 0 -0.005635218012674633 -0.05370654253495735 0
          -0.009616609081120069 0.05229197290290426 0 -0.05104415272156 0.024958299412086347 0
          0.04984780842363047 0.023572722306258218 0 -0.08577157120498394 -0.04825553488984773 0
          -0.0741079460419519 0.03740850808855488 0 0.09265903558669025 0.042667014339681036 0
          0.1902636486893926 0.0034363680121898338 0 0.08703274461332322 -0.0312595220593616 0
          -0.1664475421176474 -0.0017801866942550489 0 0.10259336165360514 -0.043569461758793004 0
          0.031071779247079254 -0.0027456093151085586 0 0.001256606666205787 0.014888776943372546 0
          -0.09133004210654883 0.022775150358524496 0 -0.03128616831701993 -0.015858878765477473 0
          -0.006180773370787323 -0.009798478456378424 0 -0.11745498434171756 -0.023444580742398722 0
          0.0000687864303024633 0.011620290032107461 0 -0.028073740861614065 0.01218745578430487 0
          0.11774728791952738 0.04914862689727482 0 0.0020440788528324778 -0.016298342126461758 0
          0.023222618982047225 0.0031549514786697987 0 -0.03756457503090942 -0.009336642493422368 0
          -0.02968562879459244 -0.049215061571470264 0 -0.029054184010063815 0.06668593222743181 0
          0.018788558200369496 0.009227081632400566 0 0.006302327298931553 0.057687809261912026 0
          0.007770460216380528 -0.06608981394884357 0 0.03535315200915937 -0.012988197468278883 0
          0.026791984555005918 0.0014783691147746674 0 -0.009323908534120429 -0.009752688555426518 0
          -0.03915698750899498 0.00028448915711211126 0 0.02958415272929167 -0.01568476806816948 0
          -0.01479249100369286 0.011907859996241697 0 0.007870290759922188 0.01060525702940708 0
          -0.009549460513775945 -0.008813576235319562 0 0.013132942299104687 -0.011182070671305406 0
          -0.033586249770142344 0.004043212530019112 0 0.03181221543216681 0.0064929352490051846 0
          -0.006912535978810492 0.012603830993471524 0 0.014100864727282673 0.0008450759279561302 0
          -0.0027435719209699724 0.0005104257097426415 0 -0.007332437946287785 -0.002396371830616491 0
          0.005402538847327031 0.0015691707874923703 0 -0.00003558169753438401 -0.010774809550945202 0
          0.0015017907890766257 0.011794285361791392 0 -0.00016735766271250133 0.0011625206564962857 0
          -0.0006831524602941353 0.002179525434333016 0 -0.007162743807310299 0.0064552581372120926 0
          -0.0109712842457588 0.002929889131345395 0 0.0032459542017966277 -0.0005412311774948108 0
          0.00693422024487151 -0.00712703907451771 0 -0.0005426362779606642 -0.003175007511569096 0
          0.0040215215371661416 -0.003912241069578791 0 -0.005644317727249867 -0.001622013304430501 0
          -0.00287154054384608 -0.0008962387503163886 0 0.0012831871480356986 0.0005103644037558305 0
          -0.0017376130529367807 0.007595352778031066 0 0.006883626258163982 -0.0049150859005923165 0
          -0.0030814362181642773 0.0009295679126481121 0 -0.004572662471970759 0.0017428235017335348 0
          0.005633048807399951 0.0016480932263907087 0 -0.00023035888715331116 0.000983092841128395 0
          -0.002342561461311987 0.002031364731948935 0 0.005854328677379073 0.0009876797100173947 0
          -0.007303068467334929 -0.0017172907078966825 0 -0.009421547766200118 0.0011069298190298693 0
          0.0004722130792236901 0.0005477482029599389 0 0.0017170179398622244 -0.002065797976208002 0
          0.0036656127700841145 0.000020991335940808743 0 0.0013269674088490768 -0.0017920721745271985 0
          0.003061950765808677 -0.001330873706073698 0 -0.0026428006762862677 0.00015320118845918592 0
          0.00037462490480746446 0.0011711688656624495 0 0.00026362052779298206 -0.00011087714209771335 0
          0.0019972205490370763 -0.000427274583785899 0 -0.00033549151051701217 0.0008513047955168841 0
          -0.0006052964480910383 -0.00010957965855556683 0 0.0021712380629709703 -0.0007294506574612857 0
          -0.0020143282377642407 -0.0005739396879161796 0 -0.0002756731467493491 0.0003615648857784808 0
          -0.0038466034979177024 0.0016407656597400792 0 -0.0023973326345215046 0.00020672140971677498 0
          0.0012591244779703355 0.0005762920357392056 0 0.0018982580507090078 0.0003194326028914017 0
          -0.00042834650560381524 -0.000418895240837493 0 -0.0025462780283136686 0.0015386989205771408 0
          0.0028409511559195073 -0.0003667154128509357 0 0.003552943533887631 -0.0007361117555086136 0
          0.004545877081072524 -0.0006436499839584405 0 -0.00020926098468922682 -0.0012506529506315467 0
          0.0009046814496367879 -0.00039088054641549534 0 0.003472837736234166 0.0000012725984337520128 0
          -0.0002528479207228094 -0.001084725625671278 0 -0.0019463487033701261 -0.0005184496026821918 0
          -0.004343487957727946 0.00008307602910851271 0 0.003462279453587229 -0.0000034421094879611086 0
          -0.005334370919491903 0.0004117710397336653 0 -0.00426760526567635 0.0007407990109814387 0
          0.005782260875607086 0.00046705454873266624 0 -0.0007076453527918742 -0.0006728498851255238 0
          0.0013379497150897313 0.00007528905693283773 0 -0.0010856915610927898 -0.0008291189012682093 0
          -0.0033425493625549437 0.000779293808080685 0 -0.00043316075556412877 -0.00024218388924750596 0
          <InformationKey name="L2_NORM_RANGE" location="vtkDataArray" length="2">
            <Value index="0">
              0
            </Value>
            <Value index="1">
              0.19029467843
            </Value>
          </InformationKey>
        </DataArray>
        <DataArray type="Float64" Name="Velocity_SGS2" NumberOfComponents="3" format="ascii" RangeMin="0" RangeMax="0.3693409316460446">
          6.93106875911825e-310 6.93106875911825e-310 4.6832553489696e-310 0.07357869717884627 0.1849382429333873 0
          0.08695445266987895 -0.21641329162103157 0 0.36932246313460504 -0.0036935096258813725 0
          0.36274899922233894 0.0026170128819317413 0 0.08408160336897086 0.2148738420497295 0
          0.06616570137342973 -0.1879631338879507 0 -0.1277549924849888 0.06612246304009324 0
          -0.11881252986183255 -0.06617568774180249 0 -0.13183612954301346 0.059539030994353884 0
          -0.22672822729970454 -0.0041021987128352505 0 -0.12187797430741831 -0.0687681571560808 0
          -0.1905854111061766 -0.00831647915817952 0 0.12375499970623494 0.10633427299986992 0
          -0.048128301403759746 -0.053714565853531356 0 -0.03420342115860944 0.08986290753563306 0
          0.12381384579105267 0.08716231633003282 0 -0.04861543671038432 -0.03985628493316228 0
          -0.026652191296993498 0.101537908185996 0 0.1499532852394164 -0.08543018104221348 0