<?xml version="1.0"?>
<VTKFile type="UnstructuredGrid" version="0.1" byte_order="LittleEndian" header_type="UInt32" compressor="vtkZLibDataCompressor">
  <UnstructuredGrid>
    <Piece NumberOfPoints="164" NumberOfCells="275">
      <PointData>
        <DataArray type="Float64" Name="Velocity" NumberOfComponents="3" format="ascii" RangeMin="0" RangeMax="1.7247821915264583">
          0.9748502382062092 0 0 0.9972085232248412 -0.008619516541610465 0
          1.1651376894759176 0 0 1.1785336079015947 -0.02163269543300647 0
          1.0558638888657408 0.00910679376915886 0 1.1598732311900255 0 0
          1.1570767244987983 -0.00688998020736072 0 1.1717446757554422 0.003843257502178033 0
          1.1907578794998424 -0.001233961051451021 0 0.9164286009107963 0.00022594378738084443 0
          1.1519753989861197 0 0 1.1488620510858565 0.0008734539228270058 0
          1.1502419792340497 -0.0037122928924718623 0 1.1459827379082625 -0.0013788131571748343 0
          1.1721876389952894 -0.007079257874231392 0 1.041523020588377 -0.0005964114224697757 0
          1.1521561410973595 0 0 1.146788340876624 0.0007799898985861574 0
          1.1507274179245415 -0.0007039555322213519 0 1.1511600289602648 0.000463015715100871 0
          1.1512713525676987 0.00022033494320446953 0 1.1873457276635446 -0.0006213374652921043 0
          1.151942804601757 0.0005604476289144051 0 1.152973244875545 0.000050907225016676664 0
          1.1423300498089324 0.0013202597316898177 0 1.047510214271089 0.0015415776099010458 0
          1.153946459485995 0 0 1.1463243150321545 -0.0010963365480072393 0
          1.1504343928999998 0.000760936535987214 0 1.149051010418889 -0.00010946607239137508 0
          1.1668457865319752 0.001974164514177299 0 1.1484706910178435 0.0014418845510452438 0
          1.1499803219868128 -0.0005601437310567054 0 1.14940311390966 0.0015225787788297964 0
          1.152522374679837 -0.0011475405164350929 0 0.9320108680905995 -0.012279451420587027 0
          1.1539301159374158 0 0 1.1508054337967457 -0.000553499940707478 0
          1.152705285353589 0.003165268461856508 0 1.189791155522052 0.0006736549156694138 0
          1.147340190672189 -0.00006229193988599538 0 1.1455048435925408 -0.0033716745602626022 0
          1.1473540773436135 0.0014286326459606443 0 1.147257337922726 0.0028424333610497913 0
          1.1467883124013016 0.00045033560733686033 0 1.1505676485470584 0.004681950429723328 0
          1.1491435135545067 0.0005126667100162159 0 1.060268615612258 0.008378972805249968 0
          1.157077415687454 0 0 1.1482245620509302 0.000041376040650878976 0
          1.155414465219555 0.005939644221719158 0 1.1709834580326133 0.003183462293666091 0
          1.1510656796211434 0.0003170276078682912 0 1.1454142496684439 0.0016336133013904724 0
          1.1463773008637292 -0.0013200707608678457 0 1.1485788761957814 0.005867857728332011 0
          1.1486593710787563 0.00024087544296584932 0 1.1494165218084809 -0.0013977263307728127 0
          1.151215484822688 0.00998062003633862 0 1.1465334774615132 -0.0021535240397976716 0
          0.9235213509747187 0 0 1.1664282257041192 0 0
          1.1489513819311532 -0.002735065966575603 0 1.1889178698064218 0 0
          1.1586929887630064 0.012747120362134733 0 1.1506091116604586 0 0
          1.1434884667161764 0.0001912048995162522 0 1.1376308889117863 0.003875267358388879 0
          1.1515957331778135 -0.002084603274162854 0 1.1463308834461374 -0.0031678414001324994 0
          1.1446911445168024 0.01427442465023404 0 1.1502071301735413 0 0
          1.1488811696538241 -0.002884523421399156 0 1.1627516160980635 0.016013487905578203 0
          1.153407873900373 0 0 1.1768535752193354 0 0
          1.1495112078251082 0.00031596278182935926 0 1.1743429020744467 0.017982067347697563 0
          1.1454225753839125 -0.009218803015507027 0 1.1406738370260956 0.015570804453000816 0
          1.1511490439714547 -0.005792009753622475 0 1.1505595482979094 0.03017158486486603 0
          1.1460668713510374 0 0 1.1412647560117979 -0.012642832010375674 0
          1.152031553557674 -0.0018296426279962935 0 1.1807877613356026 0.030306128735488293 0
          1.1514669177561447 0 0 1.1938211621271002 0 0
          1.0573020021314308 0.05687079928323249 0 1.1557726557604702 -0.01199923944422898 0
          1.1562626533661275 -0.005960798129577117 0 1.1027336673187293 0.08633205717623066 0
          1.0753509033370452 -0.05153428715368668 0 1.1571689306407575 0 0
          1.1056075608749791 0.10948893185004108 0 1.2223950064767628 0.019428538342439617 0
          1.1446083965564784 -0.031659305856589715 0 1.2064436355858548 0 0
          1.1640567136611806 -0.01223012844178045 0 1.1698775854237244 -0.01942437250822219 0
          1.1631685526322266 0 0 0.9476075424097349 -0.011486701355625696 0
          1.1158237157529884 -0.13513185158019425 0 1.26891974299724 0.07554840701034099 0
          1.2317086611142005 0.011620516449379415 0 1.481981510723898 0.3100007535381431 0
          1.1828058745130396 -0.05177934052745374 0 1.211382257278946 0 0
          1.1749924439050192 0 0 0 0 0
          1.1975522744449945 -0.02025835431183836 0 1.5655002394805746 -0.3519502890653054 0
          1.7198723375288232 -0.13004903232994183 0 1.1726197884951242 -0.010169285003827539 0
          1.219786695852166 -0.12560680589873105 0 1.2300317136856658 -0.017020755425368912 0
          0 0 0 1.1954306275608502 0 0
          0 0 0 1.2167452626592703 0 0
          0 0 0 0 0 0
          1.241021605380058 -0.01701446658727614 0 1.2444961886028891 -0.047406274866632375 0
          1.4662350820528816 -0.4387013615485211 0 1.161158128082356 -0.12314356341527756 0
          1.6408776578824134 0.06717700828388934 0 0.7773841330417078 0.08509305443578447 0
          1.2210487513219144 0.04581432518052499 0 1.48186630907218 0.49898580186618996 0
          1.210455508853112 0 0 1.162494150453033 0 0
          1.031204603082736 -0.050651351314382975 0 1.1368345619892652 -0.03435516258816986 0
          1.161132271296226 -0.06959218936606901 0 0.9307708530416171 -0.051419352432205405 0
          1.0539237006806808 0.14862558693295974 0 1.2256081484700003 0.014492436563334748 0
          1.217584106838048 0 0 1.1132931744638275 0.15147435642817528 0
          1.1640224424686405 0.01061751264580099 0 1.1898739654976058 -0.03434411094394205 0
          1.1682181135866525 0 0 1.1501820366120463 -0.006424226588630068 0
          1.106590835840135 0.006064016649416243 0 1.19386745921616 -0.031034662163653193 0
          1.0622691363674062 0.06064620485407974 0 1.2157217101010684 0 0
          1.2169573433043568 0.022451677808980892 0 1.188948110921126 0.05390863499933571 0
          1.1791543701871454 0.01588975833099617 0 0.999999998033421 0 0
          0.999999998033421 0 0 1.1717533733792387 0.02908227289023544 0
          0.999999998033421 0 0 1.1469139556997765 0 0
          0.999999998033421 0 0 1.1302471412250847 0.03007296972571499 0
          0.999999998033421 0 0 0.999999998033421 0 0
          1.2194411358228792 0 0 0.999999998033421 0 0
          0.9999999980334212 0 0 0.9999999980334212 0 0
          <InformationKey name="L2_NORM_RANGE" location="vtkDataArray" length="2">
            <Value index="0">
              0
            </Value>
            <Value index="1">
              1.7247821915
            </Value>
          </InformationKey>
        </DataArray>
        <DataArray type="Float64" Name="Pressure" format="ascii" RangeMin="-2.850205144494871" RangeMax="33.67502436578404">
          -2.850205144494871 -2.6388124561564754 1.6828970410587578 1.3236761147902687 -2.6265072514228933 3.0502444861233577
          2.932134064387795 2.288532527626409 1.5496358450341627 -2.6580552768507753 5.079440931292189 4.098233770797063
          5.101983570741226 3.011859735556327 2.0968958254286334 -2.6823379675208114 7.03571735212861 6.088793625275058
          5.085250963634832 7.0518899371170845 4.095316739942286 0.9396922476379168 7.023332990371048 8.039349973721366
          3.007125861364673 -2.612794188278203 9.02645346760061 6.06082061972536 9.022531108103632 5.083288429329167
          2.0731719262333477 9.03884820217589 8.031205175733032 10.004395517954269 4.082544303248742 -2.493503717772264
          11.009300980048447 7.080259103167408 10.994814508102053 1.627212060380821 6.107083879900994 3.0815521813491746
          9.979806827961259 10.960498152029112 9.003556792019062 11.953071207159368 5.124629742278748 -2.3392056415723856
          13.009670989897339 8.00680442906727 12.976112401712008 2.1995941881684806 7.069065645034065 11.907101240462449
          10.941599209060584 12.883374179496679 4.23174167642774 9.97520281641041 13.922169823081413 6.0813070794848585
          -2.5749331459818516 15.042240511270236 9.014735935845136 1.6318541274474947 15.002020929978078 3.1114317113527266
          12.852902034318253 13.845883627274524 8.061571925415551 11.926840572529912 14.885201451476348 5.161859953115334
          10.956293632622247 15.908871088763206 7.162505476025577 17.155047735356163 10.02537349957524 17.147504134450234
          13.59416812562697 16.005511287405444 12.87038537502704 16.862728379261586 9.034768367547613 15.267299845309555
          11.934667510343278 18.533008654441012 10.904582296394373 19.330235408977423 17.679839197433886 15.233935299794158
          13.973212707393147 18.889137076314974 17.700491164897954 12.927026264487248 19.832531476652946 20.799109124129746
          17.54361650466679 21.52679166979825 15.89561646575096 17.134888940218765 14.935890063232733 18.651993445252202
          19.19739631485466 22.29174005272581 22.824485664378685 20.03325177962857 19.139374502001093 23.880618441855315
          17.026445979377574 20.89442883860774 18.819254910072516 19.991934005833542 24.21119985262046 24.640348350570367
          21.09671945387971 24.86925127614008 24.223457634395835 19.214745422449035 24.28348743039517 26.017667862383657
          27.504662028613602 27.277409735054448 21.908728500523473 26.595693654821556 27.805101290998984 26.70078090298033
          24.493420492569008 28.99949264059539 23.992076996743332 27.72519226322762 21.533912792253265 28.379611768367344
          28.875536728168722 28.800757964521992 28.856183117942983 29.032855960089233 28.49076965534435 25.048751574813647
          23.87708434611784 27.270943250535833 26.455419581163554 29.798742696174234 30.091087329619903 30.336723063787325
          29.793104826536073 30.280259379019324 29.61000950229696 26.200732181120742 27.55169969835182 28.88022053698196
          31.055363422224897 33.221340759201 33.303476867761376 30.498281607347753 33.499452549863506 28.604879563476146
          33.67502436578404 30.077412154910547 33.67135975603146 33.64464714376047 30.11725790151587 33.35737333359545
          33.258829073704256 33.01557604958055
        </DataArray>
      </PointData>
      <CellData>
        <DataArray type="UInt8" Name="vtkGhostType" format="ascii" RangeMin="0" RangeMax="0">
          0 0 0 0 0 0
          0 0 0 0 0 0
          0 0 0 0 0 0
          0 0 0 0 0 0
          0 0 0 0 0 0
          0 0 0 0 0 0
          0 0 0 0 0 0
          0 0 0 0 0 0
          0 0 0 0 0 0
          0 0 0 0 0 0
          0 0 0 0 0 0
          0 0 0 0 0 0
          0 0 0 0 0 0
          0 0 0 0 0 0
          0 0 0 0 0 0
          0 0 0 0 0 0
          0 0 0 0 0 0
          0 0 0 0 0 0
          0 0 0 0 0 0
          0 0 0 0 0 0
          0 0 0 0 0 0
          0 0 0 0 0 0
          0 0 0 0 0 0
          0 0 0 0 0 0
          0 0 0 0 0 0
          0 0 0 0 0 0
          0 0 0 0 0 0
          0 0 0 0 0 0
          0 0 0 0 0 0
          0 0 0 0 0 0
          0 0 0 0 0 0
          0 0 0 0 0 0
          0 0 0 0 0 0
          0 0 0 0 0 0
          0 0 0 0 0 0
          0 0 0 0 0 0
          0 0 0 0 0 0
          0 0 0 0 0 0
          0 0 0 0 0 0
          0 0 0 0 0 0
          0 0 0 0 0 0
          0 0 0 0 0 0
          0 0 0 0 0 0
          0 0 0 0 0 0
          0 0 0 0 0 0
          0 0 0 0 0
        </DataArray>
        <DataArray type="Float64" Name="Velocity_SGS" NumberOfComponents="3" format="ascii" RangeMin="0" RangeMax="0.1604189189037089">
          6.90992381365887e-310 4.68650974545637e-310 4.68650974545637e-310 0.005331475079341529 -0.007659815967526708 0
          -0.04716355530923034 0.006571744515818546 0 0.002083732167600539 -0.008784928714123093 0
          0.06853158754319914 0.01012719439878584 0 0.09182754996258333 0.0042972562880484524 0
          -0.018158251105954284 -0.0035559578437785316 0 0.15441515052919272 0.04347632492841921 0
          -0.011473763566873851 0.0056913896066064715 0 0.10092628608292585 -0.023863766014515463 0
          -0.08059762660966298 -0.035468943689526564 0 -0.05233308364618629 -0.04019034445626613 0
          0.027701446499083876 0.003337011098830287 0 -0.04166211947059374 0.009305803572070033 0
          -0.009165323083035217 -0.008579426979138289 0 -0.09365861276799381 0.011009822463011926 0
          0.030634120251587765 0.019078897216292037 0 -0.03959274779264477 0.010905124999947568 0
          -0.08655761828039316 -0.01031975671507572 0 -0.06602379874299635 0.0016802930511314446 0
          -0.05377092917664089 -0.010382777379117795 0 0.02184421364359143 0.010989916758552546 0
          0.016171401644390085 -0.0010423606188758403 0 0.02453295401311924 -0.012809902900422748 0
          0.02120846459476427 -0.0011904610076343483 0 0.07546781536738544 -0.0326509043263436 0
          -0.02170135801155027 0.01956555084479553 0 -0.029969740210172898 0.013783927238197834 0
          0.011319960547532492 -0.0057565792633826425 0 0.004756562034415522 0.003508931578016675 0
          -0.0029937227226878365 -0.0011762728662873595 0 0.004851082833720568 -0.0018921832096275488 0
          -0.0006276230128142626 0.0008285548213841124 0 0.016903431114747774 -0.0010306697518131405 0
          -0.018000333853221362 0.001850186621940488 0 -0.015567495939012332 0.011557351381647398 0
          -0.03248180326812609 -0.0010469492514592425 0 -0.06469572289569694 0.03344106554896358 0
          0.022436666183567055 -0.012340429102498064 0 -0.009885389456801265 0.000019775159315904957 0
          -0.006560369089765632 -0.0010048214832426919 0 -0.009508198487863585 -0.000550379773625686 0
          0.003775460700784054 0.0005417071466685035 0 -0.0012160791944200169 0.00009663284789705105 0
          0.016144531374791632 -0.006604803623037275 0 0.007366494743261819 0.005325387125554395 0
          -0.004893616762203415 -0.0004112381980278737 0 -0.003089418395249012 -0.0005971274745438632 0
          0.02651306449280653 -0.010249156277360671 0 0.02896848558756003 0.007234326332319562 0
          0.004909239304242623 -0.020560305185656214 0 -0.009135489640818329 0.0014828628220204954 0
          0.01746049311010919 -0.005587128771304657 0 0.008922799225901293 0.009666239791218249 0
          -0.011054459062548412 0.0033774545096098034 0 -0.005716337654864543 -0.008309459759708777 0
          -0.0029973824291793746 0.0023773253196605008 0 -0.007437964254736317 0.0014988839582491162 0
          0.010855726317757995 -0.005605928381074338 0 -0.00583201443755983 0.005224625153324152 0
          -0.0022213084526895204 -0.000560298309889447 0 -0.0002979731015701147 0.0023003642525791035 0
          0.003756827960933512 0.001267805692369379 0 -0.012327774851315487 -0.0004690102773104792 0
          -0.0068452424133245635 0.0005610526427940915 0 0.0027889610383507965 -0.00035929745125463713 0
          0.010871358432947984 0.0006021736330032005 0 -0.016508254189585313 -0.0022047012945889074 0
          0.006851557429303241 -0.0010967476049447132 0 0.049722980502753214 -0.029743765076320244 0
          -0.008665917108574069 -0.0008245412743573422 0 0.0057071756477356465 0.0003369808249197862 0
          0.002609101174579862 -0.001404679340825335 0 0.0001230189199582744 0.0010058477500186585 0
          0.0005837102899960121 0.0010814924064862304 0 -0.00007911326167497467 -0.0017968254104842563 0
          -0.018392121162759643 0.010359272120121134 0 0.00018198325596134517 0.00041298563976543566 0
          -0.007892600674319518 0.005805622593286494 0 0.003586573903771479 -0.0006622716879467107 0
          -0.0032281602736404513 0.0007107122845959627 0 0.003109562808515302 -0.0012127601740470652 0
          0.001193112223943234 0.000009263689976339324 0 -0.0008548261516833706 0.00019012608510765973 0
          -0.003580763902395594 0.0008816036990095309 0 0.00007273427843175711 0.0004204181092979747 0
          -0.004610640606776924 -0.001681004718672558 0 -0.00040586502252123427 -0.00035995641156649457 0
          0.00013474466672268944 -0.0001995156707790991 0 0.004986206210644006 -0.0005127670892297977 0
          0.0002449114436181859 0.000038356511210794606 0 -0.000028926219547881367 0.00015799171912005543 0
          -0.000040423718281279896 -0.00012838129919744558 0 0.00006120213075481126 0.0000817655860596959 0
          0.000011101935731695681 0.00011333826623976315 0 -0.0002497657233355316 -0.00009482984396659794 0
          -0.00003868267540055962 0.000053282939839574095 0 -0.00012435473184047217 -0.00008015866051751866 0
          0.0001315729771626742 0.00011639840218457997 0 0.00002712869334715661 -0.000057785721061725265 0
          -0.0001338213317944103 -0.00029659540553620594 0 -0.000010168051962357412 -0.000013182825945798822 0
          0.00017767025311902807 -0.00017555544066675039 0 -0.00018831827902306283 0.000958330883668753 0
          0.00018665005161195265 -0.0004334062054558867 0 0.00005967202618060466 0.00004551867049805187 0
          0.000053961193300003114 0.0001257909165244339 0 -0.00034563383681721316 0.00028432726381645774 0
          0.000034221689370359215 0.0003153317473824856 0 -0.00019457360667926167 0.000041233552304218076 0
          -0.000042732155298689825 -0.0000953517302824373 0 0.00013210814060742536 0.0001600178983117636 0
          -0.00013401429687707046 -0.00002267602607451473 0 -0.0001235076898600539 -0.00003979245062680813 0
          -0.0005299490499257333 0.000133882549553911 0 -0.0002621598883134899 -0.00000597607849637437 0
          0.000046052890678500015 -0.00007588930840560157 0 0.00019239282256940343 -0.000028806986410724784 0
          0.000041272173125094034 -0.0001412553163196435 0 -0.00013967280442040076 -0.00009691244899265967 0
          0.00009245596964352079 -0.000167654174823848 0 0.000457751233022188 -0.0002602917529730291 0
          0.002613271523975609 -0.0002023538571210044 0 -0.000004941477181716211 -0.000004688953978068348 0
          0.00005769996874563714 0.00009645006947864618 0 -0.00037994641576160644 0.0000838272386438977 0
          -0.0015227526184117019 0.00043223460312539125 0 0.00007606507371999572 0.00002068508480708824 0
          -0.0001798782421946874 0.000005562422620178344 0 -0.0025312001212714763 0.0005475002986757064 0
          -0.004746543786557901 -0.000015954160944074274 0 0.000015132481297913969 0.000026334055506593864 0
          0.001408026342286502 0.00012436998671881843 0 -0.004611816739670092 -0.00010461504295819555 0
          -0.00008654838859160911 -0.000039110604386360264 0 0.0010848965896969836 0.00032092066733687883 0
          0.005712064182390594 0.00023031615616649743 0 0.00038883126906663943 0.00003896854287851166 0
          0.00019824993449679625 -0.000041713959898893754 0 0.0019274354588135693 -0.00007468686174198191 0
          -0.00026682952039446456 -0.00029637145012452026 0 -0.0002809266689553152 -0.00004743489863164148 0
          -0.0006003766023282707 0.0002258769214863523 0 -0.00003735066715326526 -0.0002922322828596131 0
          -0.0007182264526969145 0.00024146369081451147 0 0.0003546485565534355 0.0011118190723217168 0
          -0.0010433719863604395 -0.00020384550066115736 0 0.00035523622011254254 0.000009647013989479318 0
          0.0014098878795318509 -0.00004858305207556342 0 -0.0006729631506332226 -0.00010963521881780421 0
          0.000011276204000822804 0.00005443655112530505 0 0.0033325566261913856 -0.0004643817666555636 0
          -0.0012474101462310648 -0.00024060201785420187 0 0.00031422864303137825 0.000039295070029183545 0
          0.0018756497091312948 0.0006819584831281576 0 0.0014606794536836457 -0.00015525199894012357 0
          0.00016010876434090698 0.0004135959875288804 0 -0.00021478095997284603 0.00005518239032686804 0
          -0.00029697518499985744 0.00004226077719778322 0 0.00005772398513617216 0.00008429540287870424 0
          -0.0001198548321845338 -0.00005466189483705337 0 0.0011236712380216245 -0.0003251140899548382 0
          0.00003648858361426742 0.000032678765255915644 0 0.0018047392802688707 -0.0004990009399661444 0
          -0.0005457007818326546 -0.0003704031925606696 0 0.00010094943077508487 0.0000769602521481578 0
          0.0004975667653341111 0.00018667247796671824 0 -0.002429568205704232 0.000917894105117185 0
          -0.00001938491722907434 -0.00005870449681264236 0 -0.003632887607167127 0.0009879489366969787 0
          0.0028332775996999233 -0.0001639897281934062 0 -0.002918262192515008 -0.00017748081502144797 0
          0.005155536680052619 -0.00028689063201718017 0 -0.00021744287851410108 0.00010734119361428167 0
          0.006401055397479762 -0.00015659400061952816 0 0.002830351664562138 -0.000454080843463665 0
          -0.0033755363317786342 -0.000809459866357919 0 -0.00029503607105903175 0.0002023368597488961 0
          -0.002091634845661719 0.00045704431121309087 0 -0.0036843427227406817 -0.0016083517197233088 0
          0.0026293677603216404 0.00014974147048688174 0 -0.004702725418543683 -0.0002099098183889145 0
          -0.00008315376720803618 0.000013237064912676309 0 0.003579712507745469 0.00009392925543978835 0
          0.0012585991686000287 0.0003610293644194818 0 -0.0008563830487005798 -0.00016206543184554484 0
          0.0017196917196485707 0.00034811455037399297 0 -0.0007034329587927344 -0.00013757587986628508 0
          -0.00013999568860959322 -0.0001695417064980244 0 -0.000013337797798529968 0.0000889399691427275 0
          -0.0001313247736333341 -0.00011333982630199327 0 0.00015513488808307512 0.000059933259086585706 0
          -0.00005603016920950732 -0.000023684608841377615 0 0.000009022986428079325 0.0001229514633000534 0
          -0.00005456116676453495 -0.0000010306133493197066 0 0.00010728830764028574 -0.0000496167573170926 0
          0.004729210955261885 -0.0003290078940532524 0 0.005632865482207761 -0.00019810215698460999 0
          -0.0027679723751690985 -0.0004040224727588147 0 0.002292617744194133 -0.00009167617174015214 0
          -0.00002855202541334988 -0.00008594515255351727 0 -0.00011625703163654616 0.00006408083407381744 0
          0.00022416279826373942 -0.00016110619072082715 0 -0.0032831844655340733 0.0004896789202898949 0
          -0.002941501906193554 0.000049062305411380714 0 -0.00037215975088470104 0.000017143465161088547 0
          -0.00003833913060536531 0.00007296125669780138 0 -0.00023090720929021518 -0.00005302213308891217 0
          0.00211076128816883 -0.0000727891641688441 0 0.00004770311689655801 0.00006703642788452101 0
          -0.0018200566954620126 0.000026401549168411504 0 0.000247224007162494 0.0000033638377305202952 0
          0.001957121655912142 0.0009471909155596035 0 0.0007447852859261465 -0.0005145448128294908 0
          0.0059428816396559815 0.0013635054857211682 0 -0.004973827658267936 -0.001935698684144138 0
          0.0001731635519322623 0.0008459472141238252 0 0.005235613951118465 0.00008467317814495778 0
          -0.0018424015977855123 -0.00014906157972599556 0 -0.0014870791212570806 0.00008244364271744778 0
          -0.0007398874371850022 -0.0004126594904097988 0 0.0011504273946638366 -0.00019078699319337327 0
          -0.0025800328608357598 0.0009128744582911489 0 0.0015373691885786868 -0.0006908871372009183 0
          0.0012717679482003633 -0.0006546093053118997 0 -0.0016520901227261744 0.0002784485493113486 0
          0.00404467079917934 0.0025174375654896516 0 0.002740982134563771 0.002398467956520476 0
          -0.00008252870845817852 0.00014110221281038871 0 -0.0020087022796675745 0.0003000043022154857 0
          0.00007539102563519661 -0.004671348603483776 0 0.00030488997015098854 0.000001570925882939972 0
          -0.0009402604898821475 0.0007944535885653634 0 0.0013815552209636632 -0.0007299088442483027 0
          -0.007072641595117699 -0.00035438458949511235 0 0.0002442536698792572 -0.0000459903032461618 0
          -0.00020217944302817705 0.00009084297896215313 0 -0.0014903922979918815 -0.00012086713565671896 0
          0.007348921358835355 0.0009062969777221431 0 -0.0015157525870833706 -0.0000858459476588581 0
          0.007480282796261762 -0.0007445430041527202 0 0.0019559611707246727 -0.001007500018222162 0
          0.00001727166173296911 -0.00001879311727044637 0 0.0019364422916911775 -0.000510425346084185 0
          0.0005466649003753018 -0.00031741479080343654 0 0.0006444127658236888 -0.0018013682993794002 0
          0.01070434075537554 0.0047421684727552765 0 -0.00008465033621414155 -0.00009787206897678949 0
          0.002798481604503466 0.0004917620473124014 0 -0.0010130434660473573 -0.00044619984830113776 0
          -0.0018726234081878042 -0.0005903325598990589 0 -0.0008236467838228557 0.000004537366493824317 0
          0.00004701099061474938 -0.00030182500726188546 0 0.00008602726329241198 0.004219568953009117 0
          0.0033828971245392562 0.005107224074186572 0 -0.0015063396394127244 0.0008112575082306932 0
          -0.006410981310936115 -0.001995520941822186 0 -0.010423864317259782 -0.010192400497054105 0
          -0.011628773649181813 -0.002580177980735557 0 -0.002308726951845192 -0.00018224100354531994 0
          0.00108107885878854 0.0004147189527169838 0 -0.00032042030248257027 0.00029260902813293976 0
          -0.003126491842736094 0.0010438334555422138 0 0.005827390240253799 0.0012059732247330195 0
          -0.0009042876738500773 0.00017231718315385884 0 0.0000543437875256598 0.00038044330813091635 0
          -0.003967151240729697 0.000029593347567483366 0 0.0005165217830789182 -0.0011552813351252617 0
          -0.001053664676252722 -0.00010059872107645388 0 0.0005072692594295502 -0.00034251031074372434 0
          -0.0195459636504653 -0.002507644257739971 0 0.018042364565205485 0.008293481530420182 0
          -0.0009922088571609285 -0.0019490768455916472 0 0.0009548167943477262 -0.0008404965820088508 0
          -0.0003610698839159397 -0.0011342415962823879 0 0.04701936996992602 0.024622018013808582 0
          <InformationKey name="L2_NORM_RANGE" location="vtkDataArray" length="2">
            <Value index="0">
              0
            </Value>
            <Value index="1">
              0.1604189189
            </Value>
          </InformationKey>
        </DataArray>
        <DataArray type="Float64" Name="Velocity_SGS2" NumberOfComponents="3" format="ascii" RangeMin="0" RangeMax="0.33532206370473566">
          6.9099238136486e-310 6.9099238136486e-310 4.6865085633122e-310 0.20144290124819214 -0.24785620198627942 0
          -0.13393685550496662 0.08506983933948248 0 0.22420761291451696 0.24934280161732544 0
          -0.05368102440274003 -0.09585303259137706 0 -0.08737061606952384 0.06507593371980885 0
          0.14464617469415592 -0.18769279834794889 0 0.09682531153469556 -0.09207353234714034 0
          0.18059970627964814 0.18693138290124106 0 0.013950236763808146 0.07606505521139932 0
          -0.02048649776669581 0.08432973619940537 0 -0.12575931233405774 -0.04428979210277125 0
          -0.11632022610990267 0.05790871763811245 0 -0.0333744655355671 -0.09647041013114827 0
          -0.09234472113959818 0.01777032719129835 0 0.0017196339353141299 0.08222543717415136 0
          0.0761961693744446 -0.14449350583845053 0 -0.019722262847716783 0.12643051246617715 0
          0.018726830433251983 -0.0809567631305096 0 -0.11010624584281885 -0.012900006536822321 0
          0.03961023801691402 -0.11115468671057828 0 0.062111209960421625 0.02042506011414588 0
          0.06457031906989036 -0.00619592189365119 0 -0.11038969839937891 -0.02904274484627841 0
          0.007453244661658167 0.03110161457456766 0 -0.05026599215097824 -0.0014242314596957838 0
          -0.07020980181211668 -0.03811899781082056 0 -0.02994664543102998 0.03988566606168901 0
          0.029388506080055752 -0.030490080288165616 0 0.017048414382516974 -0.033312846881179276 0
          -0.02435495965472658 0.011927371400668144 0 -0.004734590905304407 -0.019723384146249013 0
          0.0010126144306108215 -0.009251493463731695 0 0.019806384559885502 0.005940100468308401 0
          0.029130556854967942 0.04253445971936969 0 0.0369818131054382 0.00461968045473099 0
          -0.013795226201724978 -0.015896085442183877 0 -0.051317067575392686 0.07885520140232295 0
          0.026782666065146878 -0.013275117404611767 0 -0.01622270160830982 0.03031395926385245 0
          0.01514149838134959 -0.01393948485781546 0 -0.00466736702623647 0.02484066905316861 0
          -0.009386483296267307 0.007660386333785391 0 -0.0056194545525524815 0.009331452776558925 0
          0.023879763943023748 0.007128614502068271 0 0.016315632192586554 0.002076212335037246 0
          0.012975609851025482 -0.02185034628598235 0 0.008814528239952258 -0.0017221784883866735 0
          0.013083035210386645 0.013504915371278953 0 0.024005107654629522 -0.01731232016102016 0
          -0.05581126443877815 0.000029111087708641632 0 -0.015610524520224742 0.0070670986685420056 0
          0.05923736823354722 0.003649667017203935 0 -0.05232761364823412 -0.03470823063149381 0
          0.00900347881214709 0.006095180202680371 0 -0.02342066705728336 0.008185506429517011 0
          0.0035923971542592124 0.011621648745157791 0 -0.015387924850878323 -0.010575048258386925 0
          -0.016564174631202543 -0.0037236637714427997 0 0.01254558317986345 -0.0015407344225570946 0