<?xml version="1.0"?>
<VTKFile type="UnstructuredGrid" version="0.1" byte_order="LittleEndian" header_type="UInt32" compressor="vtkZLibDataCompressor">
  <UnstructuredGrid>
    <Piece NumberOfPoints="107" NumberOfCells="10">
      <PointData>
        <DataArray type="Float64" Name="tem_BC" format="ascii" RangeMin="0" RangeMax="0">
          0 0 0 0 0 0
          0 0 0 0 0 0
          0 0 0 0 0 0
          0 0 0 0 0 0
          0 0 0 0 0 0
          0 0 0 0 0 0
          0 0 0 0 0 0
          0 0 0 0 0 0
          0 0 0 0 0 0
          0 0 0 0 0 0
          0 0 0 0 0 0
          0 0 0 0 0 0
          0 0 0 0 0 0
          0 0 0 0 0 0
          0 0 0 0 0 0
          0 0 0 0 0 0
          0 0 0 0 0 0
          0 0 0 0 0
        </DataArray>
        <DataArray type="Float64" Name="tem_FIXNO" format="ascii" RangeMin="-1" RangeMax="1">
          1 1 1 -1 1 -1
          1 -1 1 -1 -1 1
          -1 -1 1 -1 -1 -1
          -1 1 1 -1 -1 -1
          -1 -1 -1 1 -1 1
          -1 -1 -1 -1 -1 -1
          1 -1 -1 -1 -1 -1
          -1 1 -1 -1 -1 -1
          1 -1 -1 -1 -1 -1
          -1 -1 -1 1 -1 -1
          -1 -1 1 -1 -1 -1
          -1 -1 -1 -1 -1 -1
          -1 -1 -1 -1 1 1
          1 1 -1 -1 1 -1
          -1 1 1 -1 1 1
          -1 -1 -1 1 1 -1
          -1 1 1 -1 1 1
          -1 1 1 1 1
        </DataArray>
        <DataArray type="Float64" Name="Temperature" format="ascii" RangeMin="0" RangeMax="0.06522757509368673">
          0 0 0 0.01420937184797539 0 0.023006243855845113
          0 0.0210866713687404 0 0.03515368451975989 0.028555056413826708 0
          0.024832230517039953 0.04544976603646516 0 0.03161931763127208 0.042114090929246936 0.050631510740704926
          0.05381504498304743 0 0 0.02613454666078815 0.032223216927435426 0.04485186108750057
          0.06024943757232238 0.052020902446497964 0.056500419051150635 0 0.031130758661422276 0
          0.06203677912222282 0.025116757185261542 0.05000461786782286 0.06299546698365359 0.04987630586847719 0.05887217843672531
          0 0.06522757509368673 0.05997090897759783 0.028387901995738613 0.03173429697166573 0.050863894335832056
          0.06351166702163395 0 0.045077078390722176 0.06297864489462504 0.05773500772508632 0.0536210835059791
          0 0.06289268042564804 0.025101589476042286 0.023175016735966832 0.04328183182417982 0.048579183766184614
          0.035381603878476164 0.05908536248958102 0.05649497870219828 0 0.058603383623583034 0.014145298110694043
          0.0422071848545291 0.030751432686217155 0 0.0512300127032197 0.056922307419417506 0.014270916475004669
          0.03580748689190511 0.02119426533052605 0.04477240243777946 0.049160094687786635 0.01656482301999898 0.03834631555554558
          0.04973152555097323 0.050466615676652664 0.02488900927634917 0.019155856113545797 0 0
          0 0 0.02185946402884522 0.03883634195856349 0 0.045567736240294844
          0.026215442669861293 0 0 0.022095676129738322 0 0
          0.0350395195899956 0.025191784766949988 0.030740975319461232 0 0 0.02194506178587222
          0.027409512064108507 0 0 0.01944267293623182 0 0
          0.014268548065539151 0 0 0 0
        </DataArray>
      </PointData>
      <CellData>
        <DataArray type="UInt8" Name="vtkGhostType" format="ascii" RangeMin="0" RangeMax="0">
          0 0 0 0 0 0
          0 0 0 0 0 0
          0 0 0 0 0 0
          0 0 0 0 0 0
          0 0 0 0 0 0
          0 0 0 0
        </DataArray>
      </CellData>
      <Points>
        <DataArray type="Float32" Name="Points" NumberOfComponents="3" format="ascii" RangeMin="0" RangeMax="1.4142135623730951">
          1 0 0 1 0.10000000149011612 0
          0.875 0 0 0.8738170266151428 0.09799222648143768 0
          1 0.20000000298023224 0 0.8726339936256409 0.19598449766635895 0
          0.75 0 0 0.7476339936256409 0.09598446637392044 0
          1 0.30000001192092896 0 0.745267927646637 0.1919689029455185 0
          0.8717896938323975 0.2993242144584656 0 0.625 0 0
          0.6238170266151428 0.09799222648143768 0 0.7435793280601501 0.2986483871936798 0
          1 0.4000000059604645 0 0.8709452748298645 0.4026638865470886 0
          0.6226339936256409 0.19598449766635895 0 0.7418907284736633 0.40532779693603516 0
          0.6217896938323975 0.2993242144584656 0 0.5 0 0
          1 0.5 0 0.5 0.10000000149011612 0
          0.872032880783081 0.5021234154701233 0 0.5 0.20000000298023224 0
          0.6209452748298645 0.4026638865470886 0 0.7440658807754517 0.5042467713356018 0
          0.5 0.30000001192092896 0 1 0.6000000238418579 0
          0.8731204867362976 0.6015828847885132 0 0.375 0 0
          0.622032880783081 0.5021234154701233 0 0.375 0.10000000149011612 0
          0.41329440474510193 0.25 0 0.5 0.4000000059604645 0
          0.7462410926818848 0.6031658053398132 0 0.41329440474510193 0.3499999940395355 0
          1 0.699999988079071 0 0.5 0.5 0
          0.6231204867362976 0.6015828847885132 0 0.8723286986351013 0.7026252746582031 0
          0.28829440474510193 0.15000000596046448 0 0.3265886902809143 0.30000001192092896 0
          0.4177303910255432 0.4652777910232544 0 0.25 0 0
          0.7446573972702026 0.7052506804466248 0 0.5 0.6000000238418579 0
          0.33102479577064514 0.4152778089046478 0 0.6223286986351013 0.7026252746582031 0
          1 0.800000011920929 0 0.4177303910255432 0.5652778148651123 0
          0.20000000298023224 0.14000000059604645 0 0.8715367913246155 0.8036677837371826 0
          0.23829439282417297 0.28999999165534973 0 0.24467679858207703 0.3816666901111603 0
          0.7430737018585205 0.807335615158081 0 0.3354608118534088 0.5305556058883667 0
          0.5 0.699999988079071 0 0.125 0 0
          0.42500001192092896 0.6600000262260437 0 0.125 0.10000000149011612 0
          0.6215367913246155 0.8036677837371826 0 0.15000000596046448 0.2800000011920929 0
          1 0.8999999761581421 0 0.2491127997636795 0.496944397687912 0
          0.34273040294647217 0.6252778172492981 0 0.8732684254646301 0.9018338918685913 0
          0.15638239681720734 0.37166669964790344 0 0.7465367913246155 0.9036678075790405 0
          0.5 0.800000011920929 0 0.42500001192092896 0.7599999904632568 0
          0.07500000298023224 0.23999999463558197 0 0.1627648025751114 0.4633333086967468 0
          0.2544359862804413 0.6152778267860413 0 0.3499999940395355 0.7200000286102295 0
          0.6232684254646301 0.9018338918685913 0 0.07500000298023224 0.3400000035762787 0
          0 0 0 1 1 0
          0 0.10000000149011612 0 0.875 1 0
          0.0813823863863945 0.43166670203208923 0 0.16808800399303436 0.5816667079925537 0
          0 0.20000000298023224 0 0.261705607175827 0.7099999785423279 0
          0.5 0.8999999761581421 0 0.75 1 0
          0 0.30000001192092896 0 0.0813823863863945 0.5316666960716248 0
          0.625 1 0 0 0.4000000059604645 0
          0.1734112948179245 0.699999988079071 0 0.375 0.8999999761581421 0
          0.30000001192092896 0.8600000143051147 0 0.5 1 0
          0 0.5 0 0.08670563995838165 0.6499999761581421 0
          0.21170559525489807 0.8500000238418579 0 0 0.6000000238418579 0
          0.375 1 0 0.08670563995838165 0.75 0
          0 0.699999988079071 0 0.25 1 0
          0.125 0.8999999761581421 0 0 0.800000011920929 0
          0.125 1 0 0 0.8999999761581421 0
          0 1 0
          <InformationKey name="L2_NORM_RANGE" location="vtkDataArray" length="2">
            <Value index="0">
              0
            </Value>
            <Value index="1">
              1.4142135624
            </Value>
          </InformationKey>
        </DataArray>
      </Points>
      <Cells>
        <DataArray type="Int64" Name="connectivity" format="ascii" RangeMin="0" RangeMax="93">
          48 77 85 54 62 79
          67 51 65 85 93 68
          54 88 84 60 67 74
          23 19 6 9 21 11
          7 16 12 6 0 4
          9 2 1 5 7 3
          27 48 54 34 36 51
          44 28 39 54 68 45
          34 60 56 38 44 47
          4 14 17 9 8 15
          13 5 10 23 9 17
          33 16 13 24 26 18
          45 33 17 34 37 24
          25 38 30 34 17 14
          27 25 15 20 28 22
        </DataArray>
        <DataArray type="Int64" Name="offsets" format="ascii" RangeMin="9" RangeMax="90">
          9 18 27 36 45 54
          63 72 81 90
        </DataArray>
        <DataArray type="UInt8" Name="types" format="ascii" RangeMin="28" RangeMax="28">
          28 28 28 28 28 28
          28 28 28 28
        </DataArray>
      </Cells>
    </Piece>
  </UnstructuredGrid>
</VTKFile>
