<?xml version="1.0"?>
<VTKFile type="UnstructuredGrid" version="0.1" byte_order="LittleEndian" header_type="UInt32" compressor="vtkZLibDataCompressor">
  <UnstructuredGrid>
    <Piece NumberOfPoints="107" NumberOfCells="10">
      <PointData>
        <DataArray type="Float64" Name="tem_BC" format="ascii" RangeMin="0" RangeMax="0">
          0 0 0 0 0 0
          0 0 0 0 0 0
          0 0 0 0 0 0
          0 0 0 0 0 0
          0 0 0 0 0 0
          0 0 0 0 0 0
          0 0 0 0 0 0
          0 0 0 0 0 0
          0 0 0 0 0 0
          0 0 0 0 0 0
          0 0 0 0 0 0
          0 0 0 0 0 0
          0 0 0 0 0 0
          0 0 0 0 0 0
          0 0 0 0 0 0
          0 0 0 0 0 0
          0 0 0 0 0 0
          0 0 0 0 0
        </DataArray>
        <DataArray type="Float64" Name="tem_FIXNO" format="ascii" RangeMin="-1" RangeMax="1">
          1 1 1 -1 1 -1
          1 -1 1 -1 -1 1
          -1 -1 1 -1 -1 -1
          -1 1 1 -1 -1 -1
          -1 -1 -1 1 -1 1
          -1 -1 -1 -1 -1 -1
          1 -1 -1 -1 -1 -1
          -1 1 -1 -1 -1 -1
          1 -1 -1 -1 -1 -1
          -1 -1 -1 1 -1 -1
          -1 -1 1 -1 -1 -1
          -1 -1 -1 -1 -1 -1
          -1 -1 -1 -1 1 1
          1 1 -1 -1 1 -1
          -1 1 1 -1 1 1
          -1 -1 -1 1 1 -1
          -1 1 1 -1 1 1
          -1 1 1 1 1
        </DataArray>
        <DataArray type="Float64" Name="Temperature" format="ascii" RangeMin="0" RangeMax="0.06602163130142709">
          0 0 0 0.01430238053418376 0 0.023185004331618683
          0 0.02125456223812792 0 0.03547831101872692 0.02880677650811812 0
          0.02505448141715182 0.04591149317709285 0 0.03191802216936134 0.042538672292448815 0.05118431781440993
          0.05441042506973532 0 0 0.026376330947550798 0.03253420522804917 0.045323671912610275
          0.060952548363078285 0.05259256616663633 0.05714209472988698 0 0.031423493008632696 0
          0.0627737092431517 0.02534226103616553 0.050542507880331405 0.06375335735958955 0.05041706982591646 0.05955266710721531
          0 0.06602163130142709 0.060669233959366936 0.028637537374793045 0.03201893353721543 0.051415797661989324
          0.06427452602037449 0 0.045533274026675875 0.06373638597130991 0.05839581767877842 0.05421354664984567
          0 0.06364436510926118 0.025302145681527718 0.02335551170284623 0.04370911941302583 0.04909398669877407
          0.03570948223201747 0.059774759442043315 0.05713720977607227 0 0.059279625412312464 0.01423960737026329
          0.042633219646277865 0.031029225166835116 0 0.051790408101562546 0.057567947148639095 0.014364468109978953
          0.03615241901353796 0.021363372084119613 0.045243233063650676 0.04968778424214018 0.01669179946894993 0.038732856075917727
          0.05026434363405193 0.051012656086217176 0.025111977671137098 0.01931848627291752 0 0
          0 0 0.022055743376909666 0.0392240945080519 0 0.04602904155724787
          0.02645812377907997 0 0 0.022296085971724153 0 0
          0.03537211548674458 0.02541854106580643 0.0310174458082745 0 0 0.02213608212476686
          0.02763500507748151 0 0 0.01959471742743154 0 0
          0.014363644547844744 0 0 0 0
        </DataArray>
      </PointData>
      <CellData>
        <DataArray type="UInt8" Name="vtkGhostType" format="ascii" RangeMin="0" RangeMax="0">
          0 0 0 0 0 0
          0 0 0 0 0 0
          0 0 0 0 0 0
          0 0 0 0 0 0
          0 0 0 0 0 0
          0 0 0 0
        </DataArray>
      </CellData>
      <Points>
        <DataArray type="Float32" Name="Points" NumberOfComponents="3" format="ascii" RangeMin="0" RangeMax="1.4142135623730951">
          1 0 0 1 0.10000000149011612 0
          0.875 0 0 0.8738170266151428 0.09799222648143768 0
          1 0.20000000298023224 0 0.8726339936256409 0.19598449766635895 0
          0.75 0 0 0.7476339936256409 0.09598446637392044 0
          1 0.30000001192092896 0 0.745267927646637 0.1919689029455185 0
          0.8717896938323975 0.2993242144584656 0 0.625 0 0
          0.6238170266151428 0.09799222648143768 0 0.7435793280601501 0.2986483871936798 0
          1 0.4000000059604645 0 0.8709452748298645 0.4026638865470886 0
          0.6226339936256409 0.19598449766635895 0 0.7418907284736633 0.40532779693603516 0
          0.6217896938323975 0.2993242144584656 0 0.5 0 0
          1 0.5 0 0.5 0.10000000149011612 0
          0.872032880783081 0.5021234154701233 0 0.5 0.20000000298023224 0
          0.6209452748298645 0.4026638865470886 0 0.7440658807754517 0.5042467713356018 0
          0.5 0.30000001192092896 0 1 0.6000000238418579 0
          0.8731204867362976 0.6015828847885132 0 0.375 0 0
          0.622032880783081 0.5021234154701233 0 0.375 0.10000000149011612 0
          0.41329440474510193 0.25 0 0.5 0.4000000059604645 0
          0.7462410926818848 0.6031658053398132 0 0.41329440474510193 0.3499999940395355 0
          1 0.699999988079071 0 0.5 0.5 0
          0.6231204867362976 0.6015828847885132 0 0.8723286986351013 0.7026252746582031 0
          0.28829440474510193 0.15000000596046448 0 0.3265886902809143 0.30000001192092896 0
          0.4177303910255432 0.4652777910232544 0 0.25 0 0
          0.7446573972702026 0.7052506804466248 0 0.5 0.6000000238418579 0
          0.33102479577064514 0.4152778089046478 0 0.6223286986351013 0.7026252746582031 0
          1 0.800000011920929 0 0.4177303910255432 0.5652778148651123 0
          0.20000000298023224 0.14000000059604645 0 0.8715367913246155 0.8036677837371826 0
          0.23829439282417297 0.28999999165534973 0 0.24467679858207703 0.3816666901111603 0
          0.7430737018585205 0.807335615158081 0 0.3354608118534088 0.5305556058883667 0
          0.5 0.699999988079071 0 0.125 0 0
          0.42500001192092896 0.6600000262260437 0 0.125 0.10000000149011612 0
          0.6215367913246155 0.8036677837371826 0 0.15000000596046448 0.2800000011920929 0
          1 0.8999999761581421 0 0.2491127997636795 0.496944397687912 0
          0.34273040294647217 0.6252778172492981 0 0.8732684254646301 0.9018338918685913 0
          0.15638239681720734 0.37166669964790344 0 0.7465367913246155 0.9036678075790405 0
          0.5 0.800000011920929 0 0.42500001192092896 0.7599999904632568 0
          0.07500000298023224 0.23999999463558197 0 0.1627648025751114 0.4633333086967468 0
          0.2544359862804413 0.6152778267860413 0 0.3499999940395355 0.7200000286102295 0
          0.6232684254646301 0.9018338918685913 0 0.07500000298023224 0.3400000035762787 0
          0 0 0 1 1 0
          0 0.10000000149011612 0 0.875 1 0
          0.0813823863863945 0.43166670203208923 0 0.16808800399303436 0.5816667079925537 0
          0 0.20000000298023224 0 0.261705607175827 0.7099999785423279 0
          0.5 0.8999999761581421 0 0.75 1 0
          0 0.30000001192092896 0 0.0813823863863945 0.5316666960716248 0
          0.625 1 0 0 0.4000000059604645 0
          0.1734112948179245 0.699999988079071 0 0.375 0.8999999761581421 0
          0.30000001192092896 0.8600000143051147 0 0.5 1 0
          0 0.5 0 0.08670563995838165 0.6499999761581421 0
          0.21170559525489807 0.8500000238418579 0 0 0.6000000238418579 0
          0.375 1 0 0.08670563995838165 0.75 0
          0 0.699999988079071 0 0.25 1 0
          0.125 0.8999999761581421 0 0 0.800000011920929 0
          0.125 1 0 0 0.8999999761581421 0
          0 1 0
          <InformationKey name="L2_NORM_RANGE" location="vtkDataArray" length="2">
            <Value index="0">
              0
            </Value>
            <Value index="1">
              1.4142135624
            </Value>
          </InformationKey>
        </DataArray>
      </Points>
      <Cells>
        <DataArray type="Int64" Name="connectivity" format="ascii" RangeMin="0" RangeMax="93">
          48 77 85 54 62 79
          67 51 65 85 93 68
          54 88 84 60 67 74
          23 19 6 9 21 11
          7 16 12 6 0 4
          9 2 1 5 7 3
          27 48 54 34 36 51
          44 28 39 54 68 45
          34 60 56 38 44 47
          4 14 17 9 8 15
          13 5 10 23 9 17
          33 16 13 24 26 18
          45 33 17 34 37 24
          25 38 30 34 17 14
          27 25 15 20 28 22
        </DataArray>
        <DataArray type="Int64" Name="offsets" format="ascii" RangeMin="9" RangeMax="90">
          9 18 27 36 45 54
          63 72 81 90
        </DataArray>
        <DataArray type="UInt8" Name="types" format="ascii" RangeMin="28" RangeMax="28">
          28 28 28 28 28 28
          28 28 28 28
        </DataArray>
      </Cells>
    </Piece>
  </UnstructuredGrid>
</VTKFile>
