<?xml version="1.0"?>
<VTKFile type="UnstructuredGrid" version="0.1" byte_order="LittleEndian" header_type="UInt32" compressor="vtkZLibDataCompressor">
  <UnstructuredGrid>
    <Piece NumberOfPoints="141" NumberOfCells="306">
      <PointData>
        <DataArray type="Float64" Name="nsi_BC" NumberOfComponents="3" format="ascii" RangeMin="0" RangeMax="0">
          0 0 0 0 0 0
          0 0 0 0 0 0
          0 0 0 0 0 0
          0 0 0 0 0 0
          0 0 0 0 0 0
          0 0 0 0 0 0
          0 0 0 0 0 0
          0 0 0 0 0 0
          0 0 0 0 0 0
          0 0 0 0 0 0
          0 0 0 0 0 0
          0 0 0 0 0 0
          0 0 0 0 0 0
          0 0 0 0 0 0
          0 0 0 0 0 0
          0 0 0 0 0 0
          0 0 0 0 0 0
          0 0 0 0 0 0
          0 0 0 0 0 0
          0 0 0 0 0 0
          0 0 0 0 0 0
          0 0 0 0 0 0
          0 0 0 0 0 0
          0 0 0 0 0 0
          0 0 0 0 0 0
          0 0 0 0 0 0
          0 0 0 0 0 0
          0 0 0 0 0 0
          0 0 0 0 0 0
          0 0 0 0 0 0
          0 0 0 0 0 0
          0 0 0 0 0 0
          0 0 0 0 0 0
          0 0 0 0 0 0
          0 0 0 0 0 0
          0 0 0 0 0 0
          0 0 0 0 0 0
          0 0 0 0 0 0
          0 0 0 0 0 0
          0 0 0 0 0 0
          0 0 0 0 0 0
          0 0 0 0 0 0
          0 0 0 0 0 0
          0 0 0 0 0 0
          0 0 0 0 0 0
          0 0 0 0 0 0
          0 0 0 0 0 0
          0 0 0 0 0 0
          0 0 0 0 0 0
          0 0 0 0 0 0
          0 0 0 0 0 0
          0 0 0 0 0 0
          0 0 0 0 0 0
          0 0 0 0 0 0
          0 0 0 0 0 0
          0 0 0 0 0 0
          0 0 0 0 0 0
          0 0 0 0 0 0
          0 0 0 0 0 0
          0 0 0 0 0 0
          0 0 0 0 0 0
          0 0 0 0 0 0
          0 0 0 0 0 0
          0 0 0 0 0 0
          0 0 0 0 0 0
          0 0 0 0 0 0
          0 0 0 0 0 0
          0 0 0 0 0 0
          0 0 0 0 0 0
          0 0 0 0 0 0
          0 0 0
          <InformationKey name="L2_NORM_RANGE" location="vtkDataArray" length="2">
            <Value index="0">
              0
            </Value>
            <Value index="1">
              0
            </Value>
          </InformationKey>
        </DataArray>
        <DataArray type="Float64" Name="nsi_FIXNO" NumberOfComponents="3" format="ascii" RangeMin="1.7320508075688772" RangeMax="1.7320508075688772">
          -1 -1 -1 -1 -1 -1
          -1 -1 -1 -1 -1 -1
          -1 -1 -1 -1 -1 -1
          -1 -1 -1 -1 -1 -1
          -1 -1 -1 -1 -1 -1
          -1 -1 -1 -1 -1 -1
          -1 -1 -1 -1 -1 -1
          -1 -1 -1 -1 -1 -1
          -1 -1 -1 -1 -1 -1
          -1 -1 -1 -1 -1 -1
          -1 -1 -1 -1 -1 -1
          -1 -1 -1 -1 -1 -1
          -1 -1 -1 -1 -1 -1
          -1 -1 -1 -1 -1 -1
          -1 -1 -1 -1 -1 -1
          -1 -1 -1 -1 -1 -1
          -1 -1 -1 -1 -1 -1
          -1 -1 -1 -1 -1 -1
          -1 -1 -1 -1 -1 -1
          -1 -1 -1 -1 -1 -1
          -1 -1 -1 -1 -1 -1
          -1 -1 -1 -1 -1 -1
          -1 -1 -1 -1 -1 -1
          -1 -1 -1 -1 -1 -1
          -1 -1 -1 -1 -1 -1
          -1 -1 -1 -1 -1 -1
          -1 -1 -1 -1 -1 -1
          -1 -1 -1 -1 -1 -1
          -1 -1 -1 -1 -1 -1
          -1 -1 -1 -1 -1 -1
          -1 -1 -1 -1 -1 -1
          -1 -1 -1 -1 -1 -1
          -1 -1 -1 -1 -1 -1
          -1 -1 -1 -1 -1 -1
          -1 -1 -1 -1 -1 -1
          -1 -1 -1 -1 -1 -1
          -1 -1 -1 -1 -1 -1
          -1 -1 -1 -1 -1 -1
          -1 -1 -1 -1 -1 -1
          -1 -1 -1 -1 -1 -1
          -1 -1 -1 -1 -1 -1
          -1 -1 -1 -1 -1 -1
          -1 -1 -1 -1 -1 -1
          -1 -1 -1 -1 -1 -1
          -1 -1 -1 -1 -1 -1
          -1 -1 -1 -1 -1 -1
          -1 -1 -1 -1 -1 -1
          -1 -1 -1 -1 -1 -1
          -1 -1 -1 -1 -1 -1
          -1 -1 -1 -1 -1 -1
          -1 -1 -1 -1 -1 -1
          -1 -1 -1 -1 -1 -1
          -1 -1 -1 -1 -1 -1
          -1 -1 -1 -1 -1 -1
          -1 -1 -1 -1 -1 -1
          -1 -1 -1 -1 -1 -1
          -1 -1 -1 -1 -1 -1
          -1 -1 -1 -1 -1 -1
          -1 -1 -1 -1 -1 -1
          -1 -1 -1 -1 -1 -1
          -1 -1 -1 -1 -1 -1
          -1 -1 -1 -1 -1 -1
          -1 -1 -1 -1 -1 -1
          -1 -1 -1 -1 -1 -1
          -1 -1 -1 -1 -1 -1
          -1 -1 -1 -1 -1 -1
          -1 -1 -1 -1 -1 -1
          -1 -1 -1 -1 -1 -1
          -1 -1 -1 -1 -1 -1
          -1 -1 -1 -1 -1 -1
          -1 -1 -1
          <InformationKey name="L2_NORM_RANGE" location="vtkDataArray" length="2">
            <Value index="0">
              1.7320508076
            </Value>
            <Value index="1">
              1.7320508076
            </Value>
          </InformationKey>
        </DataArray>
        <DataArray type="Float64" Name="Velocity" NumberOfComponents="3" format="ascii" RangeMin="0.09763298005992625" RangeMax="0.1059224704943422">
          0.1059224704943422 -2.33122779807178e-10 1.9007335253763133e-10 0.09814256306754594 -2.859667782636707e-10 2.66658971365577e-10
          0.10521850601987795 -2.743738003965982e-10 2.08360860144891e-10 0.09814256305610047 -1.6222904680330797e-10 2.302453837602491e-10
          0.0977653403115395 -4.290852066856774e-10 9.617753116801267e-11 0.09840766810602158 -2.4358888636214264e-10 2.1633147586206232e-10
          0.10592246990481889 -2.4177336699830823e-10 2.000783676871265e-10 0.10592246991372094 -2.431044061412449e-10 1.9249575009787258e-10
          0.100000893398347 -2.391052779163793e-10 2.678398487275966e-10 0.0981425630933182 -7.840358124368232e-10 2.971397104123496e-10
          0.09814256310352308 -1.9897298603477161e-10 -2.5413711841638676e-10 0.09840766847465876 -2.813535381435716e-10 4.9257805718581316e-11
          0.09840766844197323 -3.853878592677697e-10 2.50221768517792e-10 0.10592246933879118 -2.52728870424309e-10 2.0998198601659123e-10
          0.105218505095275 -2.81732621735475e-10 1.8966010296365716e-10 0.09814256295107855 -2.6257513737825885e-10 2.3911707629297697e-10
          0.10025318823393642 -2.7578375339697405e-10 1.84484430015674e-10 0.10025318824627279 -2.4257412110562173e-10 2.2189911789787372e-10
          0.09776534032753685 -2.743380098909984e-10 1.1508138656464988e-10 0.09982027621416757 -2.824515822313554e-10 2.1557321426449505e-10
          0.0984076688017123 -4.075663299661566e-10 8.444246888672391e-11 0.10025318802715219 -2.9078940245473235e-10 2.3407521116053026e-10
          0.10000089383527641 -2.7613913897807557e-10 2.840859902751809e-10 0.09814256298501986 -2.7461373244518597e-10 -2.509759361661103e-10
          0.10025318802943728 -2.8221982847292507e-10 2.262885786557848e-10 0.09838213344302733 -2.483379388974498e-10 1.8706248309118688e-10
          0.10592246990367887 -2.4964513310734603e-10 2.0241989467824645e-10 0.10025318810039098 -2.584354375725912e-10 2.502057398361296e-10
          0.09814256313417309 2.0899471781294677e-10 2.4781666329563773e-10 0.10025318807209471 -2.741815337540208e-10 2.057699893442454e-10
          0.09997640910224646 -2.952116794352978e-10 1.7200469806161367e-10 0.09982027599055938 -2.686861062448778e-10 2.2528126674481435e-10
          0.0998202759910395 -2.778826025551647e-10 2.188122294773057e-10 0.09838213379007602 -9.53988037730936e-11 2.07248358884428e-10
          0.1059224693290786 -2.5655185441565004e-10 1.992332182630851e-10 0.09838213379040771 -2.3353260314974105e-10 3.2698703888175647e-10
          0.09840766847035401 -1.0991444620328631e-10 2.140065737523825e-10 0.10025318785486527 -2.8167038408390743e-10 2.267993240170209e-10
          0.10025318787154668 -2.81106260270542e-10 2.47283086814598e-10 0.09838213411797518 -1.054003513021766e-10 3.6209208489613504e-10
          0.0984076688035818 -1.1517002076044027e-10 6.988325320504182e-11 0.09997640956480439 -2.878490734284722e-10 1.8126878751184813e-10
          0.0980416294553853 -2.653196516237788e-10 1.1986984149863034e-10 0.09804162944666095 -3.109641239729666e-10 2.1953459836993122e-10
          0.10025318808184797 -2.7041982322654387e-10 2.214193398986266e-10 0.09997640954530977 -2.869711048147153e-10 2.2319684517615155e-10
          0.10521850602283789 -2.6147385731987785e-10 2.0229369347892554e-10 0.09814256308783838 -3.304058586015536e-10 2.2881986322285745e-10
          0.09763298005992625 -9.460502145928031e-11 3.616290943545478e-10 0.09776534029564816 -1.316836077308665e-10 7.199272204624706e-11
          0.0980416295153349 2.3034094653211797e-10 1.5858646156092052e-10 0.09804162952056564 -3.075889753163176e-10 7.272568297596284e-10
          0.10000089341452262 -3.285764744464033e-10 2.479092268224621e-10 0.09804162932512686 -2.431156657452031e-10 2.1727011732261179e-10
          0.09804162932285951 -2.694502111098665e-10 1.9349119218685306e-10 0.09763298007611834 -2.4352366599307767e-10 3.644011939082827e-10
          0.09763298007783398 -1.1846964290759262e-10 2.1807708567007198e-10 0.1059224704943422 -2.33122779807178e-10 1.9007335253763133e-10
          0.1059224704943422 -2.33122779807178e-10 1.9007335253763133e-10 0.09804162938842842 -2.6345110739962176e-10 7.252251180157371e-10
          0.10521850601987795 -2.743738003965982e-10 2.08360860144891e-10 0.09814256306754594 -2.859667782636707e-10 2.66658971365577e-10
          0.09840766810602158 -2.4358888636214264e-10 2.1633147586206232e-10 0.10592246990481889 -2.4177336699830823e-10 2.000783676871265e-10
          0.10592246991372094 -2.431044061412449e-10 1.9249575009787258e-10 0.10592246933879118 -2.52728870424309e-10 2.0998198601659123e-10
          0.10521850509221757 -2.813664751753606e-10 2.0882165363474552e-10 0.105218505095275 -2.81732621735475e-10 1.8966010296365716e-10
          0.09838213412664303 -3.871167175151321e-10 3.1183668482207464e-10 0.10025318788984618 -2.7114338123342883e-10 2.0733755068618034e-10
          0.09982027599618248 -2.602301742035397e-10 1.9282813270182442e-10 0.0984076687935236 -1.1860734618411034e-10 3.576767336261147e-10
          0.10025318804521825 -2.5745786835978773e-10 2.0127585478749494e-10 0.09840766847465876 -2.813535381435716e-10 4.9257805718581316e-11
          0.10000089386581433 -3.1786745411014504e-10 2.099116168359763e-10 0.09814256297854225 2.4525203845989087e-10 2.2371916677289195e-10
          0.09776534032276234 -1.1222813316555531e-10 2.1829262344165587e-10 0.10592246930940413 -2.273448207685524e-10 2.0024938204096852e-10
          0.09814256309603941 -3.590868091420121e-10 -2.7940179813920085e-10 0.10592246991372094 -2.431044061412449e-10 1.9249575009787258e-10
          0.10521850507858431 -2.628341280179885e-10 1.9466398586716057e-10 0.09838213378721981 -3.943732790300406e-10 1.8749097948044575e-10
          0.09982027618324174 -2.633920124925182e-10 1.739890529651647e-10 0.1002531882547133 -2.522971542438342e-10 1.9413050326233572e-10
          0.0980416294037975 2.363514912141392e-10 2.1152867998445175e-10 0.09763298009939744 -2.513579437644692e-10 2.0099857103286485e-10
          0.09838213413649055 -8.599946147329927e-11 5.5613256013310475e-11 0.09997641001494283 -2.3667245840583154e-10 1.9364317706921988e-10
          0.09982027580020589 -2.586615356660223e-10 2.0039047975570201e-10 0.09840766879969214 -3.8088603609283006e-10 3.8212508792977703e-10
          0.1000008943045394 -2.707823636556542e-10 2.4371546747139375e-10 0.09814256298929722 -7.663339659256145e-10 2.456424241921741e-10
          0.09776534033662175 -2.590375912997576e-10 2.3546852587748665e-10 0.10592246931374623 -2.2610488544537149e-10 1.9618527404498815e-10
          0.10521850415488426 -2.460181529655948e-10 2.103844369824306e-10 0.09838213378149777 -2.2294374848111148e-10 5.006648250595007e-11
          0.0984076684526848 -2.691743647423214e-10 3.235689052086068e-10 0.10025318799839608 -2.729833494514497e-10 2.2328390111860922e-10
          0.10000089383906184 -2.219443593449935e-10 2.41847112587109e-10 0.09814256294312501 -2.738094162126622e-10 2.2692647084847982e-10
          0.09776534034919311 -3.9702626584244926e-10 2.406385043463151e-10 0.10592246990447743 -2.3869421947980344e-10 1.7629626074883096e-10
          0.10521850509221757 -2.813664751753606e-10 2.0882165363474552e-10 0.09838213344302733 -2.483379388974498e-10 1.8706248309118688e-10
          0.10025318823393642 -2.7578375339697405e-10 1.84484430015674e-10 0.10592246931374623 -2.2610488544537149e-10 1.9618527404498815e-10
          0.1059224693290786 -2.5655185441565004e-10 1.992332182630851e-10 0.10521850415488426 -2.460181529655948e-10 2.103844369824306e-10
          0.10592246990367887 -2.4964513310734603e-10 2.0241989467824645e-10 0.09804162951999319 -7.545371769092839e-10 1.2677230873980328e-10
          0.10592246990447743 -2.3869421947980344e-10 1.7629626074883096e-10 0.0980416295120332 -3.04815475166024e-10 -2.821823500666492e-10
          0.09814256305610047 -1.6222904680330797e-10 2.302453837602491e-10 0.09840766810602158 -2.4358888636214264e-10 2.1633147586206232e-10
          0.09840766844197323 -3.853878592677697e-10 2.50221768517792e-10 0.09814256295107855 -2.6257513737825885e-10 2.3911707629297697e-10
          0.10025318824627279 -2.4257412110562173e-10 2.2189911789787372e-10 0.10025318810039098 -2.584354375725912e-10 2.502057398361296e-10
          0.09840766847035401 -1.0991444620328631e-10 2.140065737523825e-10 0.09814256308783838 -3.304058586015536e-10 2.2881986322285745e-10
          0.1002531882547133 -2.522971542438342e-10 1.9413050326233572e-10 0.0984076684526848 -2.691743647423214e-10 3.235689052086068e-10
          0.09814256294312501 -2.738094162126622e-10 2.2692647084847982e-10 0.1059224704943422 -2.33122779807178e-10 1.9007335253763133e-10
          0.10592246990481889 -2.4177336699830823e-10 2.000783676871265e-10 0.10592246991372094 -2.431044061412449e-10 1.9249575009787258e-10
          0.09838213344302733 -2.483379388974498e-10 1.8706248309118688e-10 0.10592246990367887 -2.4964513310734603e-10 2.0241989467824645e-10
          0.10025318807209471 -2.741815337540208e-10 2.057699893442454e-10 0.09838213379007602 -9.53988037730936e-11 2.07248358884428e-10
          0.09838213379040771 -2.3353260314974105e-10 3.2698703888175647e-10 0.0980416294553853 -2.653196516237788e-10 1.1986984149863034e-10
          0.09804162944666095 -3.109641239729666e-10 2.1953459836993122e-10 0.10521850602283789 -2.6147385731987785e-10 2.0229369347892554e-10
          0.09804162932512686 -2.431156657452031e-10 2.1727011732261179e-10 0.09804162932285951 -2.694502111098665e-10 1.9349119218685306e-10
          0.10592246930940413 -2.273448207685524e-10 2.0024938204096852e-10 0.10521850507858431 -2.628341280179885e-10 1.9466398586716057e-10
          0.09838213378721981 -3.943732790300406e-10 1.8749097948044575e-10 0.09838213378149777 -2.2294374848111148e-10 5.006648250595007e-11
          0.10592246990447743 -2.3869421947980344e-10 1.7629626074883096e-10
          <InformationKey name="L2_NORM_RANGE" location="vtkDataArray" length="2">
            <Value index="0">
              0.09763298006
            </Value>
            <Value index="1">
              0.10592247049
            </Value>
          </InformationKey>
        </DataArray>
        <DataArray type="Float64" Name="Pressure" format="ascii" RangeMin="-0.011229122127799133" RangeMax="0.011825323156567452">
          0.0002235453982405602 -0.009610797931857595 0.0002168051856905778 -0.009610797912021197 -0.011229120556251604 -0.00923919074520973
          0.00022354541081501443 0.00022354538710377199 -0.008185906775351706 -0.009610798666342478 -0.009610798671639763 -0.009239190846810661
          -0.00923919081482582 0.0002235453986887411 0.00021680520181625076 -0.009610799054072323 0.0003514584849620019 0.0003514585070899849
          -0.011229121341964557 0.00035350649903685065 -0.009239190914645 0.0003514584969456401 -0.008185906812414597 -0.009610799817807858
          0.00035145848758003784 0.009926122974368979 0.00022354542255820386 0.0003514585126140186 -0.009610798651490355 0.00035145849780133045
          0.008863084210911828 0.00035350651017788584 0.0003535065164953466 0.009926123055483148 0.00022354541157455427 0.009926123030270385
          -0.009239190808880091 0.0003514584995809691 0.000351458515213834 0.009926123114902258 -0.009239190910032358 0.008863084271562226
          0.010200802165755661 0.010200802176455203 0.0003514584944170969 0.00886308427021473 0.00021680519610596267 -0.009610797902272691
          0.011825321522997225 -0.011229120541003829 0.010200802916889122 0.010200802905096291 -0.008185906771224303 0.01020080335257567
          0.010200803332744977 0.011825322348783125 0.011825322335691751 0.0002235453982405602 0.0002235453982405602 0.010200804087420773
          0.0002168051856905778 -0.009610797931857595 -0.00923919074520973 0.00022354541081501443 0.00022354538710377199 0.0002235453986887411
          0.00021680519672383157 0.00021680520181625076 0.009926123113313994 0.0003514585088466305 0.0003535065073188831 -0.009239190877834067
          0.0003514584843268615 -0.009239190846810661 -0.00818590680992489 -0.009610799800344018 -0.01122912133468405 0.00022354542759155165
          -0.009610798662681757 0.00022354538710377199 0.0002168052032330785 0.00992612304933321 0.0003535064935500864 0.0003514584986568758
          0.010200804089555465 0.011825323156567452 0.009926123136936381 0.008863084330643207 0.00035350653263967327 -0.009239190876012134
          -0.008185906843515623 -0.009610799806202882 -0.011229122127799133 0.0002235454243901002 0.00021680520127072218 0.009926123051520356
          -0.009239190809147807 0.00035145852106056614 -0.008185906804845901 -0.009610799073305584 -0.011229121335769712 0.0002235454088109035
          0.00021680519672383157 0.009926122974368979 0.0003514584849620019 0.0002235454243901002 0.00022354541157455427 0.00021680520127072218
          0.00022354542255820386 0.010200802920398943 0.0002235454088109035 0.010200802924034495 -0.009610797912021197 -0.00923919074520973
          -0.00923919081482582 -0.009610799054072323 0.0003514585070899849 0.0003514585126140186 -0.009239190808880091 -0.009610797902272691
          0.0003514584986568758 -0.009239190809147807 -0.009610799073305584 0.0002235453982405602 0.00022354541081501443 0.00022354538710377199
          0.009926122974368979 0.00022354542255820386 0.00035145849780133045 0.009926123055483148 0.009926123030270385 0.010200802165755661
          0.010200802176455203 0.00021680519610596267 0.01020080335257567 0.010200803332744977 0.00022354542759155165 0.0002168052032330785
          0.00992612304933321 0.009926123051520356 0.0002235454088109035
        </DataArray>
      </PointData>
      <CellData>
        <DataArray type="UInt8" Name="vtkGhostType" format="ascii" RangeMin="0" RangeMax="1">
          0 0 0 0 0 0
          0 0 0 0 0 0
          0 0 0 0 0 0
          0 0 0 0 0 0
          0 0 0 0 0 0
          0 0 0 0 0 0
          0 0 0 0 0 0
          0 0 0 0 0 0
          0 0 0 0 0 0
          0 0 0 0 0 0
          0 0 0 0 0 0
          0 0 0 0 0 0
          0 0 0 0 0 0
          0 0 0 0 0 0
          0 0 0 0 0 0
          0 0 0 0 0 0
          0 0 0 0 0 0
          0 0 0 0 0 0
          0 0 0 0 0 0
          0 0 0 0 0 0
          0 0 0 0 0 0
          0 0 0 0 0 0
          0 0 0 0 0 0
          0 0 0 0 0 0
          0 0 0 0 0 0
          0 0 0 0 0 0
          0 0 0 0 0 0
          0 0 0 0 0 0
          0 0 0 0 0 0
          0 0 0 0 0 0
          0 0 0 0 0 0
          0 0 0 0 0 0
          0 0 0 0 0 0
          0 0 0 0 0 0
          0 0 0 0 0 0
          0 0 0 0 0 0
          0 0 0 0 0 0
          0 0 0 0 0 0
          0 0 0 0 0 0
          0 0 0 0 0 0
          0 0 0 0 0 0
          0 0 0 0 0 0
          0 0 0 0 0 0
          0 0 0 0 0 0
          0 0 0 0 0 0
          0 0 0 0 0 0
          0 0 0 0 0 0
          0 0 0 0 0 0
          0 0 0 0 0 0
          0 0 0 0 0 0
          0 0 0 0 0 1
        </DataArray>
      </CellData>
      <Points>
        <DataArray type="Float32" Name="Points" NumberOfComponents="3" format="ascii" RangeMin="0" RangeMax="1.7320508075688772">
          1 1 1 0.8333333134651184 1 0.8333333134651184
          1 0.8333333134651184 0.8333333134651184 0.8333333134651184 0.8333333134651184 1
          0.8333333134651184 0.8333333134651184 0.8333333134651184 0.6666666865348816 1 1
          1 0.6666666865348816 1 1 1 0.6666666865348816
          0.6666666865348816 0.8333333134651184 0.8333333134651184 0.8333333134651184 0.6666666865348816 0.8333333134651184
          0.8333333134651184 0.8333333134651184 0.6666666865348816 0.6666666865348816 1 0.6666666865348816
          0.6666666865348816 0.6666666865348816 1 1 0.6666666865348816 0.6666666865348816
          1 0.5 0.8333333134651184 0.8333333134651184 0.5 1
          0.5 1 0.8333333134651184 0.5 0.8333333134651184 1
          0.8333333134651184 0.5 0.8333333134651184 0.5 0.8333333134651184 0.8333333134651184
          0.6666666865348816 0.6666666865348816 0.6666666865348816 0.5 0.6666666865348816 0.8333333134651184
          0.6666666865348816 0.5 0.8333333134651184 0.8333333134651184 0.5 0.6666666865348816
          0.5 0.8333333134651184 0.6666666865348816 0.3333333134651184 1 1
          1 0.3333333134651184 1 0.5 0.5 1
          0.8333333134651184 0.3333333134651184 0.8333333134651184 0.5 1 0.5
          0.3333333134651184 0.8333333134651184 0.8333333134651184 0.5 0.5 0.8333333134651184
          0.5 0.8333333134651184 0.5 0.3333333134651184 0.6666666865348816 1
          1 0.3333333134651184 0.6666666865348816 0.3333333134651184 1 0.6666666865348816
          0.6666666865348816 0.3333333134651184 1 0.5 0.5 0.6666666865348816
          0.5 0.6666666865348816 0.5 0.3333333134651184 0.6666666865348816 0.6666666865348816
          0.6666666865348816 0.3333333134651184 0.6666666865348816 0.3333333134651184 0.5 0.8333333134651184
          0.16666670143604279 1 0.8333333134651184 0.16666670143604279 0.8333333134651184 1
          0.5 0.3333333134651184 0.8333333134651184 0.3333333134651184 0.8333333134651184 0.5
          1 0.16666670143604279 0.8333333134651184 0.8333333134651184 0.16666670143604279 1
          0.16666670143604279 0.8333333134651184 0.8333333134651184 0.8333333134651184 0.16666670143604279 0.8333333134651184
          0.16666670143604279 0.6666666865348816 0.8333333134651184 0.16666670143604279 0.8333333134651184 0.6666666865348816
          0.6666666865348816 0.16666670143604279 0.8333333134651184 0.16666670143604279 0.5 1
          0.16666670143604279 1 0.5 0.16666670143604279 0.5 0.8333333134651184
          0.16666670143604279 0.8333333134651184 0.5 1 0 1
          0 1 1 0.16666670143604279 0.5 0.6666666865348816
          0 0.8333333134651184 0.8333333134651184 0.8333333134651184 0 0.8333333134651184
          0.6666666865348816 0 1 0 0.6666666865348816 1
          0 1 0.6666666865348816 0 0.6666666865348816 0.6666666865348816
          0 0.8333333134651184 0.5 0 0.5 0.8333333134651184
          0.3333333134651184 0.3333333134651184 0.6666666865348816 0.5 0.3333333134651184 0.5
          0.5 0.16666670143604279 0.5 0.6666666865348816 0.3333333134651184 0.3333333134651184
          0.5 0.16666670143604279 0.6666666865348816 0.6666666865348816 0 0.6666666865348816
          0.6666666865348816 0.16666670143604279 0.5 0.8333333134651184 0.3333333134651184 0.5
          0.8333333134651184 0.16666670143604279 0.5 1 0.3333333134651184 0.3333333134651184
          0.8333333134651184 0.16666670143604279 0.6666666865348816 1 0 0.6666666865348816
          1 0.16666670143604279 0.5 0.3333333134651184 0.3333333134651184 1
          0.5 0.16666670143604279 0.8333333134651184 0.5 0.16666670143604279 1
          0.16666670143604279 0.6666666865348816 0.5 0.16666670143604279 0.5 0.5
          0.3333333134651184 0.6666666865348816 0.3333333134651184 0.3333333134651184 0.5 0.5
          0.5 0.5 0.5 0.6666666865348816 0.6666666865348816 0.3333333134651184
          0.6666666865348816 0.5 0.5 0.8333333134651184 0.6666666865348816 0.5
          0.8333333134651184 0.5 0.5 1 0.6666666865348816 0.3333333134651184
          1 0.5 0.5 0.3333333134651184 1 0.3333333134651184
          0.6666666865348816 1 0.3333333134651184 0.5 0.8333333134651184 0.3333333134651184
          0.6666666865348816 0.8333333134651184 0.5 0.8333333134651184 1 0.5
          0.8333333134651184 0.8333333134651184 0.5 1 1 0.3333333134651184
          1 0.8333333134651184 0.5 0.3333333134651184 0 1
          0.5 0 0.8333333134651184 0 0.6666666865348816 0.3333333134651184
          0 0.3333333134651184 0.6666666865348816 0 0.5 0.5
          0 0.3333333134651184 1 0.16666670143604279 0.3333333134651184 0.8333333134651184
          0 1 0.3333333134651184 0.16666670143604279 0.8333333134651184 0.3333333134651184
          0.8333333134651184 0.8333333134651184 0 0.6666666865348816 0 0
          0.6666666865348816 0.6666666865348816 0 0.8333333134651184 0.5 0
          0.5 0.8333333134651184 0 0.5 0.5 0
          0.6666666865348816 0.3333333134651184 0 0.8333333134651184 0.16666670143604279 0
          0.5 0.16666670143604279 0 0.6666666865348816 0 0.3333333134651184
          0.8333333134651184 0 0.5 0 0 0
          0 0.6666666865348816 0 0 0 0.6666666865348816
          0.3333333134651184 0 0 0 0.3333333134651184 0
          0.5 0 0.5 0.3333333134651184 0.6666666865348816 0
          0.3333333134651184 0 0.6666666865348816 0.16666670143604279 0 0.8333333134651184
          0.16666670143604279 0.8333333134651184 0 0 0.16666670143604279 0.8333333134651184
          0.16666670143604279 0.5 0 0.16666670143604279 0 0.5
          0 0.3333333134651184 0.3333333134651184 0 0.16666670143604279 0.5
          0.3333333134651184 0.3333333134651184 0 0.3333333134651184 0 0.3333333134651184
          0 0 0.3333333134651184
          <InformationKey name="L2_NORM_RANGE" location="vtkDataArray" length="2">
            <Value index="0">
              0
            </Value>
            <Value index="1">
              1.7320508076
            </Value>
          </InformationKey>
        </DataArray>
      </Points>
      <Cells>
        <DataArray type="Int64" Name="connectivity" format="ascii" RangeMin="0" RangeMax="111">
          40 68 69 70 71 40
          69 70 68 40 72 70
          40 73 72 70 40 71
          74 70 73 40 74 70
          34 40 75 76 40 71
          75 76 77 34 75 76
          40 34 78 76 34 79
          78 76 73 40 78 76
          71 40 74 76 40 73
          74 76 34 77 80 76
          79 34 80 76 36 81
          44 82 81 68 44 82
          68 40 44 82 40 36
          44 82 81 36 83 82
          36 62 83 82 73 40
          72 82 40 68 72 82
          36 40 52 82 40 73
          52 82 62 36 52 82
          26 36 28 49 36 40
          28 49 40 34 28 49
          34 26 28 49 36 26
          47 49 26 57 47 49
          57 62 47 49 62 36
          47 49 40 36 52 49
          36 62 52 49 73 40
          52 49 40 73 78 49
          79 34 78 49 34 40
          78 49 26 34 46 49
          34 79 46 49 79 57
          46 49 57 26 46 49
          39 65 84 85 86 39
          84 85 65 39 59 85
          39 68 59 85 39 86
          87 85 68 39 87 85
          20 39 38 88 39 86
          38 88 86 89 38 88
          89 20 38 88 39 20
          37 88 20 40 37 88
          40 68 37 88 68 39
          37 88 86 39 87 88
          39 68 87 88 20 89
          90 88 71 40 90 88
          40 20 90 88 68 40
          69 88 40 71 69 88
          13 20 91 92 20 89
          91 92 93 13 91 92
          20 13 23 92 13 34
          23 92 34 40 23 92
          40 20 23 92 89 20
          90 92 20 40 90 92
          40 71 90 92 13 93
          94 92 77 34 94 92
          34 13 94 92 40 34
          75 92 34 77 75 92
          71 40 75 92 33 63
          50 55 65 39 50 55
          39 33 50 55 63 33
          53 55 33 81 53 55
          68 39 59 55 39 65
          59 55 33 39 41 55
          39 68 41 55 68 81
          41 55 81 33 41 55
          12 33 21 31 33 39
          21 31 39 20 21 31
          20 12 21 31 33 12
          27 31 12 36 27 31
          36 81 27 31 81 33
          27 31 39 33 41 31
          33 81 41 31 81 68
          41 31 68 39 41 31
          39 68 37 31 68 40
          37 31 40 20 37 31
          20 39 37 31 12 20
          22 31 20 40 22 31
          40 36 22 31 36 12
          22 31 81 36 44 31
          36 40 44 31 40 68
          44 31 68 81 44 31
          6 12 9 18 12 20
          9 18 20 13 9 18
          13 6 9 18 12 6
          15 18 6 26 15 18
          26 36 15 18 36 12
          15 18 20 12 22 18
          12 36 22 18 36 40
          22 18 40 20 22 18
          20 40 23 18 40 34
          23 18 34 13 23 18
          13 20 23 18 6 13
          14 18 13 34 14 18
          34 26 14 18 26 6
          14 18 36 26 28 18
          26 34 28 18 34 40
          28 18 40 36 28 18
          35 64 54 56 95 35
          54 56 64 35 51 56
          35 39 51 56 39 65
          51 56 35 95 45 56
          95 86 45 56 86 39
          45 56 39 35 45 56
          65 39 84 56 39 86
          84 56 11 35 29 32
          35 95 29 32 95 96
          29 32 96 11 29 32
          35 11 24 32 11 20
          24 32 20 39 24 32
          39 35 24 32 95 35
          45 32 35 39 45 32
          39 86 45 32 86 95
          45 32 95 86 97 32
          86 89 97 32 89 96
          97 32 96 95 97 32
          11 96 98 32 96 89
          98 32 89 20 98 32
          20 11 98 32 39 20
          38 32 20 89 38 32
          89 86 38 32 86 39
          38 32 7 11 99 100
          11 96 99 100 101 7
          99 100 11 7 10 100
          7 13 10 100 13 20
          10 100 20 11 10 100
          96 11 98 100 11 20
          98 100 20 89 98 100
          7 101 102 100 93 13
          102 100 13 7 102 100
          20 13 91 100 13 93
          91 100 89 20 91 100
          25 58 42 48 58 64
          42 48 64 35 42 48
          35 25 42 48 58 25
          43 48 25 33 43 48
          33 63 43 48 63 58
          43 48 64 58 60 48
          58 63 60 48 63 65
          60 48 65 64 60 48
          64 65 51 48 65 39
          51 48 39 35 51 48
          35 64 51 48 25 35
          30 48 35 39 30 48
          39 33 30 48 33 25
          30 48 63 33 50 48