<?xml version="1.0"?>
<VTKFile type="UnstructuredGrid" version="0.1" byte_order="LittleEndian" header_type="UInt32" compressor="vtkZLibDataCompressor">
  <UnstructuredGrid>
    <Piece NumberOfPoints="107" NumberOfCells="10">
      <PointData>
        <DataArray type="Float64" Name="tem_BC" format="ascii" RangeMin="0" RangeMax="0">
          0 0 0 0 0 0
          0 0 0 0 0 0
          0 0 0 0 0 0
          0 0 0 0 0 0
          0 0 0 0 0 0
          0 0 0 0 0 0
          0 0 0 0 0 0
          0 0 0 0 0 0
          0 0 0 0 0 0
          0 0 0 0 0 0
          0 0 0 0 0 0
          0 0 0 0 0 0
          0 0 0 0 0 0
          0 0 0 0 0 0
          0 0 0 0 0 0
          0 0 0 0 0 0
          0 0 0 0 0 0
          0 0 0 0 0
        </DataArray>
        <DataArray type="Float64" Name="tem_FIXNO" format="ascii" RangeMin="-1" RangeMax="1">
          1 1 1 -1 1 -1
          1 -1 1 -1 -1 1
          -1 -1 1 -1 -1 -1
          -1 1 1 -1 -1 -1
          -1 -1 -1 1 -1 1
          -1 -1 -1 -1 -1 -1
          1 -1 -1 -1 -1 -1
          -1 1 -1 -1 -1 -1
          1 -1 -1 -1 -1 -1
          -1 -1 -1 1 -1 -1
          -1 -1 1 -1 -1 -1
          -1 -1 -1 -1 -1 -1
          -1 -1 -1 -1 1 1
          1 1 -1 -1 1 -1
          -1 1 1 -1 1 1
          -1 -1 -1 1 1 -1
          -1 1 1 -1 1 1
          -1 1 1 1 1
        </DataArray>
        <DataArray type="Float64" Name="Temperature" format="ascii" RangeMin="0" RangeMax="0.0676745267409553">
          0 0 0 0.014495915643811894 0 0.023556998239649816
          0 0.02160394008771945 0 0.0361538857297808 0.029330635132748504 0
          0.025517007405746864 0.04687247377558192 0 0.03253970094976818 0.043422325397930436 0.052334933093845785
          0.0556496439208423 0 0 0.026879508314384768 0.0331814659881352 0.04630562704315631
          0.062416088754642274 0.05378246160379647 0.058477681344371646 0 0.03203274902678448 0
          0.06430768512932213 0.025811533945002994 0.051661997220770375 0.06533093925104272 0.051542618778018114 0.0609690414937344
          0 0.0676745267409553 0.062122817905138863 0.029157063861111894 0.03261123726526513 0.05256442141050967
          0.06586242689198628 0 0.04648275123259098 0.06531366592897002 0.059771199426864575 0.055446706849120654
          0 0.06520900006067304 0.025719448737211097 0.02373112216959685 0.04459831669586911 0.05016538039995812
          0.03639183820063594 0.06120967545924406 0.05847396565310859 0 0.06068717016915521 0.014435826141866387
          0.04351991289816994 0.03160727677794501 0 0.05295673122323863 0.05891174868170945 0.014559137264424362
          0.036870229376319064 0.021715287779512208 0.046223163718976897 0.05078605335569191 0.016956001817091733 0.03953728499384646
          0.05137324818068779 0.05214909505768647 0.025576006338520814 0.0196569011986354 0 0
          0 0 0.022464197697767203 0.04003104385195911 0 0.04698906232625318
          0.026963177716762377 0 0 0.02271314143420819 0 0
          0.03606423410169534 0.025890426968162038 0.03159276671062416 0 0 0.0225335823866093
          0.028104209402165826 0 0 0.019911086038227173 0 0
          0.014561503813683666 0 0 0 0
        </DataArray>
      </PointData>
      <CellData>
        <DataArray type="UInt8" Name="vtkGhostType" format="ascii" RangeMin="0" RangeMax="0">
          0 0 0 0 0 0
          0 0 0 0 0 0
          0 0 0 0 0 0
          0 0 0 0 0 0
          0 0 0 0 0 0
          0 0 0 0
        </DataArray>
      </CellData>
      <Points>
        <DataArray type="Float32" Name="Points" NumberOfComponents="3" format="ascii" RangeMin="0" RangeMax="1.4142135623730951">
          1 0 0 1 0.10000000149011612 0
          0.875 0 0 0.8738170266151428 0.09799222648143768 0
          1 0.20000000298023224 0 0.8726339936256409 0.19598449766635895 0
          0.75 0 0 0.7476339936256409 0.09598446637392044 0
          1 0.30000001192092896 0 0.745267927646637 0.1919689029455185 0
          0.8717896938323975 0.2993242144584656 0 0.625 0 0
          0.6238170266151428 0.09799222648143768 0 0.7435793280601501 0.2986483871936798 0
          1 0.4000000059604645 0 0.8709452748298645 0.4026638865470886 0
          0.6226339936256409 0.19598449766635895 0 0.7418907284736633 0.40532779693603516 0
          0.6217896938323975 0.2993242144584656 0 0.5 0 0
          1 0.5 0 0.5 0.10000000149011612 0
          0.872032880783081 0.5021234154701233 0 0.5 0.20000000298023224 0
          0.6209452748298645 0.4026638865470886 0 0.7440658807754517 0.5042467713356018 0
          0.5 0.30000001192092896 0 1 0.6000000238418579 0
          0.8731204867362976 0.6015828847885132 0 0.375 0 0
          0.622032880783081 0.5021234154701233 0 0.375 0.10000000149011612 0
          0.41329440474510193 0.25 0 0.5 0.4000000059604645 0
          0.7462410926818848 0.6031658053398132 0 0.41329440474510193 0.3499999940395355 0
          1 0.699999988079071 0 0.5 0.5 0
          0.6231204867362976 0.6015828847885132 0 0.8723286986351013 0.7026252746582031 0
          0.28829440474510193 0.15000000596046448 0 0.3265886902809143 0.30000001192092896 0
          0.4177303910255432 0.4652777910232544 0 0.25 0 0
          0.7446573972702026 0.7052506804466248 0 0.5 0.6000000238418579 0
          0.33102479577064514 0.4152778089046478 0 0.6223286986351013 0.7026252746582031 0
          1 0.800000011920929 0 0.4177303910255432 0.5652778148651123 0
          0.20000000298023224 0.14000000059604645 0 0.8715367913246155 0.8036677837371826 0
          0.23829439282417297 0.28999999165534973 0 0.24467679858207703 0.3816666901111603 0
          0.7430737018585205 0.807335615158081 0 0.3354608118534088 0.5305556058883667 0
          0.5 0.699999988079071 0 0.125 0 0
          0.42500001192092896 0.6600000262260437 0 0.125 0.10000000149011612 0
          0.6215367913246155 0.8036677837371826 0 0.15000000596046448 0.2800000011920929 0
          1 0.8999999761581421 0 0.2491127997636795 0.496944397687912 0
          0.34273040294647217 0.6252778172492981 0 0.8732684254646301 0.9018338918685913 0
          0.15638239681720734 0.37166669964790344 0 0.7465367913246155 0.9036678075790405 0
          0.5 0.800000011920929 0 0.42500001192092896 0.7599999904632568 0
          0.07500000298023224 0.23999999463558197 0 0.1627648025751114 0.4633333086967468 0
          0.2544359862804413 0.6152778267860413 0 0.3499999940395355 0.7200000286102295 0
          0.6232684254646301 0.9018338918685913 0 0.07500000298023224 0.3400000035762787 0
          0 0 0 1 1 0
          0 0.10000000149011612 0 0.875 1 0
          0.0813823863863945 0.43166670203208923 0 0.16808800399303436 0.5816667079925537 0
          0 0.20000000298023224 0 0.261705607175827 0.7099999785423279 0
          0.5 0.8999999761581421 0 0.75 1 0
          0 0.30000001192092896 0 0.0813823863863945 0.5316666960716248 0
          0.625 1 0 0 0.4000000059604645 0
          0.1734112948179245 0.699999988079071 0 0.375 0.8999999761581421 0
          0.30000001192092896 0.8600000143051147 0 0.5 1 0
          0 0.5 0 0.08670563995838165 0.6499999761581421 0
          0.21170559525489807 0.8500000238418579 0 0 0.6000000238418579 0
          0.375 1 0 0.08670563995838165 0.75 0
          0 0.699999988079071 0 0.25 1 0
          0.125 0.8999999761581421 0 0 0.800000011920929 0
          0.125 1 0 0 0.8999999761581421 0
          0 1 0
          <InformationKey name="L2_NORM_RANGE" location="vtkDataArray" length="2">
            <Value index="0">
              0
            </Value>
            <Value index="1">
              1.4142135624
            </Value>
          </InformationKey>
        </DataArray>
      </Points>
      <Cells>
        <DataArray type="Int64" Name="connectivity" format="ascii" RangeMin="0" RangeMax="93">
          48 77 85 54 62 79
          67 51 65 85 93 68
          54 88 84 60 67 74
          23 19 6 9 21 11
          7 16 12 6 0 4
          9 2 1 5 7 3
          27 48 54 34 36 51
          44 28 39 54 68 45
          34 60 56 38 44 47
          4 14 17 9 8 15
          13 5 10 23 9 17
          33 16 13 24 26 18
          45 33 17 34 37 24
          25 38 30 34 17 14
          27 25 15 20 28 22
        </DataArray>
        <DataArray type="Int64" Name="offsets" format="ascii" RangeMin="9" RangeMax="90">
          9 18 27 36 45 54
          63 72 81 90
        </DataArray>
        <DataArray type="UInt8" Name="types" format="ascii" RangeMin="28" RangeMax="28">
          28 28 28 28 28 28
          28 28 28 28
        </DataArray>
      </Cells>
    </Piece>
  </UnstructuredGrid>
</VTKFile>
