<?xml version="1.0"?>
<VTKFile type="UnstructuredGrid" version="0.1" byte_order="LittleEndian" header_type="UInt32" compressor="vtkZLibDataCompressor">
  <UnstructuredGrid>
    <Piece NumberOfPoints="18" NumberOfCells="20">
      <PointData>
        <DataArray type="Float64" Name="Velocity" NumberOfComponents="3" format="ascii" RangeMin="0" RangeMax="0.19048279817154593">
          0 0 0 0 0 0
          0 0 0 0.10872470348384908 0.08783592366968787 0
          0 0 0 0 0 0
          0.10363440044288652 -0.057360573484042436 0 0 0 0
          0.10624519431762863 0.010258233182670953 0 0 0 0
          0.09393162025543106 -0.05823303065975294 0 0 0 0
          0.022271285142259567 0.11232766695309904 0 0 0 0
          0.02543134686234906 -0.04859034020241343 0 0.044999255000445895 0.013938068273736018 0
          0.019472091673217964 -0.18948491772468776 0 0 0 0
          <InformationKey name="L2_NORM_RANGE" location="vtkDataArray" length="2">
            <Value index="0">
              0
            </Value>
            <Value index="1">
              0.19048279817
            </Value>
          </InformationKey>
        </DataArray>
        <DataArray type="Float64" Name="Pressure" format="ascii" RangeMin="0.5777644305663472" RangeMax="1.5520183911098706">
          0.8002852940112455 0.7634405776027735 1.028891860519719 1.0167089514456487 0.7265830926795044 1.281724289006838
          0.9997657950845563 0.6942030055298336 0.9832712532011705 0.6578519976513334 0.9654782288341799 0.5777644305663472
          1.2805079404417987 1.5520183911098706 1.2775359909623054 1.2718174566771607 1.2644073327263303 0.9494723618574804
        </DataArray>
        <DataArray type="Float64" Name="Temperature" format="ascii" RangeMin="239.9999999994246" RangeMax="959.9999999976986">
          959.9999999976986 702.2559778588461 959.9999999976983 660.4388415646157 576.9211660239612 959.9999999976984
          592.0836567233522 598.9182801184631 602.9346009842985 576.4808195864081 607.313516087679 239.99999999942463
          647.3140994284942 959.9999999976985 595.6075146920987 597.4368585686601 582.0063811560664 239.9999999994246
        </DataArray>
        <DataArray type="Float64" Name="Density" format="ascii" RangeMin="0.36706013607937726" RangeMax="1.4682405443175093">
          0.36706013607937726 0.5017796099219329 0.3670601360793774 0.5335508883768182 0.6107900895089056 0.3670601360793773
          0.5951485514487085 0.5883569467368048 0.584437731820493 0.6112566431753415 0.5802237580770127 1.468240544317509
          0.5443690025390571 0.36706013607937726 0.5916274088944634 0.5898158534771095 0.6054533799705307 1.4682405443175093
        </DataArray>
        <DataArray type="Float64" Name="stream" format="ascii" RangeMin="-0.022586388389003908" RangeMax="0.014122725452112432">
          0 -0.0017093519664968602 -0.00017407316511800983 -0.005045183252701005 -0.0001467918970733742 -0.004354048692836464
          -0.010233968646084396 0.004965265250756161 -0.005011084912389471 0.008587997120474596 0.0019990976060138047 0.014122725452112432
          -0.01592503496723398 -0.004354048692836464 -0.022586388389003908 -0.019764485374119244 -0.006242751009542485 0.01123767530111859
        </DataArray>
      </PointData>
      <CellData>
        <DataArray type="UInt8" Name="vtkGhostType" format="ascii" RangeMin="0" RangeMax="0">
          0 0 0 0 0 0
          0 0 0 0 0 0
          0 0 0 0 0 0
          0 0
        </DataArray>
      </CellData>
      <Points>
        <DataArray type="Float32" Name="Points" NumberOfComponents="3" format="ascii" RangeMin="0.4000000059604645" RangeMax="1.4142135623730951">
          0 1 0 0.20000000298023224 1 0
          0 0.800000011920929 0 0.20000000298023224 0.800000011920929 0
          0.4000000059604645 1 0 0 0.6000000238418579 0
          0.4000000059604645 0.800000011920929 0 0.6000000238418579 1 0
          0.6000000238418579 0.800000011920929 0 0.800000011920929 1 0
          0.800000011920929 0.800000011920929 0 1 1 0
          0.20000000298023224 0.6000000238418579 0 0 0.4000000059604645 0
          0.4000000059604645 0.6000000238418579 0 0.6000000238418579 0.6000000238418579 0
          0.800000011920929 0.6000000238418579 0 1 0.800000011920929 0
          <InformationKey name="L2_NORM_RANGE" location="vtkDataArray" length="2">
            <Value index="0">
              0.40000000596
            </Value>
            <Value index="1">
              1.4142135624
            </Value>
          </InformationKey>
        </DataArray>
      </Points>
      <Cells>
        <DataArray type="Int64" Name="connectivity" format="ascii" RangeMin="0" RangeMax="17">
          12 5 13 12 3 5
          3 2 5 14 6 12
          6 3 12 15 8 14
          8 6 14 10 8 15
          3 1 2 1 0 2
          6 4 3 4 1 3
          8 7 6 7 4 6
          10 9 8 9 7 8
          16 10 15 17 10 16
          17 11 10 11 9 10
        </DataArray>
        <DataArray type="Int64" Name="offsets" format="ascii" RangeMin="3" RangeMax="60">
          3 6 9 12 15 18
          21 24 27 30 33 36
          39 42 45 48 51 54
          57 60
        </DataArray>
        <DataArray type="UInt8" Name="types" format="ascii" RangeMin="5" RangeMax="5">
          5 5 5 5 5 5
          5 5 5 5 5 5
          5 5 5 5 5 5
          5 5
        </DataArray>
      </Cells>
    </Piece>
  </UnstructuredGrid>
</VTKFile>
