<?xml version="1.0"?>
<VTKFile type="UnstructuredGrid" version="0.1" byte_order="LittleEndian" header_type="UInt32" compressor="vtkZLibDataCompressor">
  <UnstructuredGrid>
    <Piece NumberOfPoints="21" NumberOfCells="27">
      <PointData>
        <DataArray type="Float64" Name="Velocity" NumberOfComponents="3" format="ascii" RangeMin="0" RangeMax="0.22985142721633295">
          0.022271285142259567 0.11232766695309904 0 0.02543134686234906 -0.04859034020241343 0
          0 0 0 -0.006636028334006578 0.08235894776842045 0
          0.044999255000445895 0.013938068273736018 0 -0.018663519275624874 -0.025957204778552203 0
          0 0 0 -0.08367758929937785 -0.010713230564309395 0
          0.001365509814963417 0.04084038288894043 0 -0.07940940825942844 -0.016788264808311637 0
          0 0 0 0 0 0
          0 0 0 0.10872470348384908 0.08783592366968787 0
          0.10363440044288652 -0.057360573484042436 0 0.10624519431762863 0.010258233182670953 0
          0.09393162025543106 -0.05823303065975294 0 0 0 0
          -0.07000888755083212 0.07003957654438264 0 -0.007964911964485066 -0.22971338396093338 0
          0.019472091673217964 -0.18948491772468776 0
          <InformationKey name="L2_NORM_RANGE" location="vtkDataArray" length="2">
            <Value index="0">
              0
            </Value>
            <Value index="1">
              0.22985142722
            </Value>
          </InformationKey>
        </DataArray>
        <DataArray type="Float64" Name="Pressure" format="ascii" RangeMin="0.9654782288341799" RangeMax="2.123328101197783">
          1.2805079404417987 1.2775359909623054 1.5520183911098706 1.5532968286775197 1.2718174566771607 1.5593022763112392
          1.821471029939103 1.8262483595872816 1.5639310176328538 1.8422656765126773 2.0610473548554933 2.093903696226825
          1.281724289006838 1.0167089514456487 0.9997657950845563 0.9832712532011705 0.9654782288341799 2.123328101197783
          1.8581730534560579 1.5663021068057428 1.2644073327263303
        </DataArray>
        <DataArray type="Float64" Name="Temperature" format="ascii" RangeMin="569.417115410299" RangeMax="959.9999999976986">
          647.3140994284942 595.6075146920987 959.9999999976985 636.9776052891966 597.4368585686601 600.2355762925039
          959.9999999976986 617.605994037666 600.0234280785179 598.2486337982153 959.9999999976983 635.9157275795319
          959.9999999976984 660.4388415646157 592.0836567233522 602.9346009842985 607.313516087679 601.715857216036
          603.7499900693784 569.417115410299 582.0063811560664
        </DataArray>
        <DataArray type="Float64" Name="Density" format="ascii" RangeMin="0.36706013607937726" RangeMax="0.6188393729286628">
          0.5443690025390571 0.5916274088944634 0.36706013607937726 0.5532026992932869 0.5898158534771095 0.5870657197827248
          0.36706013607937726 0.5705542595719478 0.5872732865844797 0.5890155208515055 0.3670601360793774 0.5541264594549389
          0.3670601360793773 0.5335508883768182 0.5951485514487085 0.584437731820493 0.5802237580770127 0.5856214796560398
          0.5836484247310129 0.6188393729286628 0.6054533799705307
        </DataArray>
        <DataArray type="Float64" Name="stream" format="ascii" RangeMin="-0.024154247410869467" RangeMax="0.0029080105945288384">
          -0.01759741225710178 -0.02228730080467061 -0.01010481017485564 -0.01969239765225872 -0.01863725750029788 -0.021429079084740548
          -0.010760007553748648 -0.014095118106363796 -0.024154247410869467 -0.01301219894490822 -0.008447584134739759 -0.00662730358416015
          -0.007223991347211073 -0.0050134622374558725 -0.008909430130709474 -0.0044063147771499535 0.0029080105945288384 -0.0056526176002814135
          -0.018201809690370725 -0.007649378101958764 -0.00515827095985392
        </DataArray>
      </PointData>
      <CellData>
        <DataArray type="UInt8" Name="vtkGhostType" format="ascii" RangeMin="0" RangeMax="1">
          0 0 1 0 0 0
          1 1 1 1 1 1
          0 0 0 0 0 0
          0 0 0 0 0 0
          0 0 1
        </DataArray>
      </CellData>
      <Points>
        <DataArray type="Float32" Name="Points" NumberOfComponents="3" format="ascii" RangeMin="0" RangeMax="1.1313708667572155">
          0.20000000298023224 0.6000000238418579 0 0.4000000059604645 0.6000000238418579 0
          0 0.4000000059604645 0 0.20000000298023224 0.4000000059604645 0
          0.6000000238418579 0.6000000238418579 0 0.4000000059604645 0.4000000059604645 0
          0 0.20000000298023224 0 0.20000000298023224 0.20000000298023224 0
          0.6000000238418579 0.4000000059604645 0 0.4000000059604645 0.20000000298023224 0
          0 0 0 0.20000000298023224 0 0
          0 0.6000000238418579 0 0.20000000298023224 0.800000011920929 0
          0.4000000059604645 0.800000011920929 0 0.6000000238418579 0.800000011920929 0
          0.800000011920929 0.800000011920929 0 0.4000000059604645 0 0
          0.6000000238418579 0.20000000298023224 0 0.800000011920929 0.4000000059604645 0
          0.800000011920929 0.6000000238418579 0
          <InformationKey name="L2_NORM_RANGE" location="vtkDataArray" length="2">
            <Value index="0">
              0
            </Value>
            <Value index="1">
              1.1313708668
            </Value>
          </InformationKey>
        </DataArray>
      </Points>
      <Cells>
        <DataArray type="Int64" Name="connectivity" format="ascii" RangeMin="0" RangeMax="20">
          3 2 6 3 0 2
          0 12 2 5 1 3
          1 0 3 4 1 5
          0 13 12 1 14 0
          14 13 0 4 15 1
          15 14 1 16 15 4
          11 7 10 7 6 10
          17 9 11 9 7 11
          18 9 17 7 3 6
          9 5 7 5 3 7
          18 8 9 8 5 9
          19 8 18 8 4 5
          19 20 8 20 4 8
          20 16 4
        </DataArray>
        <DataArray type="Int64" Name="offsets" format="ascii" RangeMin="3" RangeMax="81">
          3 6 9 12 15 18
          21 24 27 30 33 36
          39 42 45 48 51 54
          57 60 63 66 69 72
          75 78 81
        </DataArray>
        <DataArray type="UInt8" Name="types" format="ascii" RangeMin="5" RangeMax="5">
          5 5 5 5 5 5
          5 5 5 5 5 5
          5 5 5 5 5 5
          5 5 5 5 5 5
          5 5 5
        </DataArray>
      </Cells>
    </Piece>
  </UnstructuredGrid>
</VTKFile>
