<?xml version="1.0"?>
<VTKFile type="UnstructuredGrid" version="0.1" byte_order="LittleEndian" header_type="UInt32" compressor="vtkZLibDataCompressor">
  <UnstructuredGrid>
    <Piece NumberOfPoints="18" NumberOfCells="20">
      <PointData>
        <DataArray type="Float64" Name="Velocity" NumberOfComponents="3" format="ascii" RangeMin="0" RangeMax="0.16274234028242515">
          0 0 0 0 0 0
          0 0 0 0.0872114403420117 0.05993290031879936 0
          0 0 0 0 0 0
          0.0826502017358379 -0.0443459097876268 0 0 0 0
          0.08539235426174135 0.006504295480781214 0 0 0 0
          0.07453707067933812 -0.05905887988781203 0 0 0 0
          0.01873399192877656 0.07404894448168053 0 0 0 0
          0.022133126092082844 -0.03931106270780102 0 0.03549347896538235 0.006999807497129723 0
          0.01546312172734604 -0.16200605293335785 0 0 0 0
          <InformationKey name="L2_NORM_RANGE" location="vtkDataArray" length="2">
            <Value index="0">
              0
            </Value>
            <Value index="1">
              0.16274234028
            </Value>
          </InformationKey>
        </DataArray>
        <DataArray type="Float64" Name="Pressure" format="ascii" RangeMin="1.1081379384645216" RangeMax="2.0883073397677694">
          1.337582635848024 1.3000521864028347 1.5682752047915276 1.55558890322665 1.261873904007591 1.8211097797251414
          1.5375526852332915 1.2296506763671438 1.5198641851746342 1.1877518449281528 1.500874695947088 1.1081379384645216
          1.819488481246844 2.0883073397677694 1.8158843635710917 1.810405524842577 1.8038931622328933 1.4836682965008232
        </DataArray>
        <DataArray type="Float64" Name="Temperature" format="ascii" RangeMin="239.99999999895118" RangeMax="959.9999999958053">
          959.9999999958051 685.9347797152667 959.9999999958047 655.0247477193101 573.7329705835263 959.9999999958053
          591.5054923914191 601.0085782752666 601.8871882336013 574.1185749469144 594.2985973162661 239.99999999895124
          647.9107200579854 959.9999999958051 594.7497921748568 597.9123173404715 575.004693697427 239.99999999895118
        </DataArray>
        <DataArray type="Float64" Name="Density" format="ascii" RangeMin="0.3667931764265339" RangeMax="1.4671727057061366">
          0.366793176426534 0.5133453788625508 0.36679317642653414 0.5375696881590561 0.6137375180126079 0.3667931764265339
          0.5952970072083851 0.5858842320993621 0.5850289825927819 0.6133253037501751 0.5924992099224938 1.4671727057061361
          0.54347217674747 0.366793176426534 0.5920497224224502 0.5889182061580178 0.6123801305058975 1.4671727057061366
        </DataArray>
        <DataArray type="Float64" Name="stream" format="ascii" RangeMin="-0.015614789583060819" RangeMax="0.01657745260077189">
          0 -0.0004065151759392602 -0.00022732116686010264 -0.0028701414945999574 0.0020804286875097844 -0.003725965401904312
          -0.005588257175069353 0.0066630011835247215 -0.0011056479515822466 0.01106011675330837 0.0057030037346577495 0.01657745260077189
          -0.011595148898195488 -0.003725965401904312 -0.015614789583060819 -0.013057064708857388 -0.0007851891374457257 0.014285310026031806
        </DataArray>
      </PointData>
      <CellData>
        <DataArray type="UInt8" Name="vtkGhostType" format="ascii" RangeMin="0" RangeMax="0">
          0 0 0 0 0 0
          0 0 0 0 0 0
          0 0 0 0 0 0
          0 0
        </DataArray>
      </CellData>
      <Points>
        <DataArray type="Float32" Name="Points" NumberOfComponents="3" format="ascii" RangeMin="0.4000000059604645" RangeMax="1.4142135623730951">
          0 1 0 0.20000000298023224 1 0
          0 0.800000011920929 0 0.20000000298023224 0.800000011920929 0
          0.4000000059604645 1 0 0 0.6000000238418579 0
          0.4000000059604645 0.800000011920929 0 0.6000000238418579 1 0
          0.6000000238418579 0.800000011920929 0 0.800000011920929 1 0
          0.800000011920929 0.800000011920929 0 1 1 0
          0.20000000298023224 0.6000000238418579 0 0 0.4000000059604645 0
          0.4000000059604645 0.6000000238418579 0 0.6000000238418579 0.6000000238418579 0
          0.800000011920929 0.6000000238418579 0 1 0.800000011920929 0
          <InformationKey name="L2_NORM_RANGE" location="vtkDataArray" length="2">
            <Value index="0">
              0.40000000596
            </Value>
            <Value index="1">
              1.4142135624
            </Value>
          </InformationKey>
        </DataArray>
      </Points>
      <Cells>
        <DataArray type="Int64" Name="connectivity" format="ascii" RangeMin="0" RangeMax="17">
          12 5 13 12 3 5
          3 2 5 14 6 12
          6 3 12 15 8 14
          8 6 14 10 8 15
          3 1 2 1 0 2
          6 4 3 4 1 3
          8 7 6 7 4 6
          10 9 8 9 7 8
          16 10 15 17 10 16
          17 11 10 11 9 10
        </DataArray>
        <DataArray type="Int64" Name="offsets" format="ascii" RangeMin="3" RangeMax="60">
          3 6 9 12 15 18
          21 24 27 30 33 36
          39 42 45 48 51 54
          57 60
        </DataArray>
        <DataArray type="UInt8" Name="types" format="ascii" RangeMin="5" RangeMax="5">
          5 5 5 5 5 5
          5 5 5 5 5 5
          5 5 5 5 5 5
          5 5
        </DataArray>
      </Cells>
    </Piece>
  </UnstructuredGrid>
</VTKFile>
