<?xml version="1.0"?>
<VTKFile type="UnstructuredGrid" version="0.1" byte_order="LittleEndian" header_type="UInt32" compressor="vtkZLibDataCompressor">
  <UnstructuredGrid>
    <Piece NumberOfPoints="18" NumberOfCells="20">
      <PointData>
        <DataArray type="Float64" Name="Velocity" NumberOfComponents="3" format="ascii" RangeMin="0" RangeMax="0.2618820470906961">
          0.024737210474331583 -0.20614957060411498 0 -0.09192626633470347 0.08648332360665334 0
          -0.011473640094858961 -0.26163058340222234 0 0 0 0
          0 0 0 0 0 0
          -0.07104306284870032 -0.19033877424854645 0 0 0 0
          0 0 0 0 0 0
          0 0 0 0 0 0
          -0.09772552746732477 -0.014903888840580193 0 0 0 0
          0.0019370335462765842 0.05282256114779471 0 0.05385652590086791 0.017580210280998113 0
          0.1097424532148322 -0.05354217931874714 0 0 0 0
          <InformationKey name="L2_NORM_RANGE" location="vtkDataArray" length="2">
            <Value index="0">
              0
            </Value>
            <Value index="1">
              0.26188204709
            </Value>
          </InformationKey>
        </DataArray>
        <DataArray type="Float64" Name="Pressure" format="ascii" RangeMin="0.41244890257871747" RangeMax="2.145239387730541">
          1.087943427755799 1.6821712511246458 1.388042612370287 0.7780120661327103 1.9492651436484738 1.0867105145539933
          1.703596061318102 1.979908916703009 1.3920773569333507 2.045436099800559 1.7148459218611076 2.145239387730541
          1.668201651788052 1.923472972695385 1.3875026471074425 1.0961879541886264 0.7933638200083043 0.41244890257871747
        </DataArray>
        <DataArray type="Float64" Name="Temperature" format="ascii" RangeMin="240.00000000077955" RangeMax="636.7475362369844">
          588.9502591912222 603.9340455729233 570.402606813602 240.0000000007796 603.8107564131936 240.00000000077955
          555.3295471288641 615.8484721230029 240.0000000007797 493.4786092714065 240.0000000007796 240.00000000077958
          597.3689187795651 636.7475362369844 599.3581412220287 596.9414396292846 618.5320129799195 240.0000000007796
        </DataArray>
        <DataArray type="Float64" Name="Density" format="ascii" RangeMin="0.55347399589637" RangeMax="1.4684300135712822">
          0.598392135427903 0.5835458455135203 0.6178499169682414 1.4684300135712818 0.5836649968803898 1.4684300135712822
          0.6346199388819351 0.5722563572226631 1.4684300135712813 0.7141610530567587 1.4684300135712818 1.468430013571282
          0.5899590557511079 0.55347399589637 0.5880010281326926 0.5903815347065132 0.5697735862698085 1.4684300135712818
        </DataArray>
        <DataArray type="Float64" Name="stream" format="ascii" RangeMin="-0.035688315874003396" RangeMax="0.010210308160091188">
          -0.012730213093268512 -0.025315228970498843 -0.019873169073560598 0.008353456377007986 -0.011041113355964579 0.005705749176982959
          -0.015380311188501824 -0.015736802565630086 -0.0016000639314752377 -0.008117770419657553 -0.0049787473113881205 -0.008117770419657553
          -0.020692507513038402 -0.012410343650363942 -0.035688315874003396 -0.026756754329198034 -0.0007144651210331237 0.010210308160091188
        </DataArray>
      </PointData>
      <CellData>
        <DataArray type="UInt8" Name="vtkGhostType" format="ascii" RangeMin="0" RangeMax="1">
          1 1 1 1 1 1
          0 1 0 1 1 0
          0 0 0 0 0 0
          0 0
        </DataArray>
      </CellData>
      <Points>
        <DataArray type="Float32" Name="Points" NumberOfComponents="3" format="ascii" RangeMin="0.20000000298023224" RangeMax="1.4142135623730951">
          0.800000011920929 0.6000000238418579 0 0.6000000238418579 0.20000000298023224 0
          0.800000011920929 0.4000000059604645 0 1 0.800000011920929 0
          0.4000000059604645 0 0 1 0.6000000238418579 0
          0.800000011920929 0.20000000298023224 0 0.6000000238418579 0 0
          1 0.4000000059604645 0 0.800000011920929 0 0
          1 0.20000000298023224 0 1 0 0
          0.4000000059604645 0.20000000298023224 0 0.20000000298023224 0 0
          0.6000000238418579 0.4000000059604645 0 0.6000000238418579 0.6000000238418579 0
          0.800000011920929 0.800000011920929 0 1 1 0
          <InformationKey name="L2_NORM_RANGE" location="vtkDataArray" length="2">
            <Value index="0">
              0.20000000298
            </Value>
            <Value index="1">
              1.4142135624
            </Value>
          </InformationKey>
        </DataArray>
      </Points>
      <Cells>
        <DataArray type="Int64" Name="connectivity" format="ascii" RangeMin="0" RangeMax="17">
          4 12 13 1 12 4
          1 14 12 2 14 1
          2 0 14 0 15 14
          5 0 2 0 16 15
          5 3 0 3 16 0
          3 17 16 7 1 4
          9 6 7 6 1 7
          11 10 9 10 6 9
          6 2 1 10 8 6
          8 2 6 8 5 2
        </DataArray>
        <DataArray type="Int64" Name="offsets" format="ascii" RangeMin="3" RangeMax="60">
          3 6 9 12 15 18
          21 24 27 30 33 36
          39 42 45 48 51 54
          57 60
        </DataArray>
        <DataArray type="UInt8" Name="types" format="ascii" RangeMin="5" RangeMax="5">
          5 5 5 5 5 5
          5 5 5 5 5 5
          5 5 5 5 5 5
          5 5
        </DataArray>
      </Cells>
    </Piece>
  </UnstructuredGrid>
</VTKFile>
