<?xml version="1.0"?>
<VTKFile type="UnstructuredGrid" version="0.1" byte_order="LittleEndian" header_type="UInt32" compressor="vtkZLibDataCompressor">
  <UnstructuredGrid>
    <Piece NumberOfPoints="18" NumberOfCells="20">
      <PointData>
        <DataArray type="Float64" Name="Velocity" NumberOfComponents="3" format="ascii" RangeMin="0" RangeMax="0.20762845431759197">
          0 0 0 0 0 0
          0 0 0 0.12646652340244086 0.11150864960860446 0
          0 0 0 0 0 0
          0.1230770518582649 -0.06832937007234252 0 0 0 0
          0.12374778684195054 0.010570743331329624 0 0 0 0
          0.1097424532148322 -0.05354217931874714 0 0 0 0
          0.025923220875777447 0.14854013051911463 0 0 0 0
          0.029021976613003 -0.05612276139345265 0 0.05385652590086791 0.017580210280998113 0
          0.024737210474331583 -0.20614957060411498 0 0 0 0
          <InformationKey name="L2_NORM_RANGE" location="vtkDataArray" length="2">
            <Value index="0">
              0
            </Value>
            <Value index="1">
              0.20762845432
            </Value>
          </InformationKey>
        </DataArray>
        <DataArray type="Float64" Name="Pressure" format="ascii" RangeMin="0.41244890257871747" RangeMax="1.377984048589271">
          0.6272618022061465 0.5912932988635439 0.8531244360829437 0.8412277282175586 0.5551726913809385 1.1056015336714426
          0.8250402866440563 0.52201365856299 0.8098534751057568 0.4907577230534406 0.7933638200083043 0.41244890257871747
          1.1041363126339718 1.377984048589271 1.101822021921673 1.0961879541886264 1.087943427755799 0.7780120661327103
        </DataArray>
        <DataArray type="Float64" Name="Temperature" format="ascii" RangeMin="240.0000000007796" RangeMax="960.0000000031187">
          960.0000000031183 717.5951360218132 960.0000000031183 667.6133164381582 583.3504054991483 960.0000000031184
          592.5083712857305 595.908794769745 603.8345146555287 577.1272911840806 618.5320129799195 240.0000000007796
          648.0976151510001 960.0000000031187 596.3615944325234 596.9414396292846 588.9502591912222 240.0000000007796
        </DataArray>
        <DataArray type="Float64" Name="Density" format="ascii" RangeMin="0.3671075033928204" RangeMax="1.4684300135712818">
          0.3671075033928205 0.4911170457648414 0.3671075033928205 0.5278852212512717 0.6041363817287463 0.36710750339282044
          0.5947986903433983 0.5914046014280194 0.5836420322202026 0.610650732761559 0.5697735862698085 1.4684300135712818
          0.5437810524517074 0.3671075033928204 0.5909555654629401 0.5903815347065132 0.598392135427903 1.4684300135712818
        </DataArray>
        <DataArray type="Float64" Name="stream" format="ascii" RangeMin="-0.029044573146277564" RangeMax="0.011097460597021009">
          0 -0.0028444123489796947 -0.0001246489482819695 -0.007024339032612604 -0.0021583044320860143 -0.004821777036650821
          -0.014520691489030952 0.003427363500632033 -0.008596798404084742 0.006081692659856627 -0.0016016175579629435 0.011097460597021009
          -0.019802088203672276 -0.004821777036650821 -0.029044573146277564 -0.02571721133207244 -0.011482903282457688 0.007679187599649369
        </DataArray>
      </PointData>
      <CellData>
        <DataArray type="UInt8" Name="vtkGhostType" format="ascii" RangeMin="0" RangeMax="0">
          0 0 0 0 0 0
          0 0 0 0 0 0
          0 0 0 0 0 0
          0 0
        </DataArray>
      </CellData>
      <Points>
        <DataArray type="Float32" Name="Points" NumberOfComponents="3" format="ascii" RangeMin="0.4000000059604645" RangeMax="1.4142135623730951">
          0 1 0 0.20000000298023224 1 0
          0 0.800000011920929 0 0.20000000298023224 0.800000011920929 0
          0.4000000059604645 1 0 0 0.6000000238418579 0
          0.4000000059604645 0.800000011920929 0 0.6000000238418579 1 0
          0.6000000238418579 0.800000011920929 0 0.800000011920929 1 0
          0.800000011920929 0.800000011920929 0 1 1 0
          0.20000000298023224 0.6000000238418579 0 0 0.4000000059604645 0
          0.4000000059604645 0.6000000238418579 0 0.6000000238418579 0.6000000238418579 0
          0.800000011920929 0.6000000238418579 0 1 0.800000011920929 0
          <InformationKey name="L2_NORM_RANGE" location="vtkDataArray" length="2">
            <Value index="0">
              0.40000000596
            </Value>
            <Value index="1">
              1.4142135624
            </Value>
          </InformationKey>
        </DataArray>
      </Points>
      <Cells>
        <DataArray type="Int64" Name="connectivity" format="ascii" RangeMin="0" RangeMax="17">
          12 5 13 12 3 5
          3 2 5 14 6 12
          6 3 12 15 8 14
          8 6 14 10 8 15
          3 1 2 1 0 2
          6 4 3 4 1 3
          8 7 6 7 4 6
          10 9 8 9 7 8
          16 10 15 17 10 16
          17 11 10 11 9 10
        </DataArray>
        <DataArray type="Int64" Name="offsets" format="ascii" RangeMin="3" RangeMax="60">
          3 6 9 12 15 18
          21 24 27 30 33 36
          39 42 45 48 51 54
          57 60
        </DataArray>
        <DataArray type="UInt8" Name="types" format="ascii" RangeMin="5" RangeMax="5">
          5 5 5 5 5 5
          5 5 5 5 5 5
          5 5 5 5 5 5
          5 5
        </DataArray>
      </Cells>
    </Piece>
  </UnstructuredGrid>
</VTKFile>
