<?xml version="1.0"?>
<VTKFile type="UnstructuredGrid" version="0.1" byte_order="LittleEndian" header_type="UInt32" compressor="vtkZLibDataCompressor">
  <UnstructuredGrid>
    <Piece NumberOfPoints="18" NumberOfCells="20">
      <PointData>
        <DataArray type="Float64" Name="Velocity" NumberOfComponents="3" format="ascii" RangeMin="0" RangeMax="0.06312001197285665">
          0 0 0 0 0 0
          0 0 0 0.03325059966623631 -0.002794659522231846 0
          0 0 0 0 0 0
          0.03381150157123858 -0.016874130493494448 0 0 0 0
          0.029563718611096412 -0.00619804709647781 0 0 0 0
          0.019647823527766783 -0.0368156416133994 0 0 0 0
          0.01057147075534234 -0.0028292139564177754 0 0 0 0
          0.014749190244600308 -0.019526375441561272 0 0.014504569980027804 -0.009117070540737224 0
          0.0036083535997010197 -0.06301678899906826 0 0 0 0
          <InformationKey name="L2_NORM_RANGE" location="vtkDataArray" length="2">
            <Value index="0">
              0
            </Value>
            <Value index="1">
              0.063120011973
            </Value>
          </InformationKey>
        </DataArray>
        <DataArray type="Float64" Name="Pressure" format="ascii" RangeMin="5.619823451564621" RangeMax="6.5531006324563945">
          5.861833546231871 5.816558055934037 6.074934189807197 6.058296345265351 5.755200221996698 6.310604853206586
          6.02474565642748 5.715083260093172 5.995431994232593 5.679201795751711 5.970589308088229 5.619823451564621
          6.305041364259535 6.5531006324563945 6.288903276935421 6.272010797125084 6.256957468791505 5.953700703972121
        </DataArray>
        <DataArray type="Float64" Name="Temperature" format="ascii" RangeMin="239.99999999993045" RangeMax="959.9999999997219">
          959.9999999997218 653.8919014948315 959.9999999997218 646.6164530088346 576.2562931204528 959.9999999997216
          589.9062716098099 598.1893259990877 598.7326349789942 553.2563056439691 563.9977411682306 239.99999999993045
          647.8538374801057 959.9999999997219 591.9866751419338 597.0978361758088 557.974236491678 239.99999999993045
        </DataArray>
        <DataArray type="Float64" Name="Density" format="ascii" RangeMin="0.3642110917043153" RangeMax="1.4568443668172613">
          0.3642110917043153 0.534710167287192 0.3642110917043153 0.5407264946771534 0.6067485114005633 0.3642110917043154
          0.5927088164055162 0.5845016499618628 0.583971254629052 0.6319722784344424 0.6199362559711904 1.4568443668172613
          0.5396937207256695 0.3642110917043153 0.5906258750709408 0.5855701140626693 0.6266286598364408 1.4568443668172613
        </DataArray>
        <DataArray type="Float64" Name="stream" format="ascii" RangeMin="-0.002053844350511778" RangeMax="0.015387039164596564">
          0 0.0021957954367350365 -0.00030037715990390126 0.001503123700797942 0.00627134577534431 -0.0019051328321847926
          0.0037612463723229674 0.009143944705727368 0.006360575310322792 0.012426774557985883 0.010412734088361854 0.015387039164596564
          -0.002053844350511778 -0.0019051328321847926 -0.0006254296145329616 0.001992618531631579 0.008586256541401733 0.014671534525490228
        </DataArray>
      </PointData>
      <CellData>
        <DataArray type="UInt8" Name="vtkGhostType" format="ascii" RangeMin="0" RangeMax="0">
          0 0 0 0 0 0
          0 0 0 0 0 0
          0 0 0 0 0 0
          0 0
        </DataArray>
      </CellData>
      <Points>
        <DataArray type="Float32" Name="Points" NumberOfComponents="3" format="ascii" RangeMin="0.4000000059604645" RangeMax="1.4142135623730951">
          0 1 0 0.20000000298023224 1 0
          0 0.800000011920929 0 0.20000000298023224 0.800000011920929 0
          0.4000000059604645 1 0 0 0.6000000238418579 0
          0.4000000059604645 0.800000011920929 0 0.6000000238418579 1 0
          0.6000000238418579 0.800000011920929 0 0.800000011920929 1 0
          0.800000011920929 0.800000011920929 0 1 1 0
          0.20000000298023224 0.6000000238418579 0 0 0.4000000059604645 0
          0.4000000059604645 0.6000000238418579 0 0.6000000238418579 0.6000000238418579 0
          0.800000011920929 0.6000000238418579 0 1 0.800000011920929 0
          <InformationKey name="L2_NORM_RANGE" location="vtkDataArray" length="2">
            <Value index="0">
              0.40000000596
            </Value>
            <Value index="1">
              1.4142135624
            </Value>
          </InformationKey>
        </DataArray>
      </Points>
      <Cells>
        <DataArray type="Int64" Name="connectivity" format="ascii" RangeMin="0" RangeMax="17">
          12 5 13 12 3 5
          3 2 5 14 6 12
          6 3 12 15 8 14
          8 6 14 10 8 15
          3 1 2 1 0 2
          6 4 3 4 1 3
          8 7 6 7 4 6
          10 9 8 9 7 8
          16 10 15 17 10 16
          17 11 10 11 9 10
        </DataArray>
        <DataArray type="Int64" Name="offsets" format="ascii" RangeMin="3" RangeMax="60">
          3 6 9 12 15 18
          21 24 27 30 33 36
          39 42 45 48 51 54
          57 60
        </DataArray>
        <DataArray type="UInt8" Name="types" format="ascii" RangeMin="5" RangeMax="5">
          5 5 5 5 5 5
          5 5 5 5 5 5
          5 5 5 5 5 5
          5 5
        </DataArray>
      </Cells>
    </Piece>
  </UnstructuredGrid>
</VTKFile>
