<?xml version="1.0"?>
<VTKFile type="UnstructuredGrid" version="0.1" byte_order="LittleEndian" header_type="UInt32" compressor="vtkZLibDataCompressor">
  <UnstructuredGrid>
    <Piece NumberOfPoints="65" NumberOfCells="101">
      <PointData>
        <DataArray type="Float64" Name="Velocity" NumberOfComponents="3" format="ascii" RangeMin="0" RangeMax="3.9733538582342325">
          3.9733538582342325 0 0 3.648586970968838 0 0
          3.889090207984767 -0.020195811555312526 0 3.4542613210372197 -0.013351150854481094 0
          3.5607053011608016 0.0135111632622999 0 3.3210792345342632 0 0
          3.9261655632477925 0.025790961262009027 0 3.2720234753952164 0.0038326100704009925 0
          3.1282313586335593 -0.015289292210829126 0 3.368445358376005 0.027264662458955147 0
          3.020236878291966 0 0 3.9568844835274657 0 0
          3.6250422740924786 0 0 2.991020592689547 0.003921506892518106 0
          3.080978478816749 0.02332688430365981 0 2.7983836344596105 -0.015126022114554183 0
          3.3184348505698886 0 0 2.7129991478529067 0 0
          2.6995720382199053 0.0009512184762835996 0 3.00553524815838 0 0
          2.8011498218571984 0.01779324060532153 0 2.5100153799845715 -0.008789393356341879 0
          2.3852770145585076 0 0 2.7034445385456953 0 0
          2.509691752914613 0.012673753827370404 0 2.4412871766498805 0.006580816112944279 0
          2.220656124909345 0.013733028522185553 0 2.3823579992082884 0 0
          2.2290007391599693 -0.00612076091548714 0 2.03703100498278 0 0
          2.1967484486347604 0.0026748307291927995 0 1.9751730413678665 0.04459107304344867 0
          2.0585773265455702 0 0 1.9976901930846584 -0.033567841666860804 0
          1.9471283584436407 0.013858788344070446 0 1.726102570402226 0 0
          1.8101749709312358 -0.03735742539701922 0 1.5974097006684957 -0.015776381195804594 0
          1.8122412089735724 0.001225455780872381 0 1.3868746296015868 -0.18524999203771325 0
          1.7394709884623953 0 0 1.5787244521102002 -0.03100533486088418 0
          1.5100606016089804 0.06742867630918101 0 1.6701828205712177 -0.024453412831739574 0
          0 0 0 0 0 0
          1.3649438368450815 0 0 1.538902525519736 0.024004543739253592 0
          1.6656652141177541 -0.026674343226096145 0 0 0 0
          1.3328142300541443 0.22990149838329293 0 0 0 0
          1.3422265445918582 0.07388923889171217 0 0 0 0
          1.3734886115583331 -0.007620988854899265 0 1.284315389503456 -0.14173802496712729 0
          1.04706421489631 0.18766030113899296 0 1.4116296649452018 0 0
          1.029607820051236 0.0009536192019837381 0 1.027099730109997 -0.09434101662285194 0
          1.195004679977775 -0.05438532052528902 0 1 0 0
          1 0 0 1 0 0
          1 0 0
          <InformationKey name="L2_NORM_RANGE" location="vtkDataArray" length="2">
            <Value index="0">
              0
            </Value>
            <Value index="1">
              3.9733538582
            </Value>
          </InformationKey>
        </DataArray>
        <DataArray type="Float64" Name="Pressure" format="ascii" RangeMin="-0.035420332408783395" RangeMax="5.622781136016867">
          0.020627896815934577 0.6763305320781745 0.012179448034917328 0.8903396443375571 0.6919645753018688 1.2487916845650417
          -0.035420332408783395 1.240072484867392 1.4761136112360904 1.1224072185804532 1.7320295737333087 -0.002036373214011178
          0.7296359102783909 1.7287030302905269 1.5770659034281111 1.9957554899807528 1.2820188025222885 2.1942783186928514
          2.216113065405313 1.797901494577927 2.0448933402525746 2.426209916484502 2.6588039558438625 2.252893349464018
          2.4659380833519524 2.605099671536851 2.82346404104196 2.717831454526229 2.8694800723701133 3.065067027423177
          2.9443763240640193 3.1047296787039573 3.1060363959366333 3.151531848936872 3.020112693007239 3.3712196223615196
          3.1707737520415544 2.786975202638648 3.258167690282546 3.3221929394571794 3.54201029137949 3.854403007185042
          3.26865193060333 3.8786916084092287 3.5885151103869513 4.19794166331192 4.344983179413454 3.9426178956323934
          3.90144299856617 4.44656800890462 4.677200298230552 5.370116878466597 4.801708793225124 5.399101481013564
          4.514617268806856 5.01628792568604 5.453023762764457 4.436176421786542 5.622781136016867 5.5235457083483785
          5.106360503286989 5.143016730762865 5.5620518533625845 5.572175412413418 5.213252130347907
        </DataArray>
        <DataArray type="Float64" Name="Temperature" format="ascii" RangeMin="264.0362655094342" RangeMax="600.0000000000001">
          300 299.99999999999994 285.79752055227107 286.4263302091656 286.5974326320124 300.00000000000006
          287.46684552351724 288.9753134147525 286.3538796691993 287.2754928294193 300 300
          300 289.775895216427 285.217577168859 286.0328836698767 300 300
          289.88842599663985 300 286.61924238855255 284.9456025664058 300.00000000000006 300.00000000000006
          284.96958357860836 291.38922838272174 283.0333131057394 300.00000000000006 283.9924763894787 300
          298.45087408580076 277.2919606792313 300 281.54051827754506 339.84637057550196 300.00000000000006
          294.0985405794034 471.46287795047846 298.37577666612543 450.0212678663463 299.99999999999994 289.57499337298617
          481.48757906004164 276.51234860727 600.0000000000001 599.9999999999999 300 291.05965662000335
          277.58169684520163 600.0000000000001 282.9213275976832 600 287.58935355740874 600
          287.6408002855565 264.0362655094342 273.8413688060835 300 286.83643734113855 286.0538398346114
          290.64521157385315 300 300 300.00000000000006 299.99999999999994
        </DataArray>
        <DataArray type="Float64" Name="Density" format="ascii" RangeMin="0.5022248235305901" RangeMax="1.1412632788793446">
          1.0044496470611803 1.0044496470611806 1.0543649697732116 1.052050256337472 1.0514221685483989 1.0044496470611801
          1.0482422540574416 1.0427703687126466 1.0523164361050779 1.0489404827069015 1.0044496470611803 1.0044496470611803
          1.0044496470611803 1.0398894424717209 1.0565088488215895 1.0534973820217752 1.0044496470611803 1.0044496470611803
          1.039485771404502 1.0044496470611803 1.051342162539989 1.0575172643632176 1.0044496470611801 1.0044496470611801
          1.057428271235942 1.034131892214524 1.0646622859047596 1.0044496470611801 1.0610664689056455 1.0044496470611803
          1.0096632989981602 1.086706204464887 1.0044496470611803 1.070307378710213 0.8866797476991388 1.0044496470611801
          1.024605200436202 0.6391487181945336 1.0099174185159805 0.6696014513870683 1.0044496470611806 1.0406108987809615
          0.6258414696940241 1.0897701156426092 0.5022248235305901 0.5022248235305903 1.0044496470611803 1.0353028572137901
          1.0855719146583316 0.5022248235305901 1.0650836989809942 0.5022248235305902 1.0477957211938358 0.5022248235305902
          1.047608315020688 1.1412632788793446 1.1003994591180257 1.0044496470611803 1.0505460774496105 1.0534202033175917
          1.0367791455658808 1.0044496470611803 1.0044496470611803 1.0044496470611801 1.0044496470611806
        </DataArray>
        <DataArray type="Float64" Name="stream" format="ascii" RangeMin="-8.903982562365872" RangeMax="0.07543152887339281">
          0.06888034193304593 0.07543152887339281 -2.8276752562393423 -2.0398282850483507 -4.355237644229417 0.027527381354683318
          -5.7747799102901505 -3.6766420884017847 -1.5204781907486726 -6.088841607374525 0.02744660078701903 -8.903982562365872
          -8.353370640914578 -3.3124418957544752 -5.206826615838799 -1.4126676323367346 -7.534112625925363 0.030751416958133326
          -3.1691742178686044 -6.8603071874658275 -5.216783368975059 -1.6281733651474621 0.025875864038482337 -6.209456038126444
          -4.425878078227364 -2.830826740567025 -1.2848998733516466 -5.528763779893446 -4.16894780419091 0.0035069519877878688
          -2.532898171675067 -0.9888551270285179 -4.9303220205710625 -3.566894474463006 -2.1963677532801578 0.014422567095145583
          -1.1898775346205748 -1.8512505919144095 -2.6907306922427194 -1.459923865060469 -4.036293100942657 -0.6272156707444849
          -1.9598439858814487 -1.1649290823814944 -1.653808108714807 -1.4421190327408753 -0.040958397258206235 -3.018447758669308
          -2.2912082007037387 -1.8453804302865693 -1.2359889952451633 -1.444355745139677 -0.7683466222892817 -1.7146977338505602
          -2.6482483557181666 -2.0595926308620074 -1.2216842889251978 -3.4200957872020465 -1.4704368224951008 -1.870380611814437
          -2.53209567295349 -0.09547789357964093 -1.0439743860493895 -1.9601102923851588 -3.075537507501275
        </DataArray>
      </PointData>
      <CellData>
        <DataArray type="UInt8" Name="vtkGhostType" format="ascii" RangeMin="0" RangeMax="0">
          0 0 0 0 0 0
          0 0 0 0 0 0
          0 0 0 0 0 0
          0 0 0 0 0 0
          0 0 0 0 0 0
          0 0 0 0 0 0
          0 0 0 0 0 0
          0 0 0 0 0 0
          0 0 0 0 0 0
          0 0 0 0 0 0
          0 0 0 0 0 0
          0 0 0 0 0 0
          0 0 0 0 0 0
          0 0 0 0 0 0
          0 0 0 0 0 0
          0 0 0 0 0 0
          0 0 0 0 0
        </DataArray>
      </CellData>
      <Points>
        <DataArray type="Float32" Name="Points" NumberOfComponents="3" format="ascii" RangeMin="0.3386548938008204" RangeMax="7.102112369882704">
          7 1.2000000476837158 0 6.222221851348877 1.2000000476837158 0
          7 0.4000000059604645 0 5.866583824157715 0.5834335088729858 0
          6.113818168640137 -0.06796818971633911 0 5.444444179534912 1.2000000476837158 0
          7 -0.4000000059604645 0 5.374982833862305 0.05133577063679695 0
          5.044035911560059 0.717233419418335 0 5.636797904968262 -0.6446514129638672 0
          4.6666669845581055 1.2000000476837158 0 7 -1.2000000476837158 0
          6.222221851348877 -1.2000000476837158 0 4.6517181396484375 0.08554346114397049 0
          4.9071431159973145 -0.5013023018836975 0 4.20501708984375 0.6844208240509033 0
          5.444444179534912 -1.2000000476837158 0 3.8888890743255615 1.2000000476837158 0
          3.908618927001953 0.008085579611361027 0 4.6666669845581055 -1.2000000476837158 0
          4.190336227416992 -0.680732011795044 0 3.4767589569091797 0.5622708797454834 0
          3.1111109256744385 1.2000000476837158 0 3.8888890743255615 -1.2000000476837158 0
          3.455962896347046 -0.5601919889450073 0 3.1824440956115723 0.030600570142269135 0
          2.74373197555542 0.6176614165306091 0 3.1111109256744385 -1.2000000476837158 0
          2.7368290424346924 -0.6656588912010193 0 2.3333330154418945 1.2000000476837158 0
          2.4499940872192383 0.0055718207731842995 0 2.03562593460083 0.6959654092788696 0
          2.3333330154418945 -1.2000000476837158 0 2.0443150997161865 -0.5891656875610352 0
          1.7839189767837524 -0.0063413470052182674 0 1.555556058883667 1.2000000476837158 0
          1.4043580293655396 0.4893423020839691 0 1.3220579624176025 -0.01946846954524517 0
          1.4062609672546387 -0.46856579184532166 0 1.1284430027008057 0.23862800002098083 0
          1.555556058883667 -1.2000000476837158 0 1.053400993347168 0.8138331770896912 0
          1.1284430027008057 -0.23862800002098083 0 0.9798405170440674 0.4904909133911133 0
          1 0 0 0.861803412437439 0.19021129608154297 0
          0.7777777910232544 1.2000000476837158 0 1.0878779888153076 -0.8199741244316101 0
          0.9428092837333679 -0.5025230050086975 0 0.861803412437439 -0.19021129608154297 0
          0.6745458245277405 0.38610830903053284 0 0.638196587562561 0.1175571009516716 0
          0.5494737029075623 0.6893327832221985 0 0.638196587562561 -0.1175571009516716 0
          0.756988525390625 -0.7287815809249878 0 0.6448535919189453 -0.4298931956291199 0
          0.3890891969203949 0.32260850071907043 0 0.7777777910232544 -1.2000000476837158 0
          0.33861419558525085 0.005250108893960714 0 0.366202712059021 -0.29110780358314514 0
          0.30312108993530273 -0.749178409576416 0 0 1.2000000476837158 0
          0 0.4000000059604645 0 0 -0.4000000059604645 0
          0 -1.2000000476837158 0
          <InformationKey name="L2_NORM_RANGE" location="vtkDataArray" length="2">
            <Value index="0">
              0.3386548938
            </Value>
            <Value index="1">
              7.1021123699
            </Value>
          </InformationKey>
        </DataArray>
      </Points>
      <Cells>
        <DataArray type="Int64" Name="connectivity" format="ascii" RangeMin="0" RangeMax="64">
          44 49 42 53 51 58
          45 44 39 49 53 55
          51 45 50 42 49 48
          39 44 37 50 45 43
          58 51 56 55 53 59
          44 42 37 45 39 43
          51 50 56 53 58 59
          49 55 48 37 42 38
          56 50 52 48 55 54
          43 39 36 59 58 63
          42 48 38 50 43 52
          55 60 54 39 37 36
          58 56 62 37 38 34
          56 52 62 48 54 47
          43 36 41 59 63 60
          34 38 33 47 54 57
          47 57 40 57 60 64
          41 36 35 37 34 36
          48 47 38 43 41 52
          60 63 64 59 60 55
          54 60 57 41 35 46
          41 46 52 47 40 38
          62 52 61 33 38 40
          34 33 30 63 58 62
          52 46 61 35 36 31
          30 33 28 34 30 31
          36 34 31 35 31 29
          29 31 26 26 31 30
          26 30 25 29 26 22
          22 26 21 28 33 32
          28 32 27 28 27 24
          24 27 23 28 24 25
          25 24 18 18 24 20
          25 18 21 25 21 26
          21 18 15 30 28 25
          22 21 17 20 24 23
          20 23 19 20 19 14
          15 18 13 21 15 17
          17 15 10 10 15 8
          14 19 16 20 14 13
          13 14 7 7 14 9
          13 7 8 9 14 16
          9 16 12 7 9 4
          8 7 3 13 8 15
          10 8 5 5 8 3
          5 3 1 1 3 2
          18 20 13 4 9 12
          7 4 3 32 33 40
          12 11 6 0 1 2
          6 2 4 3 4 2
          6 4 12
        </DataArray>
        <DataArray type="Int64" Name="offsets" format="ascii" RangeMin="3" RangeMax="303">
          3 6 9 12 15 18
          21 24 27 30 33 36
          39 42 45 48 51 54
          57 60 63 66 69 72
          75 78 81 84 87 90
          93 96 99 102 105 108
          111 114 117 120 123 126
          129 132 135 138 141 144
          147 150 153 156 159 162
          165 168 171 174 177 180
          183 186 189 192 195 198
          201 204 207 210 213 216
          219 222 225 228 231 234
          237 240 243 246 249 252
          255 258 261 264 267 270
          273 276 279 282 285 288
          291 294 297 300 303
        </DataArray>
        <DataArray type="UInt8" Name="types" format="ascii" RangeMin="5" RangeMax="5">
          5 5 5 5 5 5
          5 5 5 5 5 5
          5 5 5 5 5 5
          5 5 5 5 5 5
          5 5 5 5 5 5
          5 5 5 5 5 5
          5 5 5 5 5 5
          5 5 5 5 5 5
          5 5 5 5 5 5
          5 5 5 5 5 5
          5 5 5 5 5 5
          5 5 5 5 5 5
          5 5 5 5 5 5
          5 5 5 5 5 5
          5 5 5 5 5 5
          5 5 5 5 5 5
          5 5 5 5 5
        </DataArray>
      </Cells>
    </Piece>
  </UnstructuredGrid>
</VTKFile>
