<?xml version="1.0"?>
<VTKFile type="UnstructuredGrid" version="0.1" byte_order="LittleEndian" header_type="UInt32" compressor="vtkZLibDataCompressor">
  <UnstructuredGrid>
    <Piece NumberOfPoints="36" NumberOfCells="50">
      <PointData>
        <DataArray type="Float64" Name="Velocity" NumberOfComponents="3" format="ascii" RangeMin="0" RangeMax="0.1954088305362149">
          0 0 0 0 0 0
          0 0 0 0.06567086663573672 0.05473509854743306 0
          0 0 0 0 0 0
          0.013961164362088937 0.07593177585650518 0 0.05191943384489695 -0.04143562430021153 0
          0.0069302944186689745 -0.037122543300738345 0 0 0 0
          0 0 0 0.054809238422947396 0.01181350443814852 0
          -0.011529542498981301 0.06037338201934411 0 0.002361803386970812 0.0290566024228609 0
          -0.03185006587301334 -0.0324031118169368 0 0 0 0
          0 0 0 -0.0737967563403778 -0.0063730492454368015 0
          0.06295305736707277 -0.06916882655694143 0 -0.03368479617042014 0.05221045261592075 0
          -0.08605338491777081 -0.02638198733534941 0 -0.002250056011438295 -0.17725634949751556 0
          0 0 0 0 0 0
          -0.0938921703442484 0.04771030497065559 0 -0.019757686318649437 -0.19440741982461732 0
          0 0 0 0 0 0
          0 0 0 0 0 0
          -0.05818747871872881 -0.1448166021343365 0 0 0 0
          0 0 0 0 0 0
          0 0 0 0 0 0
          <InformationKey name="L2_NORM_RANGE" location="vtkDataArray" length="2">
            <Value index="0">
              0
            </Value>
            <Value index="1">
              0.19540883054
            </Value>
          </InformationKey>
        </DataArray>
        <DataArray type="Float64" Name="Pressure" format="ascii" RangeMin="-0.03504821084108406" RangeMax="2.137546025476328">
          -0.033381993051137364 -0.03504821084108406 0.17206053189258536 0.20317300360518506 0.11793095944512104 0.40658910057637515
          0.4504187516799848 0.38764294845217023 0.6427547870072191 0.36087021933716656 0.6673622238971468 0.6494804665628747
          0.7113551970112021 0.9250471969893637 0.9040567531475965 0.5449279904959201 0.9303991520842593 0.977750433923888
          0.8654025281807416 1.1932017630262666 1.172744167388745 1.1689770144846738 1.1627852767378273 0.5177438514811663
          1.4573203721262153 1.450643268438038 1.2424603740643956 0.9044635823782003 1.4535554899218566 1.221534869753053
          1.717787099392665 1.7301028302931258 1.5078918553630967 2.0088178374434253 1.7768509658435465 2.137546025476328
        </DataArray>
        <DataArray type="Float64" Name="Temperature" format="ascii" RangeMin="239.99999999999997" RangeMax="960">
          959.9999999999999 699.03614022909 960 668.5183064891525 577.463104084086 960
          664.2834129882422 591.2664899437794 595.1756507823928 592.0162242925162 960 598.054325545574
          660.2641395327714 596.4660152681746 598.2137403046835 555.4020562957534 959.9999999999999 646.9739732702167
          576.9495022126549 601.379446129011 598.0432987618352 556.6088242958895 960 239.99999999999997
          601.7288190724407 551.378187543606 651.0796838652393 239.99999999999997 600.7757947814815 240
          550.4569642435152 616.6658572032713 240 532.4498736770876 240.00000000000003 240
        </DataArray>
        <DataArray type="Float64" Name="Density" format="ascii" RangeMin="0.3654281290768886" RangeMax="1.4617125163075546">
          0.36542812907688865 0.5018495950707846 0.3654281290768886 0.5247590088537171 0.6075037546688533 0.3654281290768886
          0.5281044160589667 0.5933213024590146 0.5894243211271356 0.5925699153482604 0.3654281290768886 0.5865871860282699
          0.5313191841102571 0.5881491902872059 0.5864308695670167 0.6316343267677876 0.36542812907688865 0.542233564884522
          0.6080445560112632 0.5833438541538637 0.5865980015830259 0.6302648980773692 0.3654281290768886 1.4617125163075546
          0.5830051558018858 0.6362438918316278 0.5388142382682978 1.4617125163075546 0.5839299901245398 1.4617125163075544
          0.6373086847868795 0.5688834557905083 1.4617125163075544 0.6588620286283846 1.4617125163075542 1.4617125163075544
        </DataArray>
        <DataArray type="Float64" Name="stream" format="ascii" RangeMin="-0.01612329198618877" RangeMax="0.015105973166689964">
          0 -0.0011865834797633896 -0.00009113140073586385 -0.003834758283212751 -0.0015134338977088816 -0.0025316935382906
          -0.009521835065903787 -0.007030043538317041 -0.012781349814722232 0.001329446580675105 -0.0032486820805008834 -0.004581772155027401
          -0.009298705446573173 -0.014441708024440851 -0.01230692193169513 0.005811392973180279 -0.0028215179796798116 -0.005765706243989944
          0.0006135121484593062 -0.01612329198618877 -0.004165057901560315 -0.004262761795129059 -0.0002777596862316061 0.0128348558942703
          -0.004453433098874073 -0.0012990783689876323 0.0017525719552360798 0.012039082175033926 0.004661378355158508 0.015105973166689964
          0.003175875399571772 0.002430946666542857 0.013960971656716446 0.008613073662294567 0.011024930182484127 0.008613073662294567
        </DataArray>
      </PointData>
      <CellData>
        <DataArray type="UInt8" Name="vtkGhostType" format="ascii" RangeMin="0" RangeMax="0">
          0 0 0 0 0 0
          0 0 0 0 0 0
          0 0 0 0 0 0
          0 0 0 0 0 0
          0 0 0 0 0 0
          0 0 0 0 0 0
          0 0 0 0 0 0
          0 0 0 0 0 0
          0 0
        </DataArray>
      </CellData>
      <Points>
        <DataArray type="Float32" Name="Points" NumberOfComponents="3" format="ascii" RangeMin="0" RangeMax="1.4142135623730951">
          0 1 0 0.20000000298023224 1 0
          0 0.800000011920929 0 0.20000000298023224 0.800000011920929 0
          0.4000000059604645 1 0 0 0.6000000238418579 0
          0.20000000298023224 0.6000000238418579 0 0.4000000059604645 0.800000011920929 0
          0.4000000059604645 0.6000000238418579 0 0.6000000238418579 1 0
          0 0.4000000059604645 0 0.6000000238418579 0.800000011920929 0
          0.20000000298023224 0.4000000059604645 0 0.6000000238418579 0.6000000238418579 0
          0.4000000059604645 0.4000000059604645 0 0.800000011920929 1 0
          0 0.20000000298023224 0 0.20000000298023224 0.20000000298023224 0
          0.800000011920929 0.800000011920929 0 0.6000000238418579 0.4000000059604645 0
          0.4000000059604645 0.20000000298023224 0 0.800000011920929 0.6000000238418579 0
          0 0 0 1 1 0
          0.6000000238418579 0.20000000298023224 0 0.800000011920929 0.4000000059604645 0
          0.20000000298023224 0 0 1 0.800000011920929 0
          0.4000000059604645 0 0 1 0.6000000238418579 0
          0.800000011920929 0.20000000298023224 0 0.6000000238418579 0 0
          1 0.4000000059604645 0 0.800000011920929 0 0
          1 0.20000000298023224 0 1 0 0
          <InformationKey name="L2_NORM_RANGE" location="vtkDataArray" length="2">
            <Value index="0">
              0
            </Value>
            <Value index="1">
              1.4142135624
            </Value>
          </InformationKey>
        </DataArray>
      </Points>
      <Cells>
        <DataArray type="Int64" Name="connectivity" format="ascii" RangeMin="0" RangeMax="35">
          26 17 22 17 16 22
          28 20 26 20 17 26
          31 24 28 24 20 28
          33 30 31 30 24 31
          35 34 33 34 30 33
          17 12 16 12 10 16
          20 14 17 14 12 17
          24 19 20 19 14 20
          30 25 24 25 19 24
          34 32 30 32 25 30
          12 6 10 6 5 10
          14 8 12 8 6 12
          19 13 14 13 8 14
          25 21 19 21 13 19
          32 29 25 29 21 25
          6 3 5 3 2 5
          8 7 6 7 3 6
          13 11 8 11 7 8
          21 18 13 18 11 13
          29 27 21 27 18 21
          3 1 2 1 0 2
          7 4 3 4 1 3
          11 9 7 9 4 7
          18 15 11 15 9 11
          27 23 18 23 15 18
        </DataArray>
        <DataArray type="Int64" Name="offsets" format="ascii" RangeMin="3" RangeMax="150">
          3 6 9 12 15 18
          21 24 27 30 33 36
          39 42 45 48 51 54
          57 60 63 66 69 72
          75 78 81 84 87 90
          93 96 99 102 105 108
          111 114 117 120 123 126
          129 132 135 138 141 144
          147 150
        </DataArray>
        <DataArray type="UInt8" Name="types" format="ascii" RangeMin="5" RangeMax="5">
          5 5 5 5 5 5
          5 5 5 5 5 5
          5 5 5 5 5 5
          5 5 5 5 5 5
          5 5 5 5 5 5
          5 5 5 5 5 5
          5 5 5 5 5 5
          5 5 5 5 5 5
          5 5
        </DataArray>
      </Cells>
    </Piece>
  </UnstructuredGrid>
</VTKFile>
