<?xml version="1.0"?>
<VTKFile type="UnstructuredGrid" version="0.1" byte_order="LittleEndian" header_type="UInt32" compressor="vtkZLibDataCompressor">
  <UnstructuredGrid>
    <Piece NumberOfPoints="36" NumberOfCells="50">
      <PointData>
        <DataArray type="Float64" Name="Velocity" NumberOfComponents="3" format="ascii" RangeMin="0" RangeMax="0.2837680343294937">
          0 0 0 0 0 0
          0 0 0 0.12924160633383197 0.11455233956106459 0
          0 0 0 0 0 0
          0.02808122013635997 0.16065590009225428 0 0.13203366765725044 -0.06804859209555562 0
          0.03364711850262796 -0.055994466919433744 0 0 0 0
          0 0 0 0.1346857927302594 0.011202142411032623 0
          -0.009106297111217633 0.12722109920776303 0 0.05199653417299272 0.015017750139016461 0
          -0.026403233255994293 -0.02505405914418972 0 0 0 0
          0 0 0 -0.10853110453526868 0.0027078100035690666 0
          0.11537117401967283 -0.06736037622580124 0 -0.005862311153007241 0.05382085773968805 0
          -0.11326574513596341 -0.017342439352602323 0 0.01937539005885286 -0.23785107917117143 0
          0 0 0 0 0 0
          -0.11049233858925075 0.08791806196127394 0 -0.015080491915844513 -0.28336703419911224 0
          0 0 0 0 0 0
          0 0 0 0 0 0
          -0.07441008077621356 -0.197787363312723 0 0 0 0
          0 0 0 0 0 0
          0 0 0 0 0 0
          <InformationKey name="L2_NORM_RANGE" location="vtkDataArray" length="2">
            <Value index="0">
              0
            </Value>
            <Value index="1">
              0.28376803433
            </Value>
          </InformationKey>
        </DataArray>
        <DataArray type="Float64" Name="Pressure" format="ascii" RangeMin="-1.6517971341261195" RangeMax="0.039450324171889636">
          -1.5415513660469176 -1.5753670159657374 -1.317505323288989 -1.326852796271349 -1.6031531975055824 -1.0636794399851337
          -1.064685175890629 -1.331160827874303 -1.061549571296238 -1.5830909013561265 -0.7897611014267049 -1.2975336307018346
          -0.7906424195642869 -1.0207293919683256 -0.7845324861512659 -1.5766451634587886 -0.5154323240981348 -0.5146184653442599
          -1.268337892919393 -0.7432416260947519 -0.5011455447235476 -0.9704117973677054 -0.2753028157906416 -1.6517971341261195
          -0.45969375342824204 -0.686000747629462 -0.24790750202509865 -1.2725051150497566 -0.22006508512599207 -0.95861528878278
          -0.394516685165735 -0.1691341293430264 -0.6720567748860394 -0.06705499969080961 -0.3768003921095483 0.039450324171889636
        </DataArray>
        <DataArray type="Float64" Name="Temperature" format="ascii" RangeMin="239.99999999999997" RangeMax="960.0000000000001">
          959.9999999999999 729.3650448445014 960 685.3137388203213 584.4096744347239 960
          668.3403604469271 592.6730091075959 597.495998230873 588.3674685981525 960.0000000000001 600.480493408606
          654.8020151438309 593.3441465121917 602.7641740576452 562.6144710709455 960 631.0508681733791
          600.9915212297334 596.3667421405554 598.390236462852 571.8951650308668 960 239.99999999999997
          600.5902965450146 554.7066492653116 651.1666009209122 240.00000000000003 607.9443412770704 239.99999999999997
          543.8352939525785 614.4906440443154 240 490.0443687145494 240.00000000000006 240
        </DataArray>
        <DataArray type="Float64" Name="Density" format="ascii" RangeMin="0.36609934180327336" RangeMax="1.4643973672130937">
          0.3660993418032734 0.48186483656626533 0.36609934180327336 0.5128386434162655 0.6013852670578925 0.36609934180327336
          0.5258628521194203 0.5930004618572702 0.5882137607143265 0.5973399055670462 0.36609934180327336 0.5852902333864647
          0.5367353184671299 0.5923297131977705 0.5830727559092308 0.6246824178946938 0.36609934180327336 0.5569366684312702
          0.584792556493981 0.589327578646747 0.5873347302733953 0.6145450943131744 0.36609934180327336 1.4643973672130937
          0.5851832274895915 0.6335878046470725 0.5397318714352007 1.4643973672130934 0.5781045142929734 1.4643973672130937
          0.646253327136559 0.5719458408968005 1.4643973672130934 0.717190912841333 1.4643973672130932 1.4643973672130934
        </DataArray>
        <DataArray type="Float64" Name="stream" format="ascii" RangeMin="-0.02934220839028708" RangeMax="0.01779089926365068">
          0 -0.0029615374236240583 -0.0001224105564397275 -0.007455535639165486 -0.002433060934556138 -0.004835499456352852
          -0.018760969865413896 -0.01348961587818076 -0.02569355346558537 0.005441434403138087 -0.0064352227470014485 -0.0057831264921389125
          -0.01796487040030383 -0.023318370212508297 -0.024646241377766585 0.010991779602027706 -0.006629561719357015 -0.012115785792967753
          0.0022736125000854877 -0.02934220839028708 -0.012065313750714379 -0.008177420498215739 -0.003144640267384957 0.01779089926365068
          -0.013893598933505854 -0.008385207165786395 -0.0017428820034668402 0.015184643323688301 -0.00030546837786606107 0.01623133123056991
          -0.0039454692485543915 -0.005237509770732745 0.011917650530758774 0.0031333215314152583 0.006519973678429297 0.0031333215314152583
        </DataArray>
      </PointData>
      <CellData>
        <DataArray type="UInt8" Name="vtkGhostType" format="ascii" RangeMin="0" RangeMax="0">
          0 0 0 0 0 0
          0 0 0 0 0 0
          0 0 0 0 0 0
          0 0 0 0 0 0
          0 0 0 0 0 0
          0 0 0 0 0 0
          0 0 0 0 0 0
          0 0 0 0 0 0
          0 0
        </DataArray>
      </CellData>
      <Points>
        <DataArray type="Float32" Name="Points" NumberOfComponents="3" format="ascii" RangeMin="0" RangeMax="1.4142135623730951">
          0 1 0 0.20000000298023224 1 0
          0 0.800000011920929 0 0.20000000298023224 0.800000011920929 0
          0.4000000059604645 1 0 0 0.6000000238418579 0
          0.20000000298023224 0.6000000238418579 0 0.4000000059604645 0.800000011920929 0
          0.4000000059604645 0.6000000238418579 0 0.6000000238418579 1 0
          0 0.4000000059604645 0 0.6000000238418579 0.800000011920929 0
          0.20000000298023224 0.4000000059604645 0 0.6000000238418579 0.6000000238418579 0
          0.4000000059604645 0.4000000059604645 0 0.800000011920929 1 0
          0 0.20000000298023224 0 0.20000000298023224 0.20000000298023224 0
          0.800000011920929 0.800000011920929 0 0.6000000238418579 0.4000000059604645 0
          0.4000000059604645 0.20000000298023224 0 0.800000011920929 0.6000000238418579 0
          0 0 0 1 1 0
          0.6000000238418579 0.20000000298023224 0 0.800000011920929 0.4000000059604645 0
          0.20000000298023224 0 0 1 0.800000011920929 0
          0.4000000059604645 0 0 1 0.6000000238418579 0
          0.800000011920929 0.20000000298023224 0 0.6000000238418579 0 0
          1 0.4000000059604645 0 0.800000011920929 0 0
          1 0.20000000298023224 0 1 0 0
          <InformationKey name="L2_NORM_RANGE" location="vtkDataArray" length="2">
            <Value index="0">
              0
            </Value>
            <Value index="1">
              1.4142135624
            </Value>
          </InformationKey>
        </DataArray>
      </Points>
      <Cells>
        <DataArray type="Int64" Name="connectivity" format="ascii" RangeMin="0" RangeMax="35">
          26 17 22 17 16 22
          28 20 26 20 17 26
          31 24 28 24 20 28
          33 30 31 30 24 31
          35 34 33 34 30 33
          17 12 16 12 10 16
          20 14 17 14 12 17
          24 19 20 19 14 20
          30 25 24 25 19 24
          34 32 30 32 25 30
          12 6 10 6 5 10
          14 8 12 8 6 12
          19 13 14 13 8 14
          25 21 19 21 13 19
          32 29 25 29 21 25
          6 3 5 3 2 5
          8 7 6 7 3 6
          13 11 8 11 7 8
          21 18 13 18 11 13
          29 27 21 27 18 21
          3 1 2 1 0 2
          7 4 3 4 1 3
          11 9 7 9 4 7
          18 15 11 15 9 11
          27 23 18 23 15 18
        </DataArray>
        <DataArray type="Int64" Name="offsets" format="ascii" RangeMin="3" RangeMax="150">
          3 6 9 12 15 18
          21 24 27 30 33 36
          39 42 45 48 51 54
          57 60 63 66 69 72
          75 78 81 84 87 90
          93 96 99 102 105 108
          111 114 117 120 123 126
          129 132 135 138 141 144
          147 150
        </DataArray>
        <DataArray type="UInt8" Name="types" format="ascii" RangeMin="5" RangeMax="5">
          5 5 5 5 5 5
          5 5 5 5 5 5
          5 5 5 5 5 5
          5 5 5 5 5 5
          5 5 5 5 5 5
          5 5 5 5 5 5
          5 5 5 5 5 5
          5 5 5 5 5 5
          5 5
        </DataArray>
      </Cells>
    </Piece>
  </UnstructuredGrid>
</VTKFile>
