<?xml version="1.0"?>
<VTKFile type="UnstructuredGrid" version="0.1" byte_order="LittleEndian" header_type="UInt32" compressor="vtkZLibDataCompressor">
  <UnstructuredGrid>
    <Piece NumberOfPoints="36" NumberOfCells="50">
      <PointData>
        <DataArray type="Float64" Name="Velocity" NumberOfComponents="3" format="ascii" RangeMin="0" RangeMax="0.1818533379580157">
          0 0 0 0 0 0
          0 0 0 0.1445904711984507 0.036481608908630225 0
          0 0 0 0 0 0
          0.06779758988369011 0.044097789533647874 0 0.17985354365691925 -0.0268949690559577 0
          0.1128222263248676 -0.029987862814670613 0 0 0 0
          0 0 0 0.16867015729583057 0.012825010527763303 0
          0.05025956736903717 0.03262336130019791 0 0.11420583508389714 0.008204979909506485 0
          0.09658369383560528 -0.023667212592517473 0 0 0 0
          0 0 0 0.011786370082359388 0.0019131160429959326 0
          0.10620524368446946 -0.021560032546246548 0 0.09782767095856176 0.009928175206735973 0
          0.06664610688008465 -0.01734244691033035 0 0.0604882520536299 -0.07025858342602131 0
          0 0 0 0 0 0
          0.08620380136675909 0.013248074814253656 0 0.05027800395455699 -0.07330904854764175 0
          0 0 0 0 0 0
          0 0 0 0 0 0
          0.03889509084276488 -0.05999082370771302 0 0 0 0
          0 0 0 0 0 0
          0 0 0 0 0 0
          <InformationKey name="L2_NORM_RANGE" location="vtkDataArray" length="2">
            <Value index="0">
              0
            </Value>
            <Value index="1">
              0.18185333796
            </Value>
          </InformationKey>
        </DataArray>
        <DataArray type="Float64" Name="Pressure" format="ascii" RangeMin="-3.558542912492212" RangeMax="-1.50492398389214">
          -2.8025026905727657 -2.864484004256411 -2.559237723283524 -2.602381023426996 -3.041314654310368 -2.288711211864
          -2.3219015970747874 -2.7589196855581 -2.460646786774875 -3.248326335937075 -2.0143413521049465 -2.9496885519390736
          -2.038169937005354 -2.6386059110695275 -2.159929572446906 -3.4470541620702546 -1.7500093479192265 -1.763733551183159
          -3.116324457950321 -2.3224239666123423 -1.8648838719081113 -2.7939223786157386 -1.5114564056530215 -3.558542912492212
          -2.0044661717721253 -2.4656257222417297 -1.50492398389214 -3.1691032559317374 -1.583644739825453 -2.8337107190097437
          -2.1233626940831214 -1.700153386390859 -2.5001312499282027 -1.7798965921156058 -2.1416452142953597 -1.7302528566199606
        </DataArray>
        <DataArray type="Float64" Name="Temperature" format="ascii" RangeMin="240" RangeMax="960.0000000000001">
          959.9999999999999 679.3379497206705 960 661.2021361988843 570.5708168945343 960.0000000000001
          663.3397007703218 586.6113471003395 586.6209555157953 599.7435253810899 960 600.7180884632936
          664.8292936857421 599.185202891794 590.2960339140735 556.1158901795515 959.9999999999999 657.2473320096467
          569.2609591598147 599.1479503176771 593.279346842222 562.0025034467026 959.9999999999999 240.00000000000003
          598.6539324007572 559.247927798683 654.7803345276677 240.00000000000003 602.3615297005847 240
          556.155719523484 603.2152059001612 240 550.5587715301509 240 240
        </DataArray>
        <DataArray type="Float64" Name="Density" format="ascii" RangeMin="0.3655189253154052" RangeMax="1.462075701261621">
          0.3655189253154053 0.5165296130549912 0.36551892531540525 0.5306972695521384 0.6149949452596168 0.3655189253154052
          0.5289871356942736 0.5981782828397422 0.5981684851238506 0.5850803776161165 0.36551892531540525 0.5841311840641042
          0.5278019058959441 0.5856255571887966 0.5944443942407845 0.6309802947538428 0.3655189253154053 0.5338905937128076
          0.6164100359537877 0.5856619689957007 0.5914552228566076 0.6243711836704771 0.3655189253154053 1.4620757012616208
          0.5861452657557874 0.6274465239129231 0.535902118312568 1.4620757012616208 0.5825374812319267 1.462075701261621
          0.6309351068140407 0.5817130683553534 1.462075701261621 0.637349155890385 1.462075701261621 1.462075701261621
        </DataArray>
        <DataArray type="Float64" Name="stream" format="ascii" RangeMin="-0.02272400964012018" RangeMax="0.032747131994586655">
          0 0.005090296669951851 -0.0009009071857485038 0.003520529164429074 0.017918870194924646 -0.007750997860735191
          -0.00872128665912741 0.010344901449969555 -0.0032156363625667206 0.029799426264719365 -0.012137435059809154 0.019785264614295233
          -0.012964381558389372 0.005069175138942758 -0.008753827516550782 0.032747131994586655 -0.015433362924502786 -0.015999375365120406
          0.022444812790421168 -0.005154006148026673 -0.015958235869804084 0.010213394254565003 -0.016385174475296232 0.029286281545044056
          -0.017091506937525817 -0.0019801623447270908 -0.019338271795726364 0.020841163358761933 -0.021870985285480992 0.009768236575082263
          -0.015840218987328066 -0.02272400964012018 -0.0054633224871188145 -0.018320225779483276 -0.016059135336036204 -0.018320225779483276
        </DataArray>
      </PointData>
      <CellData>
        <DataArray type="UInt8" Name="vtkGhostType" format="ascii" RangeMin="0" RangeMax="0">
          0 0 0 0 0 0
          0 0 0 0 0 0
          0 0 0 0 0 0
          0 0 0 0 0 0
          0 0 0 0 0 0
          0 0 0 0 0 0
          0 0 0 0 0 0
          0 0 0 0 0 0
          0 0
        </DataArray>
      </CellData>
      <Points>
        <DataArray type="Float32" Name="Points" NumberOfComponents="3" format="ascii" RangeMin="0" RangeMax="1.4142135623730951">
          0 1 0 0.20000000298023224 1 0
          0 0.800000011920929 0 0.20000000298023224 0.800000011920929 0
          0.4000000059604645 1 0 0 0.6000000238418579 0
          0.20000000298023224 0.6000000238418579 0 0.4000000059604645 0.800000011920929 0
          0.4000000059604645 0.6000000238418579 0 0.6000000238418579 1 0
          0 0.4000000059604645 0 0.6000000238418579 0.800000011920929 0
          0.20000000298023224 0.4000000059604645 0 0.6000000238418579 0.6000000238418579 0
          0.4000000059604645 0.4000000059604645 0 0.800000011920929 1 0
          0 0.20000000298023224 0 0.20000000298023224 0.20000000298023224 0
          0.800000011920929 0.800000011920929 0 0.6000000238418579 0.4000000059604645 0
          0.4000000059604645 0.20000000298023224 0 0.800000011920929 0.6000000238418579 0
          0 0 0 1 1 0
          0.6000000238418579 0.20000000298023224 0 0.800000011920929 0.4000000059604645 0
          0.20000000298023224 0 0 1 0.800000011920929 0
          0.4000000059604645 0 0 1 0.6000000238418579 0
          0.800000011920929 0.20000000298023224 0 0.6000000238418579 0 0
          1 0.4000000059604645 0 0.800000011920929 0 0
          1 0.20000000298023224 0 1 0 0
          <InformationKey name="L2_NORM_RANGE" location="vtkDataArray" length="2">
            <Value index="0">
              0
            </Value>
            <Value index="1">
              1.4142135624
            </Value>
          </InformationKey>
        </DataArray>
      </Points>
      <Cells>
        <DataArray type="Int64" Name="connectivity" format="ascii" RangeMin="0" RangeMax="35">
          26 17 22 17 16 22
          28 20 26 20 17 26
          31 24 28 24 20 28
          33 30 31 30 24 31
          35 34 33 34 30 33
          17 12 16 12 10 16
          20 14 17 14 12 17
          24 19 20 19 14 20
          30 25 24 25 19 24
          34 32 30 32 25 30
          12 6 10 6 5 10
          14 8 12 8 6 12
          19 13 14 13 8 14
          25 21 19 21 13 19
          32 29 25 29 21 25
          6 3 5 3 2 5
          8 7 6 7 3 6
          13 11 8 11 7 8
          21 18 13 18 11 13
          29 27 21 27 18 21
          3 1 2 1 0 2
          7 4 3 4 1 3
          11 9 7 9 4 7
          18 15 11 15 9 11
          27 23 18 23 15 18
        </DataArray>
        <DataArray type="Int64" Name="offsets" format="ascii" RangeMin="3" RangeMax="150">
          3 6 9 12 15 18
          21 24 27 30 33 36
          39 42 45 48 51 54
          57 60 63 66 69 72
          75 78 81 84 87 90
          93 96 99 102 105 108
          111 114 117 120 123 126
          129 132 135 138 141 144
          147 150
        </DataArray>
        <DataArray type="UInt8" Name="types" format="ascii" RangeMin="5" RangeMax="5">
          5 5 5 5 5 5
          5 5 5 5 5 5
          5 5 5 5 5 5
          5 5 5 5 5 5
          5 5 5 5 5 5
          5 5 5 5 5 5
          5 5 5 5 5 5
          5 5 5 5 5 5
          5 5
        </DataArray>
      </Cells>
    </Piece>
  </UnstructuredGrid>
</VTKFile>
