<?xml version="1.0"?>
<VTKFile type="UnstructuredGrid" version="0.1" byte_order="LittleEndian" header_type="UInt32" compressor="vtkZLibDataCompressor">
  <UnstructuredGrid>
    <Piece NumberOfPoints="49" NumberOfCells="73">
      <PointData>
        <DataArray type="Float64" Name="nsi_SBC" NumberOfComponents="3" format="ascii" RangeMin="0" RangeMax="0">
          0 0 0 0 0 0
          0 0 0 0 0 0
          0 0 0 0 0 0
          0 0 0 0 0 0
          0 0 0 0 0 0
          0 0 0 0 0 0
          0 0 0 0 0 0
          0 0 0 0 0 0
          0 0 0 0 0 0
          0 0 0 0 0 0
          0 0 0 0 0 0
          0 0 0 0 0 0
          0 0 0 0 0 0
          0 0 0 0 0 0
          0 0 0 0 0 0
          0 0 0 0 0 0
          0 0 0 0 0 0
          0 0 0 0 0 0
          0 0 0 0 0 0
          0 0 0 0 0 0
          0 0 0 0 0 0
          0 0 0 0 0 0
          0 0 0 0 0 0
          0 0 0 0 0 0
          0 0 0
          <InformationKey name="L2_NORM_RANGE" location="vtkDataArray" length="2">
            <Value index="0">
              0
            </Value>
            <Value index="1">
              0
            </Value>
          </InformationKey>
        </DataArray>
        <DataArray type="Float64" Name="nsi_SFIXNO" NumberOfComponents="3" format="ascii" RangeMin="0" RangeMax="1.7320508075688772">
          0 0 0 0 0 0
          -1 -1 -1 -1 -1 -1
          0 0 0 -1 -1 -1
          -1 -1 -1 -1 -1 -1
          -1 -1 -1 -1 -1 -1
          0 0 0 -1 -1 -1
          -1 -1 -1 -1 -1 -1
          -1 -1 -1 -1 -1 -1
          -1 -1 -1 0 0 0
          -1 -1 -1 -1 -1 -1
          -1 -1 -1 -1 -1 -1
          -1 -1 -1 -1 -1 -1
          -1 -1 -1 -1 -1 -1
          0 0 0 -1 -1 -1
          0 0 0 -1 -1 -1
          -1 -1 -1 -1 -1 -1
          0 0 0 0 0 0
          -1 -1 -1 -1 -1 -1
          -1 -1 -1 0 0 0
          -1 -1 -1 -1 -1 -1
          0 0 0 -1 -1 -1
          -1 -1 -1 -1 -1 -1
          0 0 0 -1 -1 -1
          -1 -1 -1 -1 -1 -1
          0 0 0
          <InformationKey name="L2_NORM_RANGE" location="vtkDataArray" length="2">
            <Value index="0">
              0
            </Value>
            <Value index="1">
              1.7320508076
            </Value>
          </InformationKey>
        </DataArray>
        <DataArray type="Float64" Name="nsi_UBC" NumberOfComponents="3" format="ascii" RangeMin="0" RangeMax="0">
          0 0 0 0 0 0
          0 0 0 0 0 0
          0 0 0 0 0 0
          0 0 0 0 0 0
          0 0 0 0 0 0
          0 0 0 0 0 0
          0 0 0 0 0 0
          0 0 0 0 0 0
          0 0 0 0 0 0
          0 0 0 0 0 0
          0 0 0 0 0 0
          0 0 0 0 0 0
          0 0 0 0 0 0
          0 0 0 0 0 0
          0 0 0 0 0 0
          0 0 0 0 0 0
          0 0 0 0 0 0
          0 0 0 0 0 0
          0 0 0 0 0 0
          0 0 0 0 0 0
          0 0 0 0 0 0
          0 0 0 0 0 0
          0 0 0 0 0 0
          0 0 0 0 0 0
          0 0 0
          <InformationKey name="L2_NORM_RANGE" location="vtkDataArray" length="2">
            <Value index="0">
              0
            </Value>
            <Value index="1">
              0
            </Value>
          </InformationKey>
        </DataArray>
        <DataArray type="Float64" Name="nsi_UFIXNO" NumberOfComponents="3" format="ascii" RangeMin="1" RangeMax="1.4142135623730951">
          0 1 0 0 1 0
          -1 -1 0 -1 -1 0
          0 1 0 -1 -1 0
          -1 -1 0 -1 -1 0
          -1 -1 0 -1 -1 0
          0 1 0 -1 -1 0
          -1 -1 0 -1 -1 0
          -1 -1 0 -1 -1 0
          -1 -1 0 0 1 0
          -1 -1 0 -1 -1 0
          -1 -1 0 -1 -1 0
          -1 -1 0 -1 -1 0
          -1 -1 0 -1 -1 0
          0 1 0 -1 -1 0
          0 1 0 -1 -1 0
          -1 -1 0 -1 -1 0
          0 1 0 0 1 0
          -1 -1 0 -1 -1 0
          -1 -1 0 0 1 0
          -1 -1 0 -1 -1 0
          0 1 0 -1 -1 0
          -1 -1 0 -1 -1 0
          0 1 0 -1 -1 0
          -1 -1 0 -1 -1 0
          0 1 0
          <InformationKey name="L2_NORM_RANGE" location="vtkDataArray" length="2">
            <Value index="0">
              1
            </Value>
            <Value index="1">
              1.4142135624
            </Value>
          </InformationKey>
        </DataArray>
        <DataArray type="Float64" Name="Velocity" NumberOfComponents="3" format="ascii" RangeMin="0.9738227158446524" RangeMax="1.0138361616568106">
          1.0000189707211091 0 0 1.000020660124043 0 0
          0.9999962252308778 0.000009198618282878855 0 1.0000141764999273 0.00006361168260705547 0
          1.0001507367838396 0 0 0.9999656006245945 -0.000008050959608156292 0
          0.9999543272102075 0.000021020706688958097 0 1.0000211761014186 0.0002037342456764264 0
          0.999969144840029 -0.000009685926036224198 0 0.9998802011894417 0.00008038311992476805 0
          1.0004410763289042 0 0 0.9999827585428213 0.000004954419853334551 0
          0.9999111423925412 -0.000024935670017494873 0 0.9997129318231959 0.0002458387302680431 0
          0.9999912349201614 -0.00004492308167744975 0 1.000010330821588 0.0007501492605468042 0
          0.9997435710575326 -0.00010035689017932805 0 1.0015122713591127 0 0
          0.9999601915917803 -0.00012940463718854675 0 1.0000186595999234 -0.000008671884154117132 0
          0.9990191444943888 -0.00018063464429422812 0 0.9990749475278555 0.0010235865994281347 0
          1.0000573073006933 -0.00005588262882413735 0 0.9998122418668365 0.0023478874839988092 0
          0.9999216405681058 -0.00035975131975486224 0 1.0001040666247507 -0.00024250218686815768 0
          1.0000537532778992 0 0 0.9972199721734145 -0.0007475174566605029 0
          1.0000574028709215 0 0 0.9998734168314101 -0.0015781257079695605 0
          0.9973840044251296 0.0033606594340657623 0 1.0002260254025752 -0.0004489144199867465 0
          1.0001546487360924 0 0 1.0005549447760802 0 0
          0.9908648670184605 -0.0013499207988472677 0 1.0008568699938085 -0.0024257088712880837 0
          0.9965970018485377 -0.0050828987250772974 0 1.0011887564110236 0 0
          0.9943722811851003 -0.015214918871900825 0 1.0041999681798095 -0.007547241299107929 0
          1.0031266441607987 0 0 0.9808597072512543 -0.0014954648269483427 0
          0.9897358082080346 0.009661296605240106 0 1.000988579757942 0.006350422838793406 0
          1.003742830351073 0 0 1.006429598177729 -0.04195496165808915 0
          0.9734976554061477 -0.02515942793045879 0 1.0137568394132739 -0.012682004014517296 0
          1.0097400728018617 0 0
          <InformationKey name="L2_NORM_RANGE" location="vtkDataArray" length="2">
            <Value index="0">
              0.97382271584
            </Value>
            <Value index="1">
              1.0138361617
            </Value>
          </InformationKey>
        </DataArray>
        <DataArray type="Float64" Name="Pressure" format="ascii" RangeMin="-0.000028673273852039476" RangeMax="102.8293361890234">
          0.000011218822095740832 14.545664561958267 -0.000019335392154180325 21.818246053714315 29.091926487992957 -0.000026831510991694814
          17.284421364473747 36.36412562605126 9.529711272127189 32.27532228597746 43.6407605007289 -0.000028673273852039476
          24.52494523256687 47.1859063044493 14.119613019696565 54.414486087964335 39.50172116227786 58.19624729981146
          29.090582443823806 -0.000026162594021980528 54.16807867834009 61.959216337586646 21.818915020995664 68.41459976686505
          47.47067404187932 36.365603983326345 0.00002013051890796062 69.03921895414355 14.546129875669621 61.59176175663388
          76.39651269152203 50.913910081621545 29.09294479698336 43.64195055257299 82.17284049319332 70.95234687479797
          80.39762720121358 58.198854194481214 91.29610697592386 85.49856526460037 72.77113432296568 92.83977714570251
          88.18261965750403 81.93935303315999 72.77020116160455 102.8293361890234 98.73808210827428 96.77514113888253
          87.39111838919183
        </DataArray>
        <DataArray type="Float64" Name="Sigma" NumberOfComponents="6" format="ascii" RangeMin="2.9393821705831924e-8" RangeMax="0.000262825978435739">
          -9.673383947047042e-9 2.3793898054613247e-9 0 3.361148431291746e-8 0 0
          -9.167789811540845e-8 9.605041476348089e-8 0 -1.0215618393516508e-7 0 0
          6.38360878167751e-9 -1.052308734085449e-8 0 -6.490345741233545e-8 0 0
          -1.7264309246477662e-7 1.6862937121533628e-7 0 -2.1968407703049267e-7 0 0
          -7.664996710570095e-7 6.991684219560511e-7 0 -4.199570757297362e-7 0 0
          -6.870926415755387e-8 6.494922987415317e-8 0 2.692862743099239e-8 0 0
          1.9538809097876167e-7 -1.8269184924111975e-7 0 -8.556810016503857e-8 0 0
          9.383769536445675e-8 -4.349627574642925e-8 0 -5.233509394408236e-7 0 0
          1.344070411060514e-7 -1.3943130562473349e-7 0 -5.623357961804564e-9 0 0
          4.999712081948763e-7 -5.078784703609745e-7 0 -2.8468253906410073e-7 0 0
          -0.0000026201525326480265 0.0000028496903042416864 0 -0.00000219189673218496 0 0
          -8.29701093895145e-8 8.949302279123944e-8 0 6.802971836080311e-8 0 0
          3.2984308333848877e-7 -3.309369462067258e-7 0 7.531998257031644e-8 0 0
          4.851365476054086e-7 -5.120231685472292e-7 0 -0.0000010825940467748024 0 0
          7.148127401372729e-8 -7.326445796350549e-8 0 2.449633053098315e-7 0 0
          0.0000010213546933488771 -0.0000014056301242075658 0 -0.0000013221794769132456 0 0
          9.562105094458112e-7 -9.939476667004954e-7 0 4.1371867011239393e-7 0 0
          -0.000008370895028168209 0.000007815151657537569 0 -0.000006966428850196827 0 0
          1.679310289330501e-7 -1.3400487118135166e-7 0 2.9017812606812125e-7 0 0
          2.641087201812504e-8 -2.9089413560582047e-8 0 1.7721424231598008e-8 0 0
          0.000005670248350316161 -0.000005426265652015739 0 5.748376683222104e-7 0 0
          0.0000027088153783809835 -0.000002103039206001743 0 -0.000004794108030950509 0 0
          -2.0905783016457708e-7 2.0508762176816933e-7 0 1.9034927569419705e-7 0 0
          0.0000019590641082814375 -4.247001427971978e-7 0 -0.000004759186206161349 0 0
          -3.946395366366806e-8 -1.903372288570586e-8 0 0.000001176639239232552 0 0
          -2.498252334367377e-7 2.3592034396275285e-7 0 8.907522712922484e-7 0 0
          -2.027383712046768e-8 1.758460970151507e-8 0 1.198956982265689e-8 0 0
          0.000010100120441712107 -0.000011681129477459535 0 0.000001951169311995224 0 0
          -1.352684216654329e-7 1.3505337540559585e-7 0 1.5376922194097733e-7 0 0
          -0.0000022644780922836042 0.000002409189781333833 0 0.000007502849968396688 0 0
          0.000008268929481347342 -0.000011578704494578752 0 -0.000015579003467428714 0 0
          6.211542057785604e-7 -7.08062311448322e-7 0 -5.960713651777109e-7 0 0
          -5.116272883607193e-7 5.088872292776574e-7 0 1.2001659892552178e-7 0 0
          -0.000002676998572784409 0.000002819189026302049 0 0.000001973091560166959 0 0
          0.000060051856340077975 -0.000045209146573732684 0 0.000005082549211172447 0 0
          -0.000003225665370781129 0.000004029633293738312 0 0.00000879935361003938 0 0
          0.000013611349948098552 -0.00001656269744541777 0 0.000015692839627042153 0 0
          -0.00000558257312388244 0.0000048724582880803765 0 0.000004507743701710119 0 0
          -0.000008166171278791058 0.000009537097887889909 0 0.00009037767133672763 0 0
          -0.00001995068915803717 0.000019387856402652535 0 0.000023133996363798396 0 0
          -0.000008843186734640393 0.000009226123334921512 0 0.0000034867268530852605 0 0
          0.00005056963354557522 -0.00011904545000456476 0 0.0000012228983056445013 0 0
          0.000033560271654101995 -0.000024947261219430608 0 -0.00004702551420399372 0 0
          -0.000006364109054494312 0.0000027675405782380758 0 -0.000027101547061738127 0 0
          -0.000015483134928006065 0.000015685156610845914 0 -0.0000023960047092945973 0 0
          -0.00002750645335536476 0.00003881919644470933 0 0.00008167861848855751 0 0
          0.00019975877218667793 -0.0001604712950245194 0 0.000058505481352845044 0 0
          -0.00006484031632384457 0.0000669851335310327 0 0.00004229504742816243 0 0
          -0.000029025343659851587 0.000028212735741305618 0 0.0000015099107281521666 0 0
          <InformationKey name="L2_NORM_RANGE" location="vtkDataArray" length="2">
            <Value index="0">
              2.9393821706e-08
            </Value>
            <Value index="1">
              0.00026282597844
            </Value>
          </InformationKey>
        </DataArray>
      </PointData>
      <CellData>
        <DataArray type="UInt8" Name="vtkGhostType" format="ascii" RangeMin="0" RangeMax="0">
          0 0 0 0 0 0
          0 0 0 0 0 0
          0 0 0 0 0 0
          0 0 0 0 0 0
          0 0 0 0 0 0
          0 0 0 0 0 0
          0 0 0 0 0 0
          0 0 0 0 0 0
          0 0 0 0 0 0
          0 0 0 0 0 0
          0 0 0 0 0 0
          0 0 0 0 0 0
          0
        </DataArray>
        <DataArray type="Float64" Name="Velocity_SGS" NumberOfComponents="3" format="ascii" RangeMin="0" RangeMax="0.0055173183832548135">
          6.90603937966373e-310 6.90603937966373e-310 4.68262414359755e-310 0.0009716606279008943 0.0036987579649818574 0
          0.000014766773207387481 -0.001212455172317727 0 0.0006115783631876924 -0.002819910579492579 0
          -0.001363392879637439 0.001345277679887694 0 0.0012507034343855986 -0.00005208244200961826 0
          -0.0005325046241133252 0.001559404854363871 0 0.00028793389733058325 0.0020178149031908153 0
          -0.00005902991134287751 -0.0012177131780691207 0 0.0016233850522091304 -0.0011434194333430504 0
          0.00039072558419197786 -0.00039024461310734217 0 -0.0009396030822614258 -0.0002990116563553344 0
          -0.00030856206222027875 0.00006845501458434234 0 0.00031288477536475296 -0.00012360706331112945 0
          -0.0003892476181464917 -0.000098813187881322 0 -0.00019141266470047708 0.00004848789549124084 0
          0.0000346279043448658 0.00009025426069851187 0 0.000009793701108048783 -0.00002215892695764343 0
          0.000001352143193788179 -0.0000010326945356054749 0 0.0003496111959670332 0.0009229586255926805 0
          0.0001661579739190984 -0.00028948427875452403 0 0.00000459335726895529 0.00001918048218928613 0
          -0.0000011480107288457258 -0.00006400791847619724 0 0.0000016539117998547474 -5.278535182060711e-7 0
          0.00012313105183655128 0.00040543827612020823 0 0.00018172024714637798 -0.0008532810107776572 0
          -0.0006522370357641934 0.00038240249234143905 0 -0.0001503956849085434 0.0010202962138598066 0
          -0.00006740895514826533 0.0006193804066909146 0 0.00012255593216216608 -0.000040050088494288 0
          0.00010795329614005616 -0.00017220689206116408 0 -0.0000065216712980359045 0.00015058931813335797 0
          0.000015639599427836466 -0.00004275438677029937 0 -0.00003832892278981646 -0.00015828942840849004 0
          -0.000029061074481061897 -0.000023199765529647295 0 0.00004894125809455356 0.00001051766646878395 0
          -0.00029858700390503656 0.00015159603435379898 0 -0.00008699771270436126 0.000055423785320105116 0
          0.00010462591017748505 -0.00006947274274011513 0 -0.00016862628959716676 0.00012995639229357282 0
          -0.000015042610454435448 0.000027416053571321207 0 0.00004142073169287233 -0.000004575943883799308 0
          -0.00005551160019912086 0.000019149877756380745 0 -0.000019617329777202015 0.0000011349645107192135 0
          -0.0000064288192525467345 -0.000008401093238279681 0 -0.00010304754973367968 -0.000023539394614548387 0
          -0.000008408012073820686 0.000004691595019812559 0 -0.0002801176554002343 -0.0004052355873551241 0
          -0.0000613091792760093 0.000009393842930930745 0 -0.000001889529357243378 0.00004273868356258208 0
          0.00005209521684527581 0.000018795232894312995 0 0.00016428801159128428 0.00006646756338752897 0
          0.00017691549366857456 0.00016877541675727184 0 0.0003151690229922731 -0.0003808562346668945 0
          0.00002208421585845684 0.000001434780819919501 0 -0.00002859879691395776 -0.00002424852634677922 0
          0.000006731034944504967 -0.000007085262264182659 0 0.000006354792716091456 -0.0000221381059172282 0
          -0.000021877507306146372 0.000005600312904498032 0 0.0000019960750669428563 0.000011675476570595652 0
          0.000005999736684400381 -0.0000019397119822829606 0 0.000002024720454442174 0.000003094106090288093 0
          0.000006373408788247053 -0.000005966378769990929 0 -0.00000868429229044448 -0.000007484622054140073 0
          2.9761367321404804e-7 0.000011405398162356038 0 -0.0000023831877142638453 -0.000004704403145862289 0
          0.000008974193629552688 0.000008050595414001895 0 0.003906567648539812 -0.0038960918045630854 0
          -0.000031759342011918046 0.003977930362742211 0 -0.0030843438744244897 0.002571329705672072 0
          0.0015187680824927867 -0.002928718466101514 0 -0.002836574533273882 -0.0005842960993540877 0
          0.000019452575405520963 0.0022556040572444622 0 0.000034131887884909654 -0.001239123994757276 0
          <InformationKey name="L2_NORM_RANGE" location="vtkDataArray" length="2">
            <Value index="0">
              0
            </Value>
            <Value index="1">
              0.0055173183833
            </Value>
          </InformationKey>
        </DataArray>
      </CellData>
      <Points>
        <DataArray type="Float32" Name="Points" NumberOfComponents="3" format="ascii" RangeMin="5.920709263879467" RangeMax="16.492422502470642">
          16 -4 0 14.545454025268555 -4 0
          16 -2.4000000953674316 0 13.818181991577148 -2.7009618282318115 0
          13.090909004211426 -4 0 16 -0.800000011920929 0
          14.271505355834961 -1.146686315536499 0 12.363636016845703 -2.7009618282318115 0
          15.047001838684082 0.13715402781963348 0 12.772308349609375 -1.1155608892440796 0
          11.636363983154297 -4 0 16 0.800000011920929 0
          13.547407150268555 0.16641846299171448 0 11.280959129333496 -1.061901330947876 0
          14.588034629821777 1.4168537855148315 0 10.558568954467773 -2.354511022567749 0
          12.049510955810547 0.19002920389175415 0 10.181818008422852 -4 0
          13.090909004211426 1.4019237756729126 0 16 2.4000000953674316 0
          10.582230567932129 0.11868668347597122 0 9.802840232849121 -1.1505086421966553 0
          13.818181991577148 2.7009618282318115 0 9.158483505249023 -2.108525514602661 0
          11.25278377532959 1.451863169670105 0 12.363636016845703 2.7009618282318115 0
          16 4 0 9.092836380004883 0.12193738669157028 0
          14.545454025268555 4 0 9.840368270874023 1.4193470478057861 0
          8.356465339660645 -0.9738070964813232 0 10.909090995788574 2.7009618282318115 0
          13.090909004211426 4 0 11.636363983154297 4 0
          7.773712158203125 0.06892196089029312 0 8.90578556060791 2.2909152507781982 0
          7.956461429595947 1.1881567239761353 0 10.181818008422852 4 0
          6.861466884613037 1.2402846813201904 0 7.45475435256958 2.399545669555664 0
          8.727272987365723 4 0 6.693774223327637 0.02548009343445301 0
          7.1708574295043945 -0.8281394839286804 0 7.805444717407227 -1.7921322584152222 0
          8.727272987365723 -4 0 5.713908672332764 1.5511434078216553 0
          6.099924564361572 0.7551726698875427 0 6.337732315063477 2.693572759628296 0
          7.2727274894714355 4 0
          <InformationKey name="L2_NORM_RANGE" location="vtkDataArray" length="2">
            <Value index="0">
              5.9207092639
            </Value>
            <Value index="1">
              16.492422502
            </Value>
          </InformationKey>
        </DataArray>
      </Points>
      <Cells>
        <DataArray type="Int64" Name="connectivity" format="ascii" RangeMin="0" RangeMax="48">
          41 42 34 34 42 30
          41 34 38 42 43 30
          30 43 23 34 30 27
          36 38 34 36 34 27
          39 36 35 27 30 21
          23 43 44 30 23 21
          21 23 15 15 23 17
          21 15 13 10 4 7
          28 32 22 1 0 2
          44 17 23 33 37 31
          4 1 3 32 33 25
          26 28 19 17 10 15
          37 40 35 35 36 27
          39 35 40 27 21 20
          13 15 7 21 13 20
          20 13 16 16 13 9
          20 16 24 7 4 3
          7 3 9 31 37 35
          25 33 31 25 31 24
          24 31 29 22 32 25
          22 25 18 18 25 24
          22 18 14 3 1 2
          10 7 15 28 22 19
          27 20 29 9 13 7
          16 9 12 24 16 18
          20 24 29 29 31 35
          29 35 27 14 18 12
          12 18 16 22 14 19
          12 9 6 6 9 3
          12 6 8 8 6 5
          8 5 11 8 11 14
          8 14 12 14 11 19
          2 5 6 6 3 2
          45 46 38 46 41 38
          47 45 38 47 38 39
          39 38 36 47 39 48
          40 48 39
        </DataArray>
        <DataArray type="Int64" Name="offsets" format="ascii" RangeMin="3" RangeMax="219">
          3 6 9 12 15 18
          21 24 27 30 33 36
          39 42 45 48 51 54
          57 60 63 66 69 72
          75 78 81 84 87 90
          93 96 99 102 105 108
          111 114 117 120 123 126
          129 132 135 138 141 144
          147 150 153 156 159 162
          165 168 171 174 177 180
          183 186 189 192 195 198
          201 204 207 210 213 216
          219
        </DataArray>
        <DataArray type="UInt8" Name="types" format="ascii" RangeMin="5" RangeMax="5">
          5 5 5 5 5 5
          5 5 5 5 5 5
          5 5 5 5 5 5
          5 5 5 5 5 5
          5 5 5 5 5 5
          5 5 5 5 5 5
          5 5 5 5 5 5
          5 5 5 5 5 5
          5 5 5 5 5 5
          5 5 5 5 5 5
          5 5 5 5 5 5
          5 5 5 5 5 5
          5
        </DataArray>
      </Cells>
    </Piece>
  </UnstructuredGrid>
</VTKFile>
