<?xml version="1.0"?>
<VTKFile type="UnstructuredGrid" version="0.1" byte_order="LittleEndian" header_type="UInt32" compressor="vtkZLibDataCompressor">
  <UnstructuredGrid>
    <Piece NumberOfPoints="52" NumberOfCells="77">
      <PointData>
        <DataArray type="Float64" Name="nsi_SBC" NumberOfComponents="3" format="ascii" RangeMin="0" RangeMax="0">
          0 0 0 0 0 0
          0 0 0 0 0 0
          0 0 0 0 0 0
          0 0 0 0 0 0
          0 0 0 0 0 0
          0 0 0 0 0 0
          0 0 0 0 0 0
          0 0 0 0 0 0
          0 0 0 0 0 0
          0 0 0 0 0 0
          0 0 0 0 0 0
          0 0 0 0 0 0
          0 0 0 0 0 0
          0 0 0 0 0 0
          0 0 0 0 0 0
          0 0 0 0 0 0
          0 0 0 0 0 0
          0 0 0 0 0 0
          0 0 0 0 0 0
          0 0 0 0 0 0
          0 0 0 0 0 0
          0 0 0 0 0 0
          0 0 0 0 0 0
          0 0 0 0 0 0
          0 0 0 0 0 0
          0 0 0 0 0 0
          <InformationKey name="L2_NORM_RANGE" location="vtkDataArray" length="2">
            <Value index="0">
              0
            </Value>
            <Value index="1">
              0
            </Value>
          </InformationKey>
        </DataArray>
        <DataArray type="Float64" Name="nsi_SFIXNO" NumberOfComponents="3" format="ascii" RangeMin="0" RangeMax="1.7320508075688772">
          -1 -1 -1 -1 -1 -1
          -1 -1 -1 -1 -1 -1
          0 0 0 -1 -1 -1
          -1 -1 -1 -1 -1 -1
          0 0 0 -1 -1 -1
          0 0 0 -1 -1 -1
          0 0 0 0 0 0
          -1 -1 -1 -1 -1 -1
          -1 -1 -1 -1 -1 -1
          -1 -1 -1 -1 -1 -1
          -1 -1 -1 -1 -1 -1
          -1 -1 -1 0 0 0
          -1 -1 -1 -1 -1 -1
          -1 -1 -1 -1 -1 -1
          -1 -1 -1 0 0 0
          -1 -1 -1 -1 -1 -1
          -1 -1 -1 -1 -1 -1
          0 0 0 0 0 0
          0 0 0 0 0 0
          0 0 0 0 0 0
          -1 -1 -1 0 0 0
          -1 -1 -1 -1 -1 -1
          -1 -1 -1 -1 -1 -1
          -1 -1 -1 0 0 0
          -1 -1 -1 -1 -1 -1
          -1 -1 -1 0 0 0
          <InformationKey name="L2_NORM_RANGE" location="vtkDataArray" length="2">
            <Value index="0">
              0
            </Value>
            <Value index="1">
              1.7320508076
            </Value>
          </InformationKey>
        </DataArray>
        <DataArray type="Float64" Name="nsi_UBC" NumberOfComponents="3" format="ascii" RangeMin="0" RangeMax="1">
          0 0 0 0 0 0
          0 0 0 0 0 0
          0 0 0 0 0 0
          0 0 0 0 0 0
          0 0 0 0 0 0
          0 0 0 0 0 0
          0 0 0 0 0 0
          0 0 0 0 0 0
          0 0 0 0 0 0
          0 0 0 0 0 0
          0 0 0 0 0 0
          0 0 0 0 0 0
          0 0 0 0 0 0
          0 0 0 0 0 0
          0 0 0 0 0 0
          0 0 0 0 0 0
          0 0 0 0 0 0
          1 0 0 0 0 0
          1 0 0 1 0 0
          1 0 0 0 0 0
          0 0 0 0 0 0
          0 0 0 0 0 0
          0 0 0 0 0 0
          0 0 0 0 0 0
          0 0 0 0 0 0
          0 0 0 1 0 0
          <InformationKey name="L2_NORM_RANGE" location="vtkDataArray" length="2">
            <Value index="0">
              0
            </Value>
            <Value index="1">
              1
            </Value>
          </InformationKey>
        </DataArray>
        <DataArray type="Float64" Name="nsi_UFIXNO" NumberOfComponents="3" format="ascii" RangeMin="1" RangeMax="1.4142135623730951">
          -1 -1 0 -1 -1 0
          -1 -1 0 -1 -1 0
          0 1 0 -1 -1 0
          -1 -1 0 -1 -1 0
          1 1 0 -1 -1 0
          0 1 0 -1 -1 0
          1 1 0 1 1 0
          -1 -1 0 -1 -1 0
          -1 -1 0 -1 -1 0
          -1 -1 0 -1 -1 0
          -1 -1 0 -1 -1 0
          -1 -1 0 0 1 0
          -1 -1 0 -1 -1 0
          -1 -1 0 -1 -1 0
          -1 -1 0 0 1 0
          -1 -1 0 -1 -1 0
          -1 -1 0 -1 -1 0
          1 1 0 0 1 0
          1 1 0 1 1 0
          1 1 0 1 1 0
          -1 -1 0 1 1 0
          -1 -1 0 -1 -1 0
          -1 -1 0 -1 -1 0
          -1 -1 0 0 1 0
          -1 -1 0 -1 -1 0
          -1 -1 0 1 1 0
          <InformationKey name="L2_NORM_RANGE" location="vtkDataArray" length="2">
            <Value index="0">
              1
            </Value>
            <Value index="1">
              1.4142135624
            </Value>
          </InformationKey>
        </DataArray>
      </PointData>
      <CellData>
        <DataArray type="UInt8" Name="vtkGhostType" format="ascii" RangeMin="0" RangeMax="1">
          1 0 0 1 0 0
          1 0 0 0 0 0
          1 0 0 1 0 0
          0 0 0 1 1 0
          1 0 1 0 1 1
          0 1 1 0 0 1
          0 0 0 1 0 0
          0 0 1 0 0 0
          0 0 0 0 0 0
          1 1 0 0 0 1
          0 0 0 0 0 0
          0 0 0 0 0 0
          1 1 0 0 0
        </DataArray>
      </CellData>
      <Points>
        <DataArray type="Float32" Name="Points" NumberOfComponents="3" format="ascii" RangeMin="0.800000011920929" RangeMax="9.600275714582546">
          6.099924564361572 0.7551726698875427 0 5.713908672332764 1.5511434078216553 0
          5.287501811981201 0.7392560243606567 0 6.337732315063477 2.693572759628296 0
          7.2727274894714355 4 0 4.789450168609619 0.455789178609848 0
          4.914334297180176 1.5619853734970093 0 4.5937981605529785 0.9171930551528931 0
          4.25 0.4330126941204071 0 5.075174808502197 2.6770246028900146 0
          5.818181991577148 4 0 4 0.911578357219696 0
          3.75 0.4330126941204071 0 3.5 5.794379420720475e-10 0
          4.003536701202393 1.4846373796463013 0 4.304850101470947 2.216280698776245 0
          3.502586603164673 0.9728408455848694 0 3.21055006980896 0.455789178609848 0
          2.9087884426116943 0.055647801607847214 0 4.017580509185791 3.097895622253418 0
          3.513624668121338 2.259860038757324 0 3.104448080062866 1.572829246520996 0
          2.7160346508026123 0.7453813552856445 0 4.363636493682861 4 0
          2.1901140213012695 0.010843842290341854 0 2.996014356613159 2.9170591831207275 0
          2.296038866043091 1.4410018920898438 0 2.5660502910614014 2.144286870956421 0
          1.7997161149978638 0.7087167501449585 0 2.909090995788574 4 0
          1.1272525787353516 -0.07592880725860596 0 1.57744562625885 1.767566442489624 0
          1.9087296724319458 2.9074037075042725 0 0.8291426301002502 0.8281394839286804 0
          0 -0.800000011920929 0 1.454545497894287 4 0
          0 0.800000011920929 0 0 2.4000000953674316 0
          0 4 0 3.75 -0.4330126941204071 0
          3.21055006980896 -0.455789178609848 0 4.5 0 0
          5.091211795806885 -0.055647801607847214 0 5.8098859786987305 -0.010843837633728981 0
          6.693774223327637 0.02548009343445301 0 6.861466884613037 1.2402846813201904 0
          7.45475435256958 2.399545669555664 0 8.727272987365723 4 0
          2.712498188018799 -0.7392560243606567 0 1.9000751972198486 -0.7551726698875427 0
          1.1717199087142944 -1.3240290880203247 0 0 -2.4000000953674316 0
          <InformationKey name="L2_NORM_RANGE" location="vtkDataArray" length="2">
            <Value index="0">
              0.80000001192
            </Value>
            <Value index="1">
              9.6002757146
            </Value>
          </InformationKey>
        </DataArray>
      </Points>
      <Cells>
        <DataArray type="Int64" Name="connectivity" format="ascii" RangeMin="0" RangeMax="51">
          39 13 40 12 8 11
          13 12 17 8 41 5
          11 8 7 17 12 16
          5 41 42 12 11 16
          16 11 14 8 5 7
          7 5 2 11 7 14
          5 42 2 7 2 6
          6 2 1 42 43 2
          7 6 14 1 2 0
          6 1 9 15 14 6
          15 6 9 0 2 43
          0 43 44 9 1 3
          1 0 45 15 9 19
          0 44 45 23 19 9
          3 1 45 3 45 46
          9 3 10 3 46 4
          47 4 46 10 23 9
          4 10 3 40 13 18
          13 17 18 18 17 22
          17 16 22 40 18 48
          18 22 24 16 14 21
          24 22 28 21 14 20
          18 24 48 16 21 22
          20 14 15 28 22 26
          21 20 27 24 28 30
          26 22 21 26 21 27
          27 20 25 30 28 33
          49 48 24 49 24 30
          28 26 31 20 15 19
          26 27 31 49 30 50
          25 20 19 25 19 29
          33 28 31 33 31 37
          27 25 32 30 36 34
          32 25 29 29 19 23
          27 32 31 32 29 35
          32 35 37 35 38 37
          50 30 34 50 34 51
          37 31 32 37 36 33
          33 36 30
        </DataArray>
        <DataArray type="Int64" Name="offsets" format="ascii" RangeMin="3" RangeMax="231">
          3 6 9 12 15 18
          21 24 27 30 33 36
          39 42 45 48 51 54
          57 60 63 66 69 72
          75 78 81 84 87 90
          93 96 99 102 105 108
          111 114 117 120 123 126
          129 132 135 138 141 144
          147 150 153 156 159 162
          165 168 171 174 177 180
          183 186 189 192 195 198
          201 204 207 210 213 216
          219 222 225 228 231
        </DataArray>
        <DataArray type="UInt8" Name="types" format="ascii" RangeMin="5" RangeMax="5">
          5 5 5 5 5 5
          5 5 5 5 5 5
          5 5 5 5 5 5
          5 5 5 5 5 5
          5 5 5 5 5 5
          5 5 5 5 5 5
          5 5 5 5 5 5
          5 5 5 5 5 5
          5 5 5 5 5 5
          5 5 5 5 5 5
          5 5 5 5 5 5
          5 5 5 5 5 5
          5 5 5 5 5
        </DataArray>
      </Cells>
    </Piece>
  </UnstructuredGrid>
</VTKFile>
