<?xml version="1.0"?>
<VTKFile type="UnstructuredGrid" version="0.1" byte_order="LittleEndian" header_type="UInt32" compressor="vtkZLibDataCompressor">
  <UnstructuredGrid>
    <Piece NumberOfPoints="55" NumberOfCells="83">
      <PointData>
        <DataArray type="Float64" Name="nsi_SBC" NumberOfComponents="3" format="ascii" RangeMin="0" RangeMax="0">
          0 0 0 0 0 0
          0 0 0 0 0 0
          0 0 0 0 0 0
          0 0 0 0 0 0
          0 0 0 0 0 0
          0 0 0 0 0 0
          0 0 0 0 0 0
          0 0 0 0 0 0
          0 0 0 0 0 0
          0 0 0 0 0 0
          0 0 0 0 0 0
          0 0 0 0 0 0
          0 0 0 0 0 0
          0 0 0 0 0 0
          0 0 0 0 0 0
          0 0 0 0 0 0
          0 0 0 0 0 0
          0 0 0 0 0 0
          0 0 0 0 0 0
          0 0 0 0 0 0
          0 0 0 0 0 0
          0 0 0 0 0 0
          0 0 0 0 0 0
          0 0 0 0 0 0
          0 0 0 0 0 0
          0 0 0 0 0 0
          0 0 0 0 0 0
          0 0 0
          <InformationKey name="L2_NORM_RANGE" location="vtkDataArray" length="2">
            <Value index="0">
              0
            </Value>
            <Value index="1">
              0
            </Value>
          </InformationKey>
        </DataArray>
        <DataArray type="Float64" Name="nsi_SFIXNO" NumberOfComponents="3" format="ascii" RangeMin="0" RangeMax="1.7320508075688772">
          0 0 0 -1 -1 -1
          0 0 0 -1 -1 -1
          -1 -1 -1 -1 -1 -1
          -1 -1 -1 0 0 0
          -1 -1 -1 -1 -1 -1
          -1 -1 -1 -1 -1 -1
          -1 -1 -1 -1 -1 -1
          -1 -1 -1 -1 -1 -1
          0 0 0 -1 -1 -1
          -1 -1 -1 -1 -1 -1
          0 0 0 -1 -1 -1
          0 0 0 -1 -1 -1
          -1 -1 -1 -1 -1 -1
          0 0 0 -1 -1 -1
          0 0 0 -1 -1 -1
          -1 -1 -1 -1 -1 -1
          -1 -1 -1 -1 -1 -1
          -1 -1 -1 -1 -1 -1
          -1 -1 -1 0 0 0
          -1 -1 -1 0 0 0
          0 0 0 -1 -1 -1
          -1 -1 -1 -1 -1 -1
          -1 -1 -1 0 0 0
          0 0 0 0 0 0
          -1 -1 -1 -1 -1 -1
          -1 -1 -1 -1 -1 -1
          -1 -1 -1 -1 -1 -1
          0 0 0
          <InformationKey name="L2_NORM_RANGE" location="vtkDataArray" length="2">
            <Value index="0">
              0
            </Value>
            <Value index="1">
              1.7320508076
            </Value>
          </InformationKey>
        </DataArray>
        <DataArray type="Float64" Name="nsi_UBC" NumberOfComponents="3" format="ascii" RangeMin="0" RangeMax="1">
          0 0 0 0 0 0
          0 0 0 0 0 0
          0 0 0 0 0 0
          0 0 0 0 0 0
          0 0 0 0 0 0
          0 0 0 0 0 0
          0 0 0 0 0 0
          0 0 0 0 0 0
          0 0 0 0 0 0
          0 0 0 0 0 0
          0 0 0 0 0 0
          0 0 0 0 0 0
          0 0 0 0 0 0
          0 0 0 0 0 0
          0 0 0 0 0 0
          0 0 0 0 0 0
          0 0 0 0 0 0
          0 0 0 0 0 0
          0 0 0 0 0 0
          0 0 0 1 0 0
          1 0 0 0 0 0
          0 0 0 0 0 0
          0 0 0 0 0 0
          0 0 0 0 0 0
          0 0 0 0 0 0
          0 0 0 0 0 0
          0 0 0 0 0 0
          1 0 0
          <InformationKey name="L2_NORM_RANGE" location="vtkDataArray" length="2">
            <Value index="0">
              0
            </Value>
            <Value index="1">
              1
            </Value>
          </InformationKey>
        </DataArray>
        <DataArray type="Float64" Name="nsi_UFIXNO" NumberOfComponents="3" format="ascii" RangeMin="1" RangeMax="1.4142135623730951">
          0 1 0 -1 -1 0
          0 1 0 -1 -1 0
          -1 -1 0 -1 -1 0
          -1 -1 0 0 1 0
          -1 -1 0 -1 -1 0
          -1 -1 0 -1 -1 0
          -1 -1 0 -1 -1 0
          -1 -1 0 -1 -1 0
          0 1 0 -1 -1 0
          -1 -1 0 -1 -1 0
          1 1 0 -1 -1 0
          1 1 0 -1 -1 0
          -1 -1 0 -1 -1 0
          1 1 0 -1 -1 0
          0 1 0 -1 -1 0
          -1 -1 0 -1 -1 0
          -1 -1 0 -1 -1 0
          -1 -1 0 -1 -1 0
          -1 -1 0 0 1 0
          -1 -1 0 1 1 0
          1 1 0 -1 -1 0
          -1 -1 0 -1 -1 0
          -1 -1 0 0 1 0
          1 1 0 1 1 0
          -1 -1 0 -1 -1 0
          -1 -1 0 -1 -1 0
          -1 -1 0 -1 -1 0
          1 1 0
          <InformationKey name="L2_NORM_RANGE" location="vtkDataArray" length="2">
            <Value index="0">
              1
            </Value>
            <Value index="1">
              1.4142135624
            </Value>
          </InformationKey>
        </DataArray>
        <DataArray type="Float64" Name="Velocity" NumberOfComponents="3" format="ascii" RangeMin="0" RangeMax="1.6044575168095443">
          1.0058780367107025 0 0 1.0015271448802958 0.009334194331990708 0
          1.0168239369101084 0 0 1.0080440409264746 0.01154329417000713 0
          0.9862654678540954 0.01639780384669113 0 1.0014596324617646 0.026955165076580547 0
          0.9744695772820643 -0.0018603903179295347 0 1.030455007163445 0 0
          0.971849131881823 0.02500279396342277 0 1.036390264138665 0.025482730084875695 0
          1.001214222320033 0.062220501849532095 0 0.8644990664069112 -0.004095737185690978 0
          1.0480808379125544 0.012293972281299553 0 0.9816074521224069 0.16433503577384287 0
          1.041946300258796 0.08498465779956836 0 0.6978199118876434 0.024650883703712403 0
          1.0393641191778236 0 0 1.0709047876624325 0.009160284101661389 0
          0.785798552646225 0.46860787411302396 0 1.3914319912889919 0.2443092605452543 0
          0 0 0 1.1386515315430747 -0.008256351434915096 0
          0 0 0 1.5963200755471758 -0.1613881645341675 0
          1.0489606178202484 -0.01079329110972288 0 1.0676522353665896 -0.008263519287126707 0
          0 0 0 1.2563729284283571 -0.25720196912793614 0
          1.0502840451506041 0 0 1.0068273871453697 -0.0981031195290675 0
          0.8706674512503921 -0.3679046742818257 0 1.0599090781018508 -0.012074393116897146 0
          0.961402313390375 -0.059019463268379216 0 1.0545809137469515 -0.013464697558908181 0
          1.005412507278819 -0.02008125115712917 0 0.9485877815761123 -0.025467589466340992 0
          0.9647440892482915 -0.02084233289257471 0 0.9654579884749309 0 0
          0.9235575216457376 -0.06625448230333629 0 0.9999999999779422 0 0
          0.999999999977942 0 0 0.9849817347540903 -0.0023802449453475837 0
          0.9962824084887995 0.005015868696840863 0 0.9930865938149414 -0.02315915361188166 0
          0.9998850497817263 0.0033858351591082563 0 1.002160134983171 0 0
          0 0 0 0 0 0
          0.7632125565420259 -0.4577054840802244 0 0.979912228191924 -0.15329268375458877 0
          0.9683376203823865 -0.028648255526389298 0 0.8915323557636959 0.02061570742172585 0
          0.8910794562877731 0.009901786777515326 0 0.8885521804625591 -0.009369188912453 0
          0.9999999999779418 0 0
          <InformationKey name="L2_NORM_RANGE" location="vtkDataArray" length="2">
            <Value index="0">
              0
            </Value>
            <Value index="1">
              1.6044575168
            </Value>
          </InformationKey>
        </DataArray>
        <DataArray type="Float64" Name="Pressure" format="ascii" RangeMin="-75.53453924144958" RangeMax="-29.08694878232506">
          -36.358567043939054 -40.968894880690115 -43.62304478541274 -44.94814976213167 -44.14852928893199 -46.62868639100443
          -46.59915034824993 -50.891857410752955 -48.970051004307116 -51.83524654087607 -51.492486115010614 -50.87945693202595
          -55.600295878658685 -53.639986204196724 -55.48873011089849 -54.91076104407004 -58.097542193562845 -57.47119227434707
          -56.713581410014434 -57.8980603854139 -57.52747512367422 -59.973149086271896 -59.066318925293665 -60.29019113197693
          -62.022989748932396 -61.8831616166832 -61.192539634776985 -62.52761952082813 -65.48655947266342 -64.35640525420081
          -63.151880364277545 -66.56961817146939 -65.75253234849836 -69.13783407973932 -68.35364286345141 -71.18209664047811
          -70.05741612864635 -72.3964191166427 -73.12408366252559 -74.91199795979463 -75.53453924144958 -41.13365928230415
          -38.2190585803053 -45.693516842351066 -34.20430002023093 -29.08694878232506 -62.12797159056254 -58.973394826480906
          -56.64527561918942 -53.56799454310159 -49.463346959856615 -64.24942226583833 -68.4908578073184 -73.32690081419523
          -75.4031578639939
        </DataArray>
        <DataArray type="Float64" Name="Sigma" NumberOfComponents="6" format="ascii" RangeMin="0.000010262152912039548" RangeMax="0.03793413294956348">
          -0.00002901471049201174 0.000029804642845048184 0 -0.000008001196658484651 0 0
          -0.000005178466953205018 0.00000450850694025031 0 -0.00005468117289035015 0 0
          -0.00011447230002336229 0.00010709817322985408 0 -0.00007255863902657527 0 0
          -0.000012650942166987251 0.00001706423424573649 0 -0.0000027489557753229208 0 0
          0.000009656716791160071 -0.000007514425006315162 0 -0.00010309546146787951 0 0
          -0.00010072639620768099 0.00009684892643969103 0 -0.00021529666517049355 0 0
          0.0002524621855979091 -0.0002827268597207564 0 0.000012758779135879265 0 0
          -0.00012878064363003365 0.00012771329965021718 0 -0.000011082284423362127 0 0
          0.0004091432661797887 -0.00036727969388312487 0 -0.00015691378455387839 0 0
          -0.00023013425371883438 0.0002187488116336949 0 -0.00009665634144672164 0 0
          0.000016694413363970894 -0.000005532898676836879 0 -0.00006963501647768371 0 0
          0.001054777843071738 -0.000908044222209603 0 0.000005107720575687973 0 0
          0.00005420548324403619 -0.00003755325904203641 0 0.00009281780378933948 0 0
          -0.0017939322176266069 0.0015943136511374556 0 -0.002638192951382596 0 0
          -0.0008884346986069802 0.001025697762794752 0 0.000250935557599167 0 0
          0.005957531408051363 -0.0051997129984551966 0 -0.0003724763539719729 0 0
          -0.000012380267110209585 0.000027012573688777932 0 0.00003755302784413545 0 0
          -0.0001160969275561904 0.00009396147243594417 0 0.00013438418383078678 0 0
          0.0016712474882548919 0.0014476874706767528 0 -0.003956985424532785 0 0
          -0.0021526669347377587 0.0022171889225740685 0 0.0022792003830155822 0 0
          0.022510222649255555 -0.020002602795886715 0 0.00026058918374560004 0 0
          0.00015049247177159343 -0.000016205312660118117 0 0.0018882060217253675 0 0
          0.0009226907968828198 -0.00018496866967356696 0 -0.016501201052715776 0 0
          0.00546936873001708 -0.0027308648046478856 0 0.007431128244329519 0 0
          -0.00014183947697946306 0.00010489566239297438 0 0.00014170855941075025 0 0
          0.0003083766911801866 -0.0003510131082365343 0 -0.00003715260175867914 0 0
          0.00048352891023811616 0.003717904779916787 0 -0.01224111652655429 0 0
          0.0024710843380133817 -0.0025007365437057574 0 -0.002408406334736752 0 0
          0.0001854305860993639 -0.00018492776641371866 0 0.000007262776619761396 0 0
          0.0010523125867863776 -0.0010556378392289087 0 0.00030848289082968075 0 0
          0.006470316740923873 -0.006797350587227782 0 -0.0042538899730836365 0 0
          -0.00034423518631007574 0.00039093205862698074 0 -0.00023556060489730927 0 0
          -0.0014834262666894643 0.001375655917401081 0 -0.0010957738455397853 0 0
          0.0005250103526980408 -0.0004371830666726825 0 0.000034804491894646144 0 0
          0.0006817719677592842 -0.0006399946194521333 0 -0.0005412123465376963 0 0
          0.001244813638399501 -0.0013381453118006801 0 0.00018270034632675611 0 0
          0.00041044963334010525 -0.0002652050192486509 0 0.000392362242398609 0 0
          -0.0014312420608932363 0.0012422613091807619 0 0.0006410857944179442 0 0
          -0.0011692259557068206 0.0009958715803602665 0 -0.0004958710931420087 0 0
          0.0037599160920248117 -0.0036077734493819 0 -0.00009961878419574959 0 0
          -0.00014899771745332163 0.000558351546564353 0 -0.0001670591711745088 0 0
          0.00010387906403913139 -0.00009709341631907484 0 0.000012477157522792713 0 0
          0.000028818277802356464 -0.000029331836929992683 0 -0.000033352171580897035 0 0
          -0.000026917592096519305 0.000022325701684614693 0 0.0001686456420469329 0 0
          -0.0000019483220383304387 0.0000019177096604428574 0 -0.000009891320098110355 0 0
          -0.000013919254828472351 0.000013850657548964865 0 -0.000011428863018462454 0 0
          -0.021741437031364393 0.03108543642044795 0 -0.0000632534320239121 0 0
          0.002447010711842612 -0.0014964262644679717 0 0.015602466832382198 0 0
          0.0011157062106348847 0.0019601617832312305 0 0.004150662333127203 0 0
          -0.0014072752399705076 0.0011510343274989676 0 0.0025955489723163477 0 0
          0.00033975545931205184 -0.00028390412005954436 0 0.00016899280363737588 0 0
          -0.002423255710931382 0.002372820340540154 0 0.0003438416265590222 0 0
          -0.0003480538931640344 0.0003350219247356179 0 -0.00032443598879425804 0 0
          -0.0011787658838544551 0.000980902938302668 0 0.00020443730251320196 0 0
          0.0014896182109033682 -0.0010307611407527762 0 0.000021973387212559764 0 0
          <InformationKey name="L2_NORM_RANGE" location="vtkDataArray" length="2">
            <Value index="0">
              1.0262152912e-05
            </Value>
            <Value index="1">
              0.03793413295
            </Value>
          </InformationKey>
        </DataArray>
      </PointData>
      <CellData>
        <DataArray type="UInt8" Name="vtkGhostType" format="ascii" RangeMin="0" RangeMax="1">
          0 0 0 1 1 1
          0 1 1 0 0 1
          0 0 1 0 0 0
          0 0 0 0 0 0
          0 0 0 0 0 0
          0 0 0 0 0 0
          0 0 0 0 0 0
          0 0 0 0 0 0
          0 0 0 0 0 0
          1 0 0 0 0 0
          0 0 0 0 0 0
          0 0 0 0 0 0
          0 0 0 0 0 0
          0 0 0 0 0
        </DataArray>
        <DataArray type="Float64" Name="Velocity_SGS" NumberOfComponents="3" format="ascii" RangeMin="0" RangeMax="0.7356384911093472">
          6.91631931515773e-310 6.91631931515773e-310 4.6487884420671e-310 0.0038533122241735654 0.005147328318097592 0
          -0.0013243993938431287 -0.0016118223144520293 0 0.0013506717852595207 -0.0010287785083001317 0
          -0.003933177297963714 0.005191318444947974 0 0.0009696706825882747 -0.001507041749353417 0
          -0.003738943234176679 -0.004721091265777251 0 -0.00315830536449455 0.0009332381528923848 0
          -0.0017316158597465482 0.00035533865663393946 0 0.00103889146928074 0.00014857210861226314 0
          0.0027487930236073568 -0.0008115626246403005 0 0.0022421391041022283 0.00022629801944882297 0
          -0.0011856074565070897 -0.0003179725431719716 0 0.0006552223701469827 0.0012894890023710838 0
          -0.00121365459771769 -0.00028564333105419396 0 0.00021661353630917605 0.0007835818245625851 0
          -0.004847284365808231 0.0008116236957894617 0 0.31686454261036495 0.12740176124975733 0
          0.43089350226202977 -0.294478657606078 0 0.7354114632179796 -0.018274828842630094 0
          0.36281547694400973 -0.15665864000967572 0 0.06201183757433104 -0.027149378776944615 0
          0.05271555405599499 -0.16243980099302888 0 -0.05012578453172245 0.017166377647417935 0
          -0.03001833075770574 -0.017379150050485015 0 -0.03891728231689376 0.03677401896304694 0
          0.22285872840490362 -0.07330041716150343 0 -0.11062637830477125 0.010683124269966357 0
          0.12961027986223345 0.05852024832648475 0 -0.01691406122672138 -0.06267582234394703 0
          -0.011648928018612396 0.0812938335799647 0 -0.0545143044912732 0.0923271389971108 0
          -0.05190984857070066 -0.0396042450996663 0 -0.006689397140531631 0.030761949409619925 0
          -0.012588925484822185 0.03304217125123797 0 -0.023448829248966553 0.04148318671111407 0
          0.007495247594769142 -0.018958135109631097 0 0.014667267605620876 -0.012032594128996323 0
          0.0062367983105615366 -0.023352259325931195 0 0.015814978040188443 -0.006681545621904227 0
          0.014246584131057914 -0.04658786103269594 0 -0.009396799850550225 -0.00520245619631377 0
          -0.005337941064472176 0.007994783408906251 0 -0.001003581991279907 0.010929894487352865 0
          -0.0008740202609084577 0.0038612699410545733 0 0.013274024005036768 -0.003632592237687752 0
          0.00043339417025513 -0.007423218907103611 0 0.01270338082135132 0.014919122742340656 0
          -0.00007769704241777009 -0.008456383348210092 0 0.0036849916832081553 -0.004378207010373803 0
          0.0075614860296031655 0.003985797072289351 0 -0.003891957253053356 -0.008925286585839562 0
          0.002570817384177798 -0.0004406866248114355 0 0.0030758159103164012 -0.003431105623716313 0
          -0.006602322268613841 0.005345599096083777 0 0.0026481370076109198 -0.002875903335616994 0
          -0.0015350778457808804 0.005297543664870707 0 -0.004699912788995338 0.0011103271508616816 0
          0.002200001097358922 0.0008401208345671852 0 0.005679801380070672 0.002217497265078384 0
          -0.001958211321779759 -0.003168646300390169 0 -0.00011405560361292533 0.0029908630215782443 0
          -0.002880558021680559 -0.004917901552409103 0 -0.004367374522493075 -0.00025703674259841124 0
          0.07493103594555164 -0.04831844729037196 0 -0.045537715922704496 0.0951870195952721 0
          0.032555338551602524 -0.030773476841235943 0 -0.03900466215607322 -0.052334832988055364 0
          -0.02090227896142401 -0.015623122353314263 0 -0.012573773505717506 0.018973272911287153 0
          -0.000029755065215889372 0.02128978780580487 0 0.02700994452243822 -0.02343429427533101 0
          0.013026430388644006 0.006637044394046989 0 0.005415400032919597 0.009340755416706235 0
          0.01912146625412156 0.002512058524591093 0 0.008660233239234634 0.015027846805472048 0
          0.021678055426492968 -0.04882942752558985 0 0.007819636258493277 -0.013490864484170889 0
          0.01386888997046034 -0.002533581171270842 0 -0.0011983980382532823 0.021582409554226432 0
          0.05333223817050054 -0.0413813747134549 0 -0.027554205318252346 -0.005291247740837073 0
          0.07999707939309153 0.014583515474596307 0 -0.0005378896066838487 0.021866672265578677 0
          <InformationKey name="L2_NORM_RANGE" location="vtkDataArray" length="2">
            <Value index="0">
              0
            </Value>
            <Value index="1">
              0.73563849111
            </Value>
          </InformationKey>
        </DataArray>
      </CellData>
      <Points>
        <DataArray type="Float32" Name="Points" NumberOfComponents="3" format="ascii" RangeMin="0.800000011920929" RangeMax="10.939351806969364">
          8.727272987365723 -4 0 7.805444717407227 -1.7921322584152222 0
          7.2727274894714355 -4 0 7.007204532623291 -2.83231782913208 0
          7.1708574295043945 -0.8281394839286804 0 6.674066066741943 -1.5641728639602661 0
          6.693774223327637 0.02548009343445301 0 5.818181991577148 -4 0
          6.200284004211426 -0.7087167501449585 0 5.636225700378418 -2.404327869415283 0
          5.70396089553833 -1.4410018920898438 0 5.8098859786987305 -0.010843837633728981 0
          4.868238925933838 -3.1601128578186035 0 5.283965587615967 -0.7453813552856445 0
          4.895552158355713 -1.572829246520996 0 5.091211795806885 -0.055647801607847214 0
          4.363636493682861 -4 0 4.486375331878662 -2.259860038757324 0
          4.789450168609619 -0.455789178609848 0 4.497413158416748 -0.9728408455848694 0
          4.5 0 0 3.9964635372161865 -1.4846373796463013 0
          4.25 -0.4330126941204071 0 4 -0.911578357219696 0
          3.5827698707580566 -3.0377652645111084 0 3.604036331176758 -2.1961746215820312 0
          3.75 -0.4330126941204071 0 3.4062018394470215 -0.9171930551528931 0
          2.909090995788574 -4 0 3.0856659412384033 -1.5619853734970093 0
          3.21055006980896 -0.455789178609848 0 2.6751792430877686 -2.3456170558929443 0
          2.712498188018799 -0.7392560243606567 0 2.1728320121765137 -3.3025918006896973 0
          2.2860913276672363 -1.5511434078216553 0 1.6973814964294434 -2.3319733142852783 0
          1.9000751972198486 -0.7551726698875427 0 1.454545497894287 -4 0
          1.1717199087142944 -1.3240290880203247 0 0 -4 0
          0 -2.4000000953674316 0 7.773712158203125 0.06892196089029312 0
          8.356465339660645 -0.9738070964813232 0 6.861466884613037 1.2402846813201904 0
          9.158483505249023 -2.108525514602661 0 10.181818008422852 -4 0
          3.5 5.794379420720475e-10 0 4.25 0.4330126941204071 0
          4.789450168609619 0.455789178609848 0 5.287501811981201 0.7392560243606567 0
          6.099924564361572 0.7551726698875427 0 2.9087884426116943 0.055647801607847214 0
          2.1901140213012695 0.010843842290341854 0 1.1272525787353516 -0.07592880725860596 0
          0 -0.800000011920929 0
          <InformationKey name="L2_NORM_RANGE" location="vtkDataArray" length="2">
            <Value index="0">
              0.80000001192
            </Value>
            <Value index="1">
              10.939351807
            </Value>
          </InformationKey>
        </DataArray>
      </Points>
      <Cells>
        <DataArray type="Int64" Name="connectivity" format="ascii" RangeMin="0" RangeMax="54">
          6 8 4 4 8 5
          4 5 1 6 4 41
          41 4 42 6 41 43
          1 5 3 4 1 42
          42 1 44 3 5 9
          1 3 0 44 1 0
          7 2 3 3 2 0
          0 45 44 7 3 9
          20 22 18 26 46 30
          22 26 23 47 20 48
          18 22 19 23 26 27
          48 20 15 20 18 15
          15 18 13 26 30 27
          27 30 32 22 23 19
          19 23 21 18 19 13
          23 27 21 48 15 49
          15 13 11 19 21 14
          27 32 29 11 13 8
          14 21 17 15 11 49
          19 14 13 27 29 21
          8 13 10 17 21 25
          11 8 6 14 17 9
          10 13 14 10 14 9
          50 49 11 50 11 6
          9 17 12 25 21 29
          25 29 31 8 10 5
          17 25 24 10 9 5
          50 6 43 25 31 24
          12 17 24 12 24 16
          9 12 7 16 24 28
          12 16 7 33 28 24
          31 33 24 30 46 51
          30 51 32 29 32 34
          51 52 32 34 32 36
          29 34 31 36 32 52
          36 52 53 31 34 35
          34 36 38 36 53 38
          35 34 38 35 38 40
          31 35 33 33 35 37
          33 37 28 39 37 40
          38 53 54 38 54 40
          35 40 37
        </DataArray>
        <DataArray type="Int64" Name="offsets" format="ascii" RangeMin="3" RangeMax="249">
          3 6 9 12 15 18
          21 24 27 30 33 36
          39 42 45 48 51 54
          57 60 63 66 69 72
          75 78 81 84 87 90
          93 96 99 102 105 108
          111 114 117 120 123 126
          129 132 135 138 141 144
          147 150 153 156 159 162
          165 168 171 174 177 180
          183 186 189 192 195 198
          201 204 207 210 213 216
          219 222 225 228 231 234
          237 240 243 246 249
        </DataArray>
        <DataArray type="UInt8" Name="types" format="ascii" RangeMin="5" RangeMax="5">
          5 5 5 5 5 5
          5 5 5 5 5 5
          5 5 5 5 5 5
          5 5 5 5 5 5
          5 5 5 5 5 5
          5 5 5 5 5 5
          5 5 5 5 5 5
          5 5 5 5 5 5
          5 5 5 5 5 5
          5 5 5 5 5 5
          5 5 5 5 5 5
          5 5 5 5 5 5
          5 5 5 5 5 5
          5 5 5 5 5
        </DataArray>
      </Cells>
    </Piece>
  </UnstructuredGrid>
</VTKFile>
