<?xml version="1.0"?>
<VTKFile type="UnstructuredGrid" version="0.1" byte_order="LittleEndian" header_type="UInt32" compressor="vtkZLibDataCompressor">
  <UnstructuredGrid>
    <Piece NumberOfPoints="49" NumberOfCells="73">
      <PointData>
        <DataArray type="Float64" Name="nsi_SBC" NumberOfComponents="3" format="ascii" RangeMin="0" RangeMax="0">
          0 0 0 0 0 0
          0 0 0 0 0 0
          0 0 0 0 0 0
          0 0 0 0 0 0
          0 0 0 0 0 0
          0 0 0 0 0 0
          0 0 0 0 0 0
          0 0 0 0 0 0
          0 0 0 0 0 0
          0 0 0 0 0 0
          0 0 0 0 0 0
          0 0 0 0 0 0
          0 0 0 0 0 0
          0 0 0 0 0 0
          0 0 0 0 0 0
          0 0 0 0 0 0
          0 0 0 0 0 0
          0 0 0 0 0 0
          0 0 0 0 0 0
          0 0 0 0 0 0
          0 0 0 0 0 0
          0 0 0 0 0 0
          0 0 0 0 0 0
          0 0 0 0 0 0
          0 0 0
          <InformationKey name="L2_NORM_RANGE" location="vtkDataArray" length="2">
            <Value index="0">
              0
            </Value>
            <Value index="1">
              0
            </Value>
          </InformationKey>
        </DataArray>
        <DataArray type="Float64" Name="nsi_SFIXNO" NumberOfComponents="3" format="ascii" RangeMin="0" RangeMax="1.7320508075688772">
          0 0 0 0 0 0
          -1 -1 -1 -1 -1 -1
          0 0 0 -1 -1 -1
          -1 -1 -1 -1 -1 -1
          -1 -1 -1 -1 -1 -1
          0 0 0 -1 -1 -1
          -1 -1 -1 -1 -1 -1
          -1 -1 -1 -1 -1 -1
          -1 -1 -1 0 0 0
          -1 -1 -1 -1 -1 -1
          -1 -1 -1 -1 -1 -1
          -1 -1 -1 -1 -1 -1
          -1 -1 -1 -1 -1 -1
          0 0 0 -1 -1 -1
          0 0 0 -1 -1 -1
          -1 -1 -1 -1 -1 -1
          0 0 0 0 0 0
          -1 -1 -1 -1 -1 -1
          -1 -1 -1 0 0 0
          -1 -1 -1 -1 -1 -1
          0 0 0 -1 -1 -1
          -1 -1 -1 -1 -1 -1
          0 0 0 -1 -1 -1
          -1 -1 -1 -1 -1 -1
          0 0 0
          <InformationKey name="L2_NORM_RANGE" location="vtkDataArray" length="2">
            <Value index="0">
              0
            </Value>
            <Value index="1">
              1.7320508076
            </Value>
          </InformationKey>
        </DataArray>
        <DataArray type="Float64" Name="nsi_UBC" NumberOfComponents="3" format="ascii" RangeMin="0" RangeMax="0">
          0 0 0 0 0 0
          0 0 0 0 0 0
          0 0 0 0 0 0
          0 0 0 0 0 0
          0 0 0 0 0 0
          0 0 0 0 0 0
          0 0 0 0 0 0
          0 0 0 0 0 0
          0 0 0 0 0 0
          0 0 0 0 0 0
          0 0 0 0 0 0
          0 0 0 0 0 0
          0 0 0 0 0 0
          0 0 0 0 0 0
          0 0 0 0 0 0
          0 0 0 0 0 0
          0 0 0 0 0 0
          0 0 0 0 0 0
          0 0 0 0 0 0
          0 0 0 0 0 0
          0 0 0 0 0 0
          0 0 0 0 0 0
          0 0 0 0 0 0
          0 0 0 0 0 0
          0 0 0
          <InformationKey name="L2_NORM_RANGE" location="vtkDataArray" length="2">
            <Value index="0">
              0
            </Value>
            <Value index="1">
              0
            </Value>
          </InformationKey>
        </DataArray>
        <DataArray type="Float64" Name="nsi_UFIXNO" NumberOfComponents="3" format="ascii" RangeMin="1" RangeMax="1.4142135623730951">
          0 1 0 0 1 0
          -1 -1 0 -1 -1 0
          0 1 0 -1 -1 0
          -1 -1 0 -1 -1 0
          -1 -1 0 -1 -1 0
          0 1 0 -1 -1 0
          -1 -1 0 -1 -1 0
          -1 -1 0 -1 -1 0
          -1 -1 0 0 1 0
          -1 -1 0 -1 -1 0
          -1 -1 0 -1 -1 0
          -1 -1 0 -1 -1 0
          -1 -1 0 -1 -1 0
          0 1 0 -1 -1 0
          0 1 0 -1 -1 0
          -1 -1 0 -1 -1 0
          0 1 0 0 1 0
          -1 -1 0 -1 -1 0
          -1 -1 0 0 1 0
          -1 -1 0 -1 -1 0
          0 1 0 -1 -1 0
          -1 -1 0 -1 -1 0
          0 1 0 -1 -1 0
          -1 -1 0 -1 -1 0
          0 1 0
          <InformationKey name="L2_NORM_RANGE" location="vtkDataArray" length="2">
            <Value index="0">
              1
            </Value>
            <Value index="1">
              1.4142135624
            </Value>
          </InformationKey>
        </DataArray>
        <DataArray type="Float64" Name="Velocity" NumberOfComponents="3" format="ascii" RangeMin="0.968761306820482" RangeMax="1.019844424218607">
          1.000032065695587 0 0 1.0000503644032896 0 0
          1.0000011120812462 0.000014373983451579416 0 1.000024422323599 0.00010430004863408548 0
          1.000225499505628 0 0 0.9999496205665981 -0.000012071509938314995 0
          0.9999326947051612 0.00004024656701372622 0 1.0000523679972035 0.00030091171188682933 0
          0.9999533468965434 -0.000011399838342687827 0 0.9998366386206572 0.00012240111927616114 0
          1.0007951557984776 0 0 0.9999739650394732 0.00000152001523146369 0
          0.9998621796656049 -0.0000390143688715974 0 0.999607681683025 0.00041488670042091625 0
          0.9999853979589233 -0.00006568446985477422 0 1.0000127801146703 0.0011356770313153703 0
          0.9996093369375625 -0.00013514151331428656 0 1.002160134983171 0 0
          0.9999487422937354 -0.000187896866504669 0 1.000023298622176 -0.000010955476700299932 0
          0.9984879758495068 -0.00028562753132859337 0 0.9987540791640335 0.0015851741501083751 0
          1.0000794755157707 -0.0000854556528264605 0 0.9998850497817263 0.0033858351591082563 0
          0.9999307965154345 -0.0005376752706474354 0 1.000135111237265 -0.00032826536252641546 0
          1.0000714738383614 0 0 0.9961127766327359 -0.00099722475672673 0
          1.0000829415347223 0 0 0.9997943604848949 -0.00237845882767199 0
          0.9962824084887995 0.005015868696840863 0 1.0003338853373216 -0.000604141922259053 0
          1.000220503638631 0 0 1.0008175414036873 0 0
          0.9849817347540903 -0.0023802449453475837 0 1.001470766313427 -0.003447853546514198 0
          0.9953660116919076 -0.007519135774586998 0 1.0015709161548436 0 0
          0.9930865938149414 -0.02315915361188166 0 1.0053863935164555 -0.01026594104911974 0
          1.0046590267484135 0 0 0.9744695772820643 -0.0018603903179295347 0
          0.9862654678540954 0.01639780384669113 0 1.0015271448802958 0.009334194331990708 0
          1.0058780367107025 0 0 1.00639425257551 -0.05490469872014317 0
          0.9683376203823865 -0.028648255526389298 0 1.019681767119053 -0.018213824824776865 0
          1.0132760263974514 0 0
          <InformationKey name="L2_NORM_RANGE" location="vtkDataArray" length="2">
            <Value index="0">
              0.96876130682
            </Value>
            <Value index="1">
              1.0198444242
            </Value>
          </InformationKey>
        </DataArray>
        <DataArray type="Float64" Name="Pressure" format="ascii" RangeMin="-51.433138682576065" RangeMax="0.000027408333385046145">
          0.000027408333385046145 -7.272513425934727 -0.000024740496729584918 -10.908841068891077 -14.54477743555375 -0.000037295824375083545
          -8.64248509063072 -18.181456826025745 -4.765067210649048 -16.138589288726283 -21.816582157298406 -0.00001312717406491728
          -12.263168277992518 -23.595217346989863 -7.059858967671429 -27.20575619284131 -19.75307065820151 -29.08694878232506
          -14.54545808095218 8.676957227768902e-7 -27.089798037921348 -30.986188708617686 -10.909118921187114 -34.20430002023093
          -23.736053209417328 -18.18180246705154 0.000006857617933662326 -34.54063380133006 -7.272714977092742 -30.797992279089453
          -38.2190585803053 -25.45427699912499 -14.545359561630418 -21.818163351358226 -41.13365928230415 -35.468726045331415
          -40.21415365165903 -29.090324060964058 -45.693516842351066 -42.72053958898845 -36.36312382437444 -46.59915034824993
          -44.14852928893199 -40.968894880690115 -36.358567043939054 -51.433138682576065 -49.463346959856615 -48.31678304318955
          -43.63628401123843
        </DataArray>
        <DataArray type="Float64" Name="Sigma" NumberOfComponents="6" format="ascii" RangeMin="4.046404443974129e-8" RangeMax="0.0004739133773173619">
          1.9425734338017917e-8 -3.806670244359856e-9 0 3.529148621836171e-8 0 0
          -2.97834566488634e-7 2.654088713930485e-7 0 -2.027265541220078e-7 0 0
          4.64662734247727e-9 -1.0371676866093142e-8 0 -1.4358571497696647e-7 0 0
          -2.3358165625266763e-7 2.3571431508089762e-7 0 -4.4173088041630054e-7 0 0
          -0.0000014895894080780096 0.000001525422503238641 0 -8.537528694738137e-7 0 0
          -1.2144453082229331e-7 1.1357715843902262e-7 0 3.150448287273472e-8 0 0
          3.683813634136722e-7 -3.4485755387403514e-7 0 -2.0529992134778463e-7 0 0
          1.0749243011275301e-7 -1.0112424705336524e-7 0 -0.0000010358414088660352 0 0
          2.895329776512463e-7 -2.882322639607978e-7 0 -2.9573855753706944e-8 0 0
          7.186240981759445e-7 -7.569953489999045e-7 0 -6.922675397067357e-7 0 0
          -0.00000569546273417446 0.000005628998960883308 0 -0.000004429001139119306 0 0
          -1.1238937247111115e-7 1.1815655716596233e-7 0 1.5802246690964079e-7 0 0
          7.885228674111063e-7 -8.039046172991052e-7 0 2.229012854981592e-7 0 0
          0.0000013299984003097046 -0.0000012820813279082507 0 -0.000002213970024688177 0 0
          9.101436341094383e-8 -7.981231648871136e-8 0 4.4653483773316444e-7 0 0
          0.0000023213664357368143 -0.0000023261939547751746 0 -0.000003251909474015922 0 0
          0.0000021615030252926933 -0.0000020731711089871594 0 6.209960816000123e-7 0 0
          -0.000013919254828472351 0.000013850657548964865 0 -0.000011428863018462454 0 0
          1.6116300057770206e-7 -1.7068347252900928e-7 0 6.235714017029817e-7 0 0
          2.5771228241764785e-8 -3.6378022213786064e-8 0 4.0323305947120985e-8 0 0
          0.000011201041069785786 -0.000011198933778760925 0 0.000001405543739772448 0 0
          0.000003193326623523058 -0.0000030308543719130306 0 -0.00001006485715882993 0 0
          -3.37279216781669e-7 3.443132838154722e-7 0 4.989324916789749e-7 0 0
          -0.0000019483220383304387 0.0000019177096604428574 0 -0.000009891320098110355 0 0
          -3.7726553335737277e-7 3.319491761823381e-7 0 0.0000030210375610705415 0 0
          -1.8018338299013535e-7 1.2104186163467552e-7 0 0.0000011378563769981335 0 0
          -3.856787599893645e-8 5.0547661461503636e-8 0 8.892890341230587e-8 0 0
          0.000022235858159859674 -0.00002267955860970141 0 0.000003780889713242882 0 0
          -2.449262981661912e-7 2.2729550170522215e-7 0 1.8964380781474025e-7 0 0
          -0.0000029825727983117723 0.0000030142317390202673 0 0.000014197943142374898 0 0
          0.000028818277802356464 -0.000029331836929992683 0 -0.000033352171580897035 0 0
          -2.6013905051442624e-7 4.0857539522839343e-7 0 -2.3595626090224575e-7 0 0
          -0.000001363178039111555 0.0000014289028895602951 0 4.435899814479094e-7 0 0
          -0.0000044538588741027 0.0000044744389261228476 0 0.0000037555825431001997 0 0
          0.00010387906403913139 -0.00009709341631907484 0 0.000012477157522792713 0 0
          -0.0000073205086254625874 0.000007253294755648863 0 0.00001739347406339793 0 0
          0.0000265633568232642 -0.00002672094009356479 0 0.00003984398661079933 0 0
          -0.00000916354591295474 0.00000854933443122085 0 0.000006479111348468692 0 0
          -0.000026917592096519305 0.000022325701684614693 0 0.0001686456420469329 0 0
          -0.00003577814292485495 0.00003560737296520127 0 0.00004232254785983013 0 0
          -0.000020465068543805392 0.00002060864822457181 0 0.0000056435431290907514 0 0
          0.0002524621855979091 -0.0002827268597207564 0 0.000012758779135879265 0 0
          0.000009656716791160071 -0.000007514425006315162 0 -0.00010309546146787951 0 0
          -0.000005178466953205018 0.00000450850694025031 0 -0.00005468117289035015 0 0
          -0.00002901471049201174 0.000029804642845048184 0 -0.000008001196658484651 0 0
          -0.000016807697261371854 0.000031257322719018395 0 0.0001585000299781291 0 0
          0.00033975545931205184 -0.00028390412005954436 0 0.00016899280363737588 0 0
          -0.00013993169387145843 0.00014204109981211875 0 0.00007382885720680578 0 0
          -0.00004990721825254138 0.00005050602433930962 0 0.00001080913641525156 0 0
          <InformationKey name="L2_NORM_RANGE" location="vtkDataArray" length="2">
            <Value index="0">
              4.046404444e-08
            </Value>
            <Value index="1">
              0.00047391337732
            </Value>
          </InformationKey>
        </DataArray>
      </PointData>
      <CellData>
        <DataArray type="UInt8" Name="vtkGhostType" format="ascii" RangeMin="0" RangeMax="0">
          0 0 0 0 0 0
          0 0 0 0 0 0
          0 0 0 0 0 0
          0 0 0 0 0 0
          0 0 0 0 0 0
          0 0 0 0 0 0
          0 0 0 0 0 0
          0 0 0 0 0 0
          0 0 0 0 0 0
          0 0 0 0 0 0
          0 0 0 0 0 0
          0 0 0 0 0 0
          0
        </DataArray>
        <DataArray type="Float64" Name="Velocity_SGS" NumberOfComponents="3" format="ascii" RangeMin="0" RangeMax="0.006513038526991391">
          6.90603937968665e-310 6.90603937968665e-310 4.68262414472876e-310 -0.003933177297963714 0.005191318444947974 0
          0.0009696706825882747 -0.001507041749353417 0 -0.003738943234176679 -0.004721091265777251 0
          -0.0017316158597465482 0.00035533865663393946 0 0.00103889146928074 0.00014857210861226314 0
          0.00036671604463769426 0.00155609138578936 0 0.001400645110752914 0.002130820650764898 0
          0.0006875892074747549 -0.0009663236215409731 0 0.0014757528289802643 -0.0010975773409538452 0
          0.00020109105146831965 -0.00008432562456755816 0 -0.0011856074565070897 -0.0003179725431719716 0
          -0.0003810093408137585 0.0001405224348219558 0 0.00046229136285133956 -0.00007985195068905879 0
          -0.00031308602472739 -0.00005893556217243315 0 -0.00022579587828040504 -0.000015305034076408623 0
          0.000031347641586744646 0.00011499494146628749 0 0.000008931243703132977 -0.00002012757833147621 0
          -0.000001475848904339217 6.405332701495681e-7 0 0.00021661353630917605 0.0007835818245625851 0
          0.00014184669177876594 -0.0002620162647317066 0 0.000013896749319096282 0.000024272296446681873 0
          0.0000043800059888347625 -0.0000574047792677023 0 8.128389856712248e-7 -8.409575840201606e-7 0
          0.00012302348154541828 0.0004026735751983906 0 0.00007747735570675274 -0.0005243435930072987 0
          -0.0006482954542227877 0.00009304465029612101 0 -0.00000475133328838102 0.0006996710361941707 0
          -0.00024223742169008502 0.0005991137829988827 0 0.00011716047495146437 -0.00003689300031247249 0
          0.00017898327472792942 -0.00018571222705156902 0 0.000003072318550406282 0.0001778514707444156 0
          0.00002483983208662219 -0.000014378230002730114 0 -0.000025278718069759575 -0.00015166500903600599 0
          -0.00004002146050313304 -0.000011829556388699868 0 0.00004966410962973095 0.000004427986821043182 0
          -0.0002544689143153354 0.00017957922975031211 0 -0.00010792606789724315 0.0000537744654807115 0
          0.0000683987311109864 -0.00004746582468491338 0 -0.0001594691562916116 0.00012396101122775426 0
          -0.000015081438737201915 0.000007774457020146283 0 0.00004539516551205176 -0.000004178058245188203 0
          -0.00005635056295662248 0.0000407351665869973 0 -0.000016922340476085773 0.000010382513421375425 0
          -0.000008987564638549214 -0.000009660681188106206 0 -0.00014231165765020654 -0.00001940557462729484 0
          -0.000009763989972949499 0.0000026789912459714363 0 -0.00046692440280054863 -0.00043406293227072143 0
          -0.000058538921265181235 -0.000006313850249561497 0 -0.000013885049121016316 0.00004411232856149427 0
          0.0000494843027098371 -0.00000536226438290126 0 0.0002513371858850436 0.000021090350606488913 0
          0.0002682631969357066 0.0001596561288658364 0 0.00014909934807365608 -0.00035784823357114845 0
          0.000030155315022401026 -0.000004510128618965133 0 -0.0000409475440751281 -0.00003736795391577499 0
          0.000005425234809239515 -0.000004069245285460967 0 0.000007503054974776016 -0.0000172732624135851 0
          -0.000029030920347397067 0.0000030227903781045863 0 9.392880691490002e-7 0.000015421461712417973 0
          0.000009912217637502959 2.7163140176992664e-8 0 0.0000022805861187637053 0.00000280698194294575 0
          0.000005516808183861782 -0.00000799776499322964 0 -0.000009661771066947255 -0.00000929119736914492 0
          0.00000100979459545892 0.000010217885360980158 0 -0.0000013395410996017137 -0.000006505382572067738 0
          0.000013209697781889942 0.000008910694861814288 0 0.0012494689161309564 -0.0003225462547505726 0
          0.0026481370076109198 -0.002875903335616994 0 -0.002162976629286732 0.0005083678167962355 0
          0.001370220857151157 -0.0013102708197459047 0 -0.0025633110934956496 -0.0003182007674487177 0
          -0.00019360556282516713 0.0019305397361775885 0 0.00011985210914606983 -0.0007334033928153713 0
          <InformationKey name="L2_NORM_RANGE" location="vtkDataArray" length="2">
            <Value index="0">
              0
            </Value>
            <Value index="1">
              0.006513038527
            </Value>
          </InformationKey>
        </DataArray>
      </CellData>
      <Points>
        <DataArray type="Float32" Name="Points" NumberOfComponents="3" format="ascii" RangeMin="5.920709263879467" RangeMax="16.492422502470642">
          16 -4 0 14.545454025268555 -4 0
          16 -2.4000000953674316 0 13.818181991577148 -2.7009618282318115 0
          13.090909004211426 -4 0 16 -0.800000011920929 0
          14.271505355834961 -1.146686315536499 0 12.363636016845703 -2.7009618282318115 0
          15.047001838684082 0.13715402781963348 0 12.772308349609375 -1.1155608892440796 0
          11.636363983154297 -4 0 16 0.800000011920929 0
          13.547407150268555 0.16641846299171448 0 11.280959129333496 -1.061901330947876 0
          14.588034629821777 1.4168537855148315 0 10.558568954467773 -2.354511022567749 0
          12.049510955810547 0.19002920389175415 0 10.181818008422852 -4 0
          13.090909004211426 1.4019237756729126 0 16 2.4000000953674316 0
          10.582230567932129 0.11868668347597122 0 9.802840232849121 -1.1505086421966553 0
          13.818181991577148 2.7009618282318115 0 9.158483505249023 -2.108525514602661 0
          11.25278377532959 1.451863169670105 0 12.363636016845703 2.7009618282318115 0
          16 4 0 9.092836380004883 0.12193738669157028 0
          14.545454025268555 4 0 9.840368270874023 1.4193470478057861 0
          8.356465339660645 -0.9738070964813232 0 10.909090995788574 2.7009618282318115 0
          13.090909004211426 4 0 11.636363983154297 4 0
          7.773712158203125 0.06892196089029312 0 8.90578556060791 2.2909152507781982 0
          7.956461429595947 1.1881567239761353 0 10.181818008422852 4 0
          6.861466884613037 1.2402846813201904 0 7.45475435256958 2.399545669555664 0
          8.727272987365723 4 0 6.693774223327637 0.02548009343445301 0
          7.1708574295043945 -0.8281394839286804 0 7.805444717407227 -1.7921322584152222 0
          8.727272987365723 -4 0 5.713908672332764 1.5511434078216553 0
          6.099924564361572 0.7551726698875427 0 6.337732315063477 2.693572759628296 0
          7.2727274894714355 4 0
          <InformationKey name="L2_NORM_RANGE" location="vtkDataArray" length="2">
            <Value index="0">
              5.9207092639
            </Value>
            <Value index="1">
              16.492422502
            </Value>
          </InformationKey>
        </DataArray>
      </Points>
      <Cells>
        <DataArray type="Int64" Name="connectivity" format="ascii" RangeMin="0" RangeMax="48">
          41 42 34 34 42 30
          41 34 38 42 43 30
          30 43 23 34 30 27
          36 38 34 36 34 27
          39 36 35 27 30 21
          23 43 44 30 23 21
          21 23 15 15 23 17
          21 15 13 10 4 7
          28 32 22 1 0 2
          44 17 23 33 37 31
          4 1 3 32 33 25
          26 28 19 17 10 15
          37 40 35 35 36 27
          39 35 40 27 21 20
          13 15 7 21 13 20
          20 13 16 16 13 9
          20 16 24 7 4 3
          7 3 9 31 37 35
          25 33 31 25 31 24
          24 31 29 22 32 25
          22 25 18 18 25 24
          22 18 14 3 1 2
          10 7 15 28 22 19
          27 20 29 9 13 7
          16 9 12 24 16 18
          20 24 29 29 31 35
          29 35 27 14 18 12
          12 18 16 22 14 19
          12 9 6 6 9 3
          12 6 8 8 6 5
          8 5 11 8 11 14
          8 14 12 14 11 19
          2 5 6 6 3 2
          45 46 38 46 41 38
          47 45 38 47 38 39
          39 38 36 47 39 48
          40 48 39
        </DataArray>
        <DataArray type="Int64" Name="offsets" format="ascii" RangeMin="3" RangeMax="219">
          3 6 9 12 15 18
          21 24 27 30 33 36
          39 42 45 48 51 54
          57 60 63 66 69 72
          75 78 81 84 87 90
          93 96 99 102 105 108
          111 114 117 120 123 126
          129 132 135 138 141 144
          147 150 153 156 159 162
          165 168 171 174 177 180
          183 186 189 192 195 198
          201 204 207 210 213 216
          219
        </DataArray>
        <DataArray type="UInt8" Name="types" format="ascii" RangeMin="5" RangeMax="5">
          5 5 5 5 5 5
          5 5 5 5 5 5
          5 5 5 5 5 5
          5 5 5 5 5 5
          5 5 5 5 5 5
          5 5 5 5 5 5
          5 5 5 5 5 5
          5 5 5 5 5 5
          5 5 5 5 5 5
          5 5 5 5 5 5
          5 5 5 5 5 5
          5 5 5 5 5 5
          5
        </DataArray>
      </Cells>
    </Piece>
  </UnstructuredGrid>
</VTKFile>
