<?xml version="1.0"?>
<VTKFile type="UnstructuredGrid" version="0.1" byte_order="LittleEndian" header_type="UInt32" compressor="vtkZLibDataCompressor">
  <UnstructuredGrid>
    <Piece NumberOfPoints="52" NumberOfCells="77">
      <PointData>
        <DataArray type="Float64" Name="nsi_SBC" NumberOfComponents="3" format="ascii" RangeMin="0" RangeMax="0">
          0 0 0 0 0 0
          0 0 0 0 0 0
          0 0 0 0 0 0
          0 0 0 0 0 0
          0 0 0 0 0 0
          0 0 0 0 0 0
          0 0 0 0 0 0
          0 0 0 0 0 0
          0 0 0 0 0 0
          0 0 0 0 0 0
          0 0 0 0 0 0
          0 0 0 0 0 0
          0 0 0 0 0 0
          0 0 0 0 0 0
          0 0 0 0 0 0
          0 0 0 0 0 0
          0 0 0 0 0 0
          0 0 0 0 0 0
          0 0 0 0 0 0
          0 0 0 0 0 0
          0 0 0 0 0 0
          0 0 0 0 0 0
          0 0 0 0 0 0
          0 0 0 0 0 0
          0 0 0 0 0 0
          0 0 0 0 0 0
          <InformationKey name="L2_NORM_RANGE" location="vtkDataArray" length="2">
            <Value index="0">
              0
            </Value>
            <Value index="1">
              0
            </Value>
          </InformationKey>
        </DataArray>
        <DataArray type="Float64" Name="nsi_SFIXNO" NumberOfComponents="3" format="ascii" RangeMin="0" RangeMax="1.7320508075688772">
          -1 -1 -1 -1 -1 -1
          -1 -1 -1 -1 -1 -1
          0 0 0 -1 -1 -1
          -1 -1 -1 -1 -1 -1
          0 0 0 -1 -1 -1
          0 0 0 -1 -1 -1
          0 0 0 0 0 0
          -1 -1 -1 -1 -1 -1
          -1 -1 -1 -1 -1 -1
          -1 -1 -1 -1 -1 -1
          -1 -1 -1 -1 -1 -1
          -1 -1 -1 0 0 0
          -1 -1 -1 -1 -1 -1
          -1 -1 -1 -1 -1 -1
          -1 -1 -1 0 0 0
          -1 -1 -1 -1 -1 -1
          -1 -1 -1 -1 -1 -1
          0 0 0 0 0 0
          0 0 0 0 0 0
          0 0 0 0 0 0
          -1 -1 -1 0 0 0
          -1 -1 -1 -1 -1 -1
          -1 -1 -1 -1 -1 -1
          -1 -1 -1 0 0 0
          -1 -1 -1 -1 -1 -1
          -1 -1 -1 0 0 0
          <InformationKey name="L2_NORM_RANGE" location="vtkDataArray" length="2">
            <Value index="0">
              0
            </Value>
            <Value index="1">
              1.7320508076
            </Value>
          </InformationKey>
        </DataArray>
        <DataArray type="Float64" Name="nsi_UBC" NumberOfComponents="3" format="ascii" RangeMin="0" RangeMax="1">
          0 0 0 0 0 0
          0 0 0 0 0 0
          0 0 0 0 0 0
          0 0 0 0 0 0
          0 0 0 0 0 0
          0 0 0 0 0 0
          0 0 0 0 0 0
          0 0 0 0 0 0
          0 0 0 0 0 0
          0 0 0 0 0 0
          0 0 0 0 0 0
          0 0 0 0 0 0
          0 0 0 0 0 0
          0 0 0 0 0 0
          0 0 0 0 0 0
          0 0 0 0 0 0
          0 0 0 0 0 0
          1 0 0 0 0 0
          1 0 0 1 0 0
          1 0 0 0 0 0
          0 0 0 0 0 0
          0 0 0 0 0 0
          0 0 0 0 0 0
          0 0 0 0 0 0
          0 0 0 0 0 0
          0 0 0 1 0 0
          <InformationKey name="L2_NORM_RANGE" location="vtkDataArray" length="2">
            <Value index="0">
              0
            </Value>
            <Value index="1">
              1
            </Value>
          </InformationKey>
        </DataArray>
        <DataArray type="Float64" Name="nsi_UFIXNO" NumberOfComponents="3" format="ascii" RangeMin="1" RangeMax="1.4142135623730951">
          -1 -1 0 -1 -1 0
          -1 -1 0 -1 -1 0
          0 1 0 -1 -1 0
          -1 -1 0 -1 -1 0
          1 1 0 -1 -1 0
          0 1 0 -1 -1 0
          1 1 0 1 1 0
          -1 -1 0 -1 -1 0
          -1 -1 0 -1 -1 0
          -1 -1 0 -1 -1 0
          -1 -1 0 -1 -1 0
          -1 -1 0 0 1 0
          -1 -1 0 -1 -1 0
          -1 -1 0 -1 -1 0
          -1 -1 0 0 1 0
          -1 -1 0 -1 -1 0
          -1 -1 0 -1 -1 0
          1 1 0 0 1 0
          1 1 0 1 1 0
          1 1 0 1 1 0
          -1 -1 0 1 1 0
          -1 -1 0 -1 -1 0
          -1 -1 0 -1 -1 0
          -1 -1 0 0 1 0
          -1 -1 0 -1 -1 0
          -1 -1 0 1 1 0
          <InformationKey name="L2_NORM_RANGE" location="vtkDataArray" length="2">
            <Value index="0">
              1
            </Value>
            <Value index="1">
              1.4142135624
            </Value>
          </InformationKey>
        </DataArray>
        <DataArray type="Float64" Name="Velocity" NumberOfComponents="3" format="ascii" RangeMin="0" RangeMax="1.605864424840658">
          0.9683376203823865 -0.028648255526389298 0 1.00639425257551 -0.05490469872014317 0
          0.979912228191924 -0.15329268375458877 0 1.019681767119053 -0.018213824824776865 0
          1.0132760263974514 0 0 0.7632125565420259 -0.4577054840802244 0
          1.0434098986442475 -0.09895920538256286 0 1.3391565687289266 -0.28361877637495564 0
          0 0 0 1.0536950420552058 -0.018349895647200062 0
          1.0293874453409861 0 0 1.6038426517987576 0.08055618685082967 0
          0 0 0 0 0 0
          1.1427902020498757 0.03168881729125203 0 1.078473557187709 -0.0006561717010095636 0
          1.3056388282808644 0.24542609524275605 0 0.8748499105338735 0.41366956710497244 0
          0.8915323557636959 0.02061570742172585 0 1.050005346801961 0.007126714928430677 0
          1.0662470644343482 0.0032180606228198743 0 1.0053128937483236 0.06535185401393986 0
          0.9352684417481105 0.07391844423180963 0 1.0424540222810548 0 0
          0.8910794562877731 0.009901786777515326 0 1.0731811697678855 0.012192722631653346 0
          0.9724540713742249 0.03368478651860139 0 1.0662707259743034 -0.01732060440614772 0
          0.9146792181782866 0.034415928670170716 0 1.0582409117702434 0 0
          0.8885521804625591 -0.009369188912453 0 0.9469439725701414 0.0857935179939982 0
          0.9861555036056029 -0.010516728590551923 0 0.8973799166281157 0.05417655619692863 0
          0.9999999999779418 0 0 0.9955679177953322 0 0
          0.999999999977942 0 0 0.9999999999779422 0 0
          0.999999999977942 0 0 0 0 0
          0.8706674512503921 -0.3679046742818257 0 0 0 0
          0.6978199118876434 0.024650883703712403 0 0.8644990664069112 -0.004095737185690978 0
          0.9744695772820643 -0.0018603903179295347 0 0.9930865938149414 -0.02315915361188166 0
          1.0053863935164555 -0.01026594104911974 0 1.0046590267484135 0 0
          0.961402313390375 -0.059019463268379216 0 0.9647440892482915 -0.02084233289257471 0
          0.9235575216457376 -0.06625448230333629 0 0.999999999977942 0 0
          <InformationKey name="L2_NORM_RANGE" location="vtkDataArray" length="2">
            <Value index="0">
              0
            </Value>
            <Value index="1">
              1.6058644248
            </Value>
          </InformationKey>
        </DataArray>
        <DataArray type="Float64" Name="Pressure" format="ascii" RangeMin="-75.55591544499411" RangeMax="-36.36312382437444">
          -49.463346959856615 -51.433138682576065 -53.56799454310159 -48.31678304318955 -43.63628401123843 -56.64527561918942
          -55.4372214663543 -57.43317376311897 -58.973394826480906 -54.626479868721816 -50.90040052144744 -60.28198538654101
          -61.11879890160948 -62.12797159056254 -59.97069678584137 -58.372777094947274 -62.10720396908929 -63.11901907693832
          -64.24942226583833 -59.85485543020411 -62.34255526276937 -64.28979568730823 -65.68000284447614 -58.13982372357833
          -68.4908578073184 -65.0872760759696 -68.12034451495751 -67.04922360394963 -70.3316156936141 -65.60999300156263
          -73.32690081419523 -71.36266154748222 -70.33906097605984 -73.98087468826623 -75.4031578639939 -72.27990593075504
          -75.39739645673922 -75.55591544499411 -74.91768452788764 -61.192539634776985 -63.151880364277545 -57.52747512367422
          -54.91076104407004 -50.87945693202595 -46.59915034824993 -45.693516842351066 -42.72053958898845 -36.36312382437444
          -65.75253234849836 -70.05741612864635 -73.12408366252559 -75.53453924144958
        </DataArray>
        <DataArray type="Float64" Name="Sigma" NumberOfComponents="6" format="ascii" RangeMin="0.000029586905738801198" RangeMax="0.03793413294956348">
          0.00033975545931205184 -0.00028390412005954436 0 0.00016899280363737588 0 0
          -0.000016807697261371854 0.000031257322719018395 0 0.0001585000299781291 0 0
          -0.0014072752399705076 0.0011510343274989676 0 0.0025955489723163477 0 0
          -0.00013993169387145843 0.00014204109981211875 0 0.00007382885720680578 0 0
          -0.00004990721825254138 0.00005050602433930962 0 0.00001080913641525156 0 0
          0.0011157062106348847 0.0019601617832312305 0 0.004150662333127203 0 0
          -0.0010215295346737683 0.0011427920863953016 0 -0.0003001319647852119 0 0
          -0.002418822726928886 0.002561451471502899 0 -0.0011821168434794206 0 0
          0.002447010711842612 -0.0014964262644679717 0 0.015602466832382198 0 0
          -0.00021482151803782127 0.00020156970204904812 0 -0.00003536248947870509 0 0
          -0.000055353078684292565 0.00005694896184159927 0 -0.00001636738782270417 0 0
          0.004351395565817644 -0.0015289018694134204 0 -0.008025459890973979 0 0
          0.00142736275121922 0.002708196089033952 0 0.013216988392058687 0 0
          -0.021741437031364393 0.03108543642044795 0 -0.0000632534320239121 0 0
          0.000024509346218787247 0.00011166008182732722 0 -0.0020366436871480376 0 0
          0.00020089653282394387 -0.00020773159801262584 0 -0.0001187713708996929 0 0
          0.00294067494958215 -0.003085364305840411 0 0.0015658184508096646 0 0
          0.005790742701270853 -0.005861862107057045 0 0.003535698640547365 0 0
          -0.002423255710931382 0.002372820340540154 0 0.0003438416265590222 0 0
          -0.000030120423512861357 0.00002398124228988379 0 -0.00015394330377402048 0 0
          0.00005679663624898409 -0.00011289285346468781 0 0.00020770188635383454 0 0
          0.001102829000065615 -0.0011020025590883404 0 -0.00018764764581285498 0 0
          -0.0009462037429561024 0.0009267290912710496 0 0.0012667180022638838 0 0
          -0.0000073706558991561 0.00003820848377522286 0 -0.000019849405154731947 0 0
          -0.0003480538931640344 0.0003350219247356179 0 -0.00032443598879425804 0 0
          -0.000400238016083144 0.00045028952272715625 0 0.00001636589773679549 0 0
          0.0006971772262161897 -0.0006463952117707135 0 0.0005961376371063094 0 0
          0.00018413493326591352 -0.00012238992184356528 0 0.0004490590200445284 0 0
          0.0009626915292981808 -0.0008695749299154875 0 -0.0005211188217857099 0 0
          0.00027799507932253586 -0.000369553041096251 0 -0.00016594886821808886 0 0
          -0.0011787658838544551 0.000980902938302668 0 0.00020443730251320196 0 0
          -0.0003104918137396571 0.00020704012764553644 0 -0.0005542795145464484 0 0
          0.0008859047585137279 -0.0009314551842598216 0 0.00033123383432147167 0 0
          -0.0011038880559533963 0.0009146131851742537 0 0.0015056454965823635 0 0
          0.0014896182109033682 -0.0010307611407527762 0 0.000021973387212559764 0 0
          -0.0018909291863441267 0.0017205839510444976 0 -0.0012238000100497932 0 0
          0.0012223793890730862 -0.0004835090841201555 0 -0.0016190399968951733 0 0
          0.0002861031559226918 0.00006927950399204088 0 0.00045167530962580114 0 0
          0.004104109812276838 -0.004050963255362529 0 0.000571498536870644 0 0
          0.00048352891023811616 0.003717904779916787 0 -0.01224111652655429 0 0
          0.006470316740923873 -0.006797350587227782 0 -0.0042538899730836365 0 0
          0.022510222649255555 -0.020002602795886715 0 0.00026058918374560004 0 0
          0.005957531408051363 -0.0051997129984551966 0 -0.0003724763539719729 0 0
          0.001054777843071738 -0.000908044222209603 0 0.000005107720575687973 0 0
          0.0002524621855979091 -0.0002827268597207564 0 0.000012758779135879265 0 0
          -0.000026917592096519305 0.000022325701684614693 0 0.0001686456420469329 0 0
          -0.00003577814292485495 0.00003560737296520127 0 0.00004232254785983013 0 0
          -0.000020465068543805392 0.00002060864822457181 0 0.0000056435431290907514 0 0
          -0.0014834262666894643 0.001375655917401081 0 -0.0010957738455397853 0 0
          0.00041044963334010525 -0.0002652050192486509 0 0.000392362242398609 0 0
          -0.0011692259557068206 0.0009958715803602665 0 -0.0004958710931420087 0 0
          -0.00014899771745332163 0.000558351546564353 0 -0.0001670591711745088 0 0
          <InformationKey name="L2_NORM_RANGE" location="vtkDataArray" length="2">
            <Value index="0">
              2.9586905739e-05
            </Value>
            <Value index="1">
              0.03793413295
            </Value>
          </InformationKey>
        </DataArray>
      </PointData>
      <CellData>
        <DataArray type="UInt8" Name="vtkGhostType" format="ascii" RangeMin="0" RangeMax="1">
          1 0 0 1 0 0
          1 0 0 0 0 0
          1 0 0 1 0 0
          0 0 0 1 1 0
          1 0 1 0 1 1
          0 1 1 0 0 1
          0 0 0 1 0 0
          0 0 1 0 0 0
          0 0 0 0 0 0
          1 1 0 0 0 1
          0 0 0 0 0 0
          0 0 0 0 0 0
          1 1 0 0 0
        </DataArray>
        <DataArray type="Float64" Name="Velocity_SGS" NumberOfComponents="3" format="ascii" RangeMin="0" RangeMax="0.7533618466137519">
          6.91086159514904e-310 6.91086159514904e-310 4.6445549448126e-310 0.43089350226202977 -0.294478657606078 0
          0.7509142661347852 0.06067814143939618 0 0.3869717077573132 0.26086086584772883 0
          0.36281547694400973 -0.15665864000967572 0 0.11840013443513601 -0.08871316111286381 0
          0.23662128693066609 0.08706486525669815 0 -0.05012578453172245 0.017166377647417935 0
          0.05319392212919748 0.12992341539142382 0 -0.040428048191695654 -0.08217188290161657 0
          0.07419794041443893 0.031987712423143896 0 -0.009884188928688118 -0.07939902175089397 0
          -0.01709267982554294 0.03444994405291982 0 -0.05190984857070066 -0.0396042450996663 0
          -0.001280764278847121 -0.003464493984639652 0 0.01384589902891925 0.008831652709372494 0
          0.0062367983105615366 -0.023352259325931195 0 -0.004612242279009806 -0.02323946645672719 0
          -0.003868019125384305 0.00645326464267828 0 -0.010256579517056252 -0.0012177742962046411 0
          0.010991952450256155 0.012914085351531393 0 0.01025127749295521 0.0016500499213092704 0
          0.01270338082135132 0.014919122742340656 0 -0.00007769704241777009 -0.008456383348210092 0
          0.003513201124585003 -0.004071219382208938 0 0.0012494689161309564 -0.0003225462547505726 0
          0.0003983295746221834 0.0030657069568180207 0 0.0026481370076109198 -0.002875903335616994 0
          0.0071642659469553106 0.0008886131849632326 0 -0.002162976629286732 0.0005083678167962355 0
          0.001370220857151157 -0.0013102708197459047 0 -0.0007732473201204742 0.003183409743803777 0
          -0.00019360556282516713 0.0019305397361775885 0 0.00011985210914606983 -0.0007334033928153713 0
          -0.00032648767234449896 -0.0047241202878404494 0 0.00010544742136342478 -0.002836165989543365 0
          0.07493103594555164 -0.04831844729037196 0 0.08320210765815425 0.04309536054071241 0
          -0.02992028275354634 -0.07694382262237201 0 -0.10196523289054513 -0.008151893993410389 0
          -0.045537715922704496 0.0951870195952721 0 -0.04725024268338919 0.058320844839715474 0
          0.010586169799664615 0.0392532420158838 0 0.004844630842022697 -0.021876815733809542 0
          0.006693550420768439 -0.005071765318813067 0 -0.03900466215607322 -0.052334832988055364 0
          -0.022107187616695494 -0.040898816995049034 0 -0.010912639389963752 -0.009774769789856634 0
          -0.020072037013687878 0.013851354933956204 0 -0.0006039584079245131 -0.0015150308488799035 0
          0.02982042259441374 0.031679517357850226 0 0.03215834623855096 0.0365737208530167 0
          -0.005790601522884787 -0.018593849691728167 0 -0.002043741016470313 0.007688019169771317 0
          0.006839575610033381 0.02642751948937396 0 -0.000029755065215889372 0.02128978780580487 0
          0.02700994452243822 -0.02343429427533101 0 0.006445830576222826 -0.01973612893108355 0
          -0.00021363347255271524 -0.003180335902492069 0 0.0037331794544024216 0.0042416561870888105 0
          0.01912146625412156 0.002512058524591093 0 -0.006520706906924241 0.002123580948790769 0
          -0.005254346265531802 0.003276403442573334 0 -0.005056311412569363 -0.0319445104667133 0
          0.026418603466973486 0.023078386298316104 0 0.007620342377491828 -0.007562422302300904 0
          0.0717264277797367 -0.005597376632805497 0 0.014191596327294095 0.0012311724962425518 0
          -0.005654046010016393 0.002001896302245316 0 0.005428008932448349 -0.005746720552902597 0
          0.0028916583192192813 0.019646273625593062 0 0.014384867929231562 -0.027269806873530665 0
          0.051485925776592514 0.05051254776198395 0 -0.027554205318252346 -0.005291247740837073 0
          0.07999707939309153 0.014583515474596307 0 0.018223467017936826 0.02037324933638826 0
          0.04555488449736552 -0.005424061868880796 0 -0.023774235440592165 -0.02147765815888121 0
          <InformationKey name="L2_NORM_RANGE" location="vtkDataArray" length="2">
            <Value index="0">
              0
            </Value>
            <Value index="1">
              0.75336184661
            </Value>
          </InformationKey>
        </DataArray>
      </CellData>
      <Points>
        <DataArray type="Float32" Name="Points" NumberOfComponents="3" format="ascii" RangeMin="0.800000011920929" RangeMax="9.600275714582546">
          6.099924564361572 0.7551726698875427 0 5.713908672332764 1.5511434078216553 0
          5.287501811981201 0.7392560243606567 0 6.337732315063477 2.693572759628296 0
          7.2727274894714355 4 0 4.789450168609619 0.455789178609848 0
          4.914334297180176 1.5619853734970093 0 4.5937981605529785 0.9171930551528931 0
          4.25 0.4330126941204071 0 5.075174808502197 2.6770246028900146 0
          5.818181991577148 4 0 4 0.911578357219696 0
          3.75 0.4330126941204071 0 3.5 5.794379420720475e-10 0
          4.003536701202393 1.4846373796463013 0 4.304850101470947 2.216280698776245 0
          3.502586603164673 0.9728408455848694 0 3.21055006980896 0.455789178609848 0
          2.9087884426116943 0.055647801607847214 0 4.017580509185791 3.097895622253418 0
          3.513624668121338 2.259860038757324 0 3.104448080062866 1.572829246520996 0
          2.7160346508026123 0.7453813552856445 0 4.363636493682861 4 0
          2.1901140213012695 0.010843842290341854 0 2.996014356613159 2.9170591831207275 0
          2.296038866043091 1.4410018920898438 0 2.5660502910614014 2.144286870956421 0
          1.7997161149978638 0.7087167501449585 0 2.909090995788574 4 0
          1.1272525787353516 -0.07592880725860596 0 1.57744562625885 1.767566442489624 0
          1.9087296724319458 2.9074037075042725 0 0.8291426301002502 0.8281394839286804 0
          0 -0.800000011920929 0 1.454545497894287 4 0
          0 0.800000011920929 0 0 2.4000000953674316 0
          0 4 0 3.75 -0.4330126941204071 0
          3.21055006980896 -0.455789178609848 0 4.5 0 0
          5.091211795806885 -0.055647801607847214 0 5.8098859786987305 -0.010843837633728981 0
          6.693774223327637 0.02548009343445301 0 6.861466884613037 1.2402846813201904 0
          7.45475435256958 2.399545669555664 0 8.727272987365723 4 0
          2.712498188018799 -0.7392560243606567 0 1.9000751972198486 -0.7551726698875427 0
          1.1717199087142944 -1.3240290880203247 0 0 -2.4000000953674316 0
          <InformationKey name="L2_NORM_RANGE" location="vtkDataArray" length="2">
            <Value index="0">
              0.80000001192
            </Value>
            <Value index="1">
              9.6002757146
            </Value>
          </InformationKey>
        </DataArray>
      </Points>
      <Cells>
        <DataArray type="Int64" Name="connectivity" format="ascii" RangeMin="0" RangeMax="51">
          39 13 40 12 8 11
          13 12 17 8 41 5
          11 8 7 17 12 16
          5 41 42 12 11 16
          16 11 14 8 5 7
          7 5 2 11 7 14
          5 42 2 7 2 6
          6 2 1 42 43 2
          7 6 14 1 2 0
          6 1 9 15 14 6
          15 6 9 0 2 43
          0 43 44 9 1 3
          1 0 45 15 9 19
          0 44 45 23 19 9
          3 1 45 3 45 46
          9 3 10 3 46 4
          47 4 46 10 23 9
          4 10 3 40 13 18
          13 17 18 18 17 22
          17 16 22 40 18 48
          18 22 24 16 14 21
          24 22 28 21 14 20
          18 24 48 16 21 22
          20 14 15 28 22 26
          21 20 27 24 28 30
          26 22 21 26 21 27
          27 20 25 30 28 33
          49 48 24 49 24 30
          28 26 31 20 15 19
          26 27 31 49 30 50
          25 20 19 25 19 29
          33 28 31 33 31 37
          27 25 32 30 36 34
          32 25 29 29 19 23
          27 32 31 32 29 35
          32 35 37 35 38 37
          50 30 34 50 34 51
          37 31 32 37 36 33
          33 36 30
        </DataArray>
        <DataArray type="Int64" Name="offsets" format="ascii" RangeMin="3" RangeMax="231">
          3 6 9 12 15 18
          21 24 27 30 33 36
          39 42 45 48 51 54
          57 60 63 66 69 72
          75 78 81 84 87 90
          93 96 99 102 105 108
          111 114 117 120 123 126
          129 132 135 138 141 144
          147 150 153 156 159 162
          165 168 171 174 177 180
          183 186 189 192 195 198
          201 204 207 210 213 216
          219 222 225 228 231
        </DataArray>
        <DataArray type="UInt8" Name="types" format="ascii" RangeMin="5" RangeMax="5">
          5 5 5 5 5 5
          5 5 5 5 5 5
          5 5 5 5 5 5
          5 5 5 5 5 5
          5 5 5 5 5 5
          5 5 5 5 5 5
          5 5 5 5 5 5
          5 5 5 5 5 5
          5 5 5 5 5 5
          5 5 5 5 5 5
          5 5 5 5 5 5
          5 5 5 5 5 5
          5 5 5 5 5
        </DataArray>
      </Cells>
    </Piece>
  </UnstructuredGrid>
</VTKFile>
