<?xml version="1.0"?>
<VTKFile type="UnstructuredGrid" version="0.1" byte_order="LittleEndian" header_type="UInt32" compressor="vtkZLibDataCompressor">
  <UnstructuredGrid>
    <Piece NumberOfPoints="52" NumberOfCells="77">
      <PointData>
        <DataArray type="Float64" Name="nsi_SBC" NumberOfComponents="3" format="ascii" RangeMin="0" RangeMax="0">
          0 0 0 0 0 0
          0 0 0 0 0 0
          0 0 0 0 0 0
          0 0 0 0 0 0
          0 0 0 0 0 0
          0 0 0 0 0 0
          0 0 0 0 0 0
          0 0 0 0 0 0
          0 0 0 0 0 0
          0 0 0 0 0 0
          0 0 0 0 0 0
          0 0 0 0 0 0
          0 0 0 0 0 0
          0 0 0 0 0 0
          0 0 0 0 0 0
          0 0 0 0 0 0
          0 0 0 0 0 0
          0 0 0 0 0 0
          0 0 0 0 0 0
          0 0 0 0 0 0
          0 0 0 0 0 0
          0 0 0 0 0 0
          0 0 0 0 0 0
          0 0 0 0 0 0
          0 0 0 0 0 0
          0 0 0 0 0 0
          <InformationKey name="L2_NORM_RANGE" location="vtkDataArray" length="2">
            <Value index="0">
              0
            </Value>
            <Value index="1">
              0
            </Value>
          </InformationKey>
        </DataArray>
        <DataArray type="Float64" Name="nsi_SFIXNO" NumberOfComponents="3" format="ascii" RangeMin="0" RangeMax="1.7320508075688772">
          -1 -1 -1 -1 -1 -1
          -1 -1 -1 -1 -1 -1
          0 0 0 -1 -1 -1
          -1 -1 -1 -1 -1 -1
          0 0 0 -1 -1 -1
          0 0 0 -1 -1 -1
          0 0 0 0 0 0
          -1 -1 -1 -1 -1 -1
          -1 -1 -1 -1 -1 -1
          -1 -1 -1 -1 -1 -1
          -1 -1 -1 -1 -1 -1
          -1 -1 -1 0 0 0
          -1 -1 -1 -1 -1 -1
          -1 -1 -1 -1 -1 -1
          -1 -1 -1 0 0 0
          -1 -1 -1 -1 -1 -1
          -1 -1 -1 -1 -1 -1
          0 0 0 0 0 0
          0 0 0 0 0 0
          0 0 0 0 0 0
          -1 -1 -1 0 0 0
          -1 -1 -1 -1 -1 -1
          -1 -1 -1 -1 -1 -1
          -1 -1 -1 0 0 0
          -1 -1 -1 -1 -1 -1
          -1 -1 -1 0 0 0
          <InformationKey name="L2_NORM_RANGE" location="vtkDataArray" length="2">
            <Value index="0">
              0
            </Value>
            <Value index="1">
              1.7320508076
            </Value>
          </InformationKey>
        </DataArray>
        <DataArray type="Float64" Name="nsi_UBC" NumberOfComponents="3" format="ascii" RangeMin="0" RangeMax="1">
          0 0 0 0 0 0
          0 0 0 0 0 0
          0 0 0 0 0 0
          0 0 0 0 0 0
          0 0 0 0 0 0
          0 0 0 0 0 0
          0 0 0 0 0 0
          0 0 0 0 0 0
          0 0 0 0 0 0
          0 0 0 0 0 0
          0 0 0 0 0 0
          0 0 0 0 0 0
          0 0 0 0 0 0
          0 0 0 0 0 0
          0 0 0 0 0 0
          0 0 0 0 0 0
          0 0 0 0 0 0
          1 0 0 0 0 0
          1 0 0 1 0 0
          1 0 0 0 0 0
          0 0 0 0 0 0
          0 0 0 0 0 0
          0 0 0 0 0 0
          0 0 0 0 0 0
          0 0 0 0 0 0
          0 0 0 1 0 0
          <InformationKey name="L2_NORM_RANGE" location="vtkDataArray" length="2">
            <Value index="0">
              0
            </Value>
            <Value index="1">
              1
            </Value>
          </InformationKey>
        </DataArray>
        <DataArray type="Float64" Name="nsi_UFIXNO" NumberOfComponents="3" format="ascii" RangeMin="1" RangeMax="1.4142135623730951">
          -1 -1 0 -1 -1 0
          -1 -1 0 -1 -1 0
          0 1 0 -1 -1 0
          -1 -1 0 -1 -1 0
          1 1 0 -1 -1 0
          0 1 0 -1 -1 0
          1 1 0 1 1 0
          -1 -1 0 -1 -1 0
          -1 -1 0 -1 -1 0
          -1 -1 0 -1 -1 0
          -1 -1 0 -1 -1 0
          -1 -1 0 0 1 0
          -1 -1 0 -1 -1 0
          -1 -1 0 -1 -1 0
          -1 -1 0 0 1 0
          -1 -1 0 -1 -1 0
          -1 -1 0 -1 -1 0
          1 1 0 0 1 0
          1 1 0 1 1 0
          1 1 0 1 1 0
          -1 -1 0 1 1 0
          -1 -1 0 -1 -1 0
          -1 -1 0 -1 -1 0
          -1 -1 0 0 1 0
          -1 -1 0 -1 -1 0
          -1 -1 0 1 1 0
          <InformationKey name="L2_NORM_RANGE" location="vtkDataArray" length="2">
            <Value index="0">
              1
            </Value>
            <Value index="1">
              1.4142135624
            </Value>
          </InformationKey>
        </DataArray>
        <DataArray type="Float64" Name="Velocity" NumberOfComponents="3" format="ascii" RangeMin="0" RangeMax="1.6096572919852619">
          0.9734976554061477 -0.02515942793045879 0 1.006429598177729 -0.04195496165808915 0
          0.9820370334121489 -0.07675859258908799 0 1.0137568394132739 -0.012682004014517296 0
          1.0097400728018617 0 0 0.9614624315596424 -0.37909828637993187 0
          1.0348128513103947 -0.06207687228526021 0 1.223554510234425 -0.20826430690232203 0
          0 0 0 1.0350083019536238 -0.014255781025096568 0
          1.0210970293307617 0 0 1.6089502448828739 0.04770437225943265 0
          0 0 0 0 0 0
          1.0684775088279834 0.015809806725155227 0 1.0587646457180886 -0.006132754040173058 0
          1.1934247159311477 0.16139463041298624 0 0.9831297400454652 0.33214858214162774 0
          0.8978962878944797 0.01448227433053063 0 1.0378586992343146 -0.0005224551564852169 0
          1.0518670085549355 0.0016289704139354356 0 1.0086096795262054 0.03991325437349906 0
          0.9433315390304725 0.03370490819537833 0 1.0331337246453993 0 0
          0.9476133004242743 0.01609721458172202 0 1.063054104682773 0.0094852711551295 0
          0.9808176561588592 0.0050082327940714775 0 1.0505388106180593 -0.0383736214758505 0
          0.921745555245803 0.022611405615930964 0 1.0558924964074528 0 0
          0.8206750737834441 -0.0016345666124329057 0 0.9006042272501584 0.07604329195450663 0
          0.9479957370811085 -0.026174781063464044 0 0.8293886401140743 0.0597655249206067 0
          1.0000000013329204 0 0 0.9359128895234111 0 0
          1.0000000013329204 0 0 1.00000000133292 0 0
          1.0000000013329202 0 0 0 0 0
          0.9718014952113363 -0.29568685531342914 0 0 0 0
          0.8188049817454287 0.019024510789810867 0 0.919305299274743 -0.0033636840757812836 0
          0.9808597072512543 -0.0014954648269483427 0 0.9943722811851003 -0.015214918871900825 0
          1.0041999681798095 -0.007547241299107929 0 1.0031266441607987 0 0
          0.9622896613584546 -0.0254936733530135 0 0.9820802664369835 -0.007979911591265241 0
          0.8603153295338314 -0.06831626029702753 0 1.0000000013329207 0 0
          <InformationKey name="L2_NORM_RANGE" location="vtkDataArray" length="2">
            <Value index="0">
              0
            </Value>
            <Value index="1">
              1.609657292
            </Value>
          </InformationKey>
        </DataArray>
        <DataArray type="Float64" Name="Pressure" format="ascii" RangeMin="72.77113432296568" RangeMax="155.13376546826098">
          98.73808210827428 102.8293361890234 106.62045491920007 96.77514113888253 87.39111838919183 110.73877205133276
          110.95842456412771 113.78013611367024 116.15504279449233 109.66730706280772 102.14177088968151 120.48355409193111
          125.3342822959342 129.74869667965643 120.73368170520476 117.60375706068164 126.62090075788248 130.4527598143597
          133.45217853146508 120.6770932974133 125.92596327564131 130.33765798233534 134.72828129720241 117.09807791066837
          139.82497725228743 131.33132539676703 138.49487668727417 135.80866916079503 143.30955299424025 132.17700335001263
          150.15906681199692 145.59661877961557 142.85157145774005 151.69034253279406 154.9064850991827 146.93648096530669
          155.0841653816823 155.13376546826098 153.34921097044293 125.36088620471362 130.48574575483696 111.72600899740097
          107.95087504743336 101.35951584631073 92.83977714570251 91.29610697592386 85.49856526460037 72.77113432296568
          134.8336234498209 142.57981179816542 149.455328496503 154.96989121849757
        </DataArray>
        <DataArray type="Float64" Name="Sigma" NumberOfComponents="6" format="ascii" RangeMin="0.000013246907849114408" RangeMax="0.02439310322506165">
          0.00019975877218667793 -0.0001604712950245194 0 0.000058505481352845044 0 0
          -0.00002750645335536476 0.00003881919644470933 0 0.00008167861848855751 0 0
          -0.0006999251636151472 0.000455835014417863 0 0.0010994191591060436 0 0
          -0.00006484031632384457 0.0000669851335310327 0 0.00004229504742816243 0 0
          -0.000029025343659851587 0.000028212735741305618 0 0.0000015099107281521666 0 0
          -0.0005033779609473225 0.002662919549215157 0 0.002516960380954924 0 0
          -0.0003195419280323441 0.00041940403969958895 0 0.00007402504735736663 0 0
          -0.0018686460746125345 0.0017420760217726698 0 -0.0006669007796864612 0 0
          0.0017215537423482903 -0.0014369624475409101 0 0.010474498701743266 0 0
          -0.00012900111694370058 0.00010664866157650544 0 -0.00004330538905660615 0 0
          -0.00001962500248240607 0.00002344548006784449 0 -7.019346401139174e-7 0 0
          0.0023934199951327444 -0.0005947191198940091 0 -0.007177421632328488 0 0
          0.0008431001235830743 0.001544572853409515 0 0.009228516609813395 0 0
          -0.01451575037516594 0.019603871590218723 0 0.00006851765172544974 0 0
          -0.00003314825925734829 0.00011373744200884441 0 -0.0007031010006339129 0 0
          0.0001137035581058912 -0.00009613775773999982 0 -0.00012366889943337376 0 0
          0.001972286561222505 -0.001999820987681397 0 0.00044115566244067506 0 0
          0.004506576906789995 -0.0045134182286100605 0 0.0020298677287025444 0 0
          -0.0012069634615883525 0.0014682847872650618 0 0.0002750046244392825 0 0
          -0.00004195937283155589 0.00003996048267603987 0 -0.00004083949076994577 0 0
          0.00006432211018288822 -0.00009397783063280861 0 0.000009346726416688662 0 0
          0.0004026161411774509 -0.00047071750949676455 0 6.094458312152727e-8 0 0
          -0.0005710401899153304 0.0005447614062863381 0 0.0006338632432004558 0 0
          -0.00002305016587050867 0.00004730432158763582 0 0.000021106184035663507 0 0
          -0.0002828793480210539 0.0002203181590459738 0 -0.00023434647727835794 0 0
          -0.0003327493052825199 0.0003639302990966891 0 -8.961334362180263e-7 0 0
          0.00033358283096542886 -0.00029996215529640304 0 0.0003789822996579223 0 0
          0.00013014405775110517 -0.00008652188737098277 0 0.00038691585994666205 0 0
          0.0009274338815851746 -0.000854323120161332 0 -0.0004319319752586458 0 0
          0.00022346702966949996 -0.00029137366563211566 0 -0.00017779764015689791 0 0
          -0.0008262437131043754 0.0007017882221606169 0 0.00015229923040047168 0 0
          -0.00022854415335502352 0.0001547424569429926 0 -0.0006232988753057429 0 0
          0.0006612850357952838 -0.0006887238359316724 0 0.0003732270137347808 0 0
          -0.0008709880344104934 0.0007313508818637663 0 0.0013331896656629003 0 0
          0.0010499559849640665 -0.0007483087195739081 0 0.00006807403612314062 0 0
          -0.0015123560535906838 0.0014005297249407942 0 -0.0010158335703911265 0 0
          0.0008944819204365471 -0.00041476605906924906 0 -0.0013080946761618308 0 0
          0.0001617661770969804 0.0000676847163628261 0 0.0003089693864739773 0 0
          0.0031170290431077963 -0.0030530582672329337 0 0.00040346917270749885 0 0
          0.0002852100453808146 0.0021062701260699175 0 -0.008778191880419176 0 0
          0.004865632271900478 -0.004971082897495325 0 -0.002569773081971603 0 0
          0.016065808466712694 -0.01490180335161911 0 7.944439313245285e-7 0 0
          0.002722202190794351 -0.0026624818772300837 0 -0.0002961716476199066 0 0
          0.000656238995000154 -0.00043503261811099914 0 0.00003854856612274517 0 0
          0.00005056963354557522 -0.00011904545000456476 0 0.0000012228983056445013 0 0
          -0.000008166171278791058 0.000009537097887889909 0 0.00009037767133672763 0 0
          -0.00001995068915803717 0.000019387856402652535 0 0.000023133996363798396 0 0
          -0.000008843186734640393 0.000009226123334921512 0 0.0000034867268530852605 0 0
          -0.0008163337812878464 0.0007262667543528142 0 -0.0005362893053683427 0 0
          0.0002544964255673634 -0.00016583218173681083 0 0.0003277664846794226 0 0
          -0.0008851792847406485 0.0007618990070163018 0 -0.0003630811323781575 0 0
          -0.00021741396157746545 0.0004843298862997784 0 -0.00012875559161044768 0 0
          <InformationKey name="L2_NORM_RANGE" location="vtkDataArray" length="2">
            <Value index="0">
              1.3246907849e-05
            </Value>
            <Value index="1">
              0.024393103225
            </Value>
          </InformationKey>
        </DataArray>
      </PointData>
      <CellData>
        <DataArray type="UInt8" Name="vtkGhostType" format="ascii" RangeMin="0" RangeMax="1">
          1 0 0 1 0 0
          1 0 0 0 0 0
          1 0 0 1 0 0
          0 0 0 1 1 0
          1 0 1 0 1 1
          0 1 1 0 0 1
          0 0 0 1 0 0
          0 0 1 0 0 0
          0 0 0 0 0 0
          1 1 0 0 0 1
          0 0 0 0 0 0
          0 0 0 0 0 0
          1 1 0 0 0
        </DataArray>
        <DataArray type="Float64" Name="Velocity_SGS" NumberOfComponents="3" format="ascii" RangeMin="0" RangeMax="1.0753594304888172">
          6.9108615951451e-310 6.9108615951451e-310 4.6445549438632e-310 0.6035304994940788 -0.31831586954348245 0
          1.074676880267915 0.038308063888099556 0 0.5744745140904972 0.3016418322808496 0
          0.5932040882604576 -0.259088407939496 0 0.19077425371726858 -0.17237583014340135 0
          0.2513795230983072 0.05283978736038368 0 -0.029603622110053504 -0.04628991029638991 0
          0.15891777709938124 0.19215140993065363 0 -0.13396679164976077 -0.0687920607168343 0
          0.15823945408398027 0.0063048539464417176 0 -0.05268264788971622 -0.035825962370520215 0
          -0.1018984360208515 0.03696006552673652 0 -0.05727259498695411 0.028071566251999927 0
          0.0034700457766486665 0.014905662790893944 0 0.009173786691143708 -0.008799477209078994 0
          0.02039248053197616 -0.023706462677313418 0 0.0035163483938973634 -0.005188914952497514 0
          -0.004921958215424278 0.002165652340291661 0 -0.010486785075603907 0.0007077233916101093 0
          0.01848267026143529 0.010081667617221486 0 0.0017761830096510176 -0.005556364547270823 0
          0.006980599668634682 0.006212583786469914 0 -0.008130111423620235 -0.009495113900635607 0
          0.005014159296897445 -0.004209301618680458 0 0.003906567648539812 -0.0038960918045630854 0
          -0.004512270401628874 -0.00005347893974952476 0 -0.000031759342011918046 0.003977930362742211 0
          0.0054026712381688435 0.0033029695835109603 0 -0.0030843438744244897 0.002571329705672072 0
          0.0015187680824927867 -0.002928718466101514 0 0.00030457315120975293 0.004145779842776403 0
          0.000019452575405520963 0.0022556040572444622 0 0.000034131887884909654 -0.001239123994757276 0
          -0.0002038037235676727 -0.003075891877011529 0 -0.0003354995216799105 -0.0030062203585153303 0
          0.03967061846094791 -0.08191025675484154 0 0.05735108570353126 0.09070677653319244 0
          -0.06992498878302349 -0.09212549748411177 0 -0.10635272403800818 -0.022052914252518763 0
          -0.07773811139456399 0.10138995817427279 0 0.0005276194892906774 0.036353904377695714 0
          0.016863288158907266 0.02100680752116488 0 -0.002951652895799773 0.0009551813485185277 0
          0.016709747705428483 -0.0046697188160005985 0 0.0026234383781040507 -0.038102179528419954 0
          -0.015341794583492344 -0.037185126453525244 0 0.001005680205255841 -0.0013445065694260665 0
          -0.0055331658546353725 0.0039484696656385265 0 -0.003668881880577144 0.011912774217707872 0
          0.045826499986912364 0.022146392213017625 0 0.020836930605134012 0.027308306117616886 0
          -0.01577796332881876 -0.011497320001352751 0 -0.009566547973500213 0.00268785769929722 0
          0.023122289878911132 0.07285914013447056 0 -0.004292065546264989 0.00522217536368033 0
          0.02934110821317279 -0.008508717587183981 0 0.022130775111960113 -0.025791166409404015 0
          0.0007889583451230375 -0.001798958796622818 0 -0.00018143648956725142 -0.000690698725186548 0
          0.06168905304269704 0.005501895372592998 0 -0.004108984094176199 -0.0036224238913207807 0
          -0.007600792198948712 0.0025377239863502484 0 -0.022134092743004305 -0.0748551099963009 0
          0.07853334567109874 0.06452286873080847 0 0.023932634603060627 0.003663954493044598 0
          0.15236472425294326 -0.009750753363286261 0 0.02256645147183444 0.007525141972394996 0
          -0.0035275553350470126 -0.0008744411749782967 0 0.03278417873248736 -0.039433484675879635 0
          0.024635384274536164 0.04773115607305031 0 0.03861884006555172 -0.07715045612597256 0
          0.1150925715498031 0.0978776132698958 0 -0.07215051956835053 -0.011471364379894886 0
          0.17013102645387496 0.030221164764971768 0 0.018703275471319045 0.03945358893735247 0
          0.11498246267156598 -0.023698998587824836 0 -0.08495501592153823 -0.0516653440868583 0
          <InformationKey name="L2_NORM_RANGE" location="vtkDataArray" length="2">
            <Value index="0">
              0
            </Value>
            <Value index="1">
              1.0753594305
            </Value>
          </InformationKey>
        </DataArray>
      </CellData>
      <Points>
        <DataArray type="Float32" Name="Points" NumberOfComponents="3" format="ascii" RangeMin="0.800000011920929" RangeMax="9.600275714582546">
          6.099924564361572 0.7551726698875427 0 5.713908672332764 1.5511434078216553 0
          5.287501811981201 0.7392560243606567 0 6.337732315063477 2.693572759628296 0
          7.2727274894714355 4 0 4.789450168609619 0.455789178609848 0
          4.914334297180176 1.5619853734970093 0 4.5937981605529785 0.9171930551528931 0
          4.25 0.4330126941204071 0 5.075174808502197 2.6770246028900146 0
          5.818181991577148 4 0 4 0.911578357219696 0
          3.75 0.4330126941204071 0 3.5 5.794379420720475e-10 0
          4.003536701202393 1.4846373796463013 0 4.304850101470947 2.216280698776245 0
          3.502586603164673 0.9728408455848694 0 3.21055006980896 0.455789178609848 0
          2.9087884426116943 0.055647801607847214 0 4.017580509185791 3.097895622253418 0
          3.513624668121338 2.259860038757324 0 3.104448080062866 1.572829246520996 0
          2.7160346508026123 0.7453813552856445 0 4.363636493682861 4 0
          2.1901140213012695 0.010843842290341854 0 2.996014356613159 2.9170591831207275 0
          2.296038866043091 1.4410018920898438 0 2.5660502910614014 2.144286870956421 0
          1.7997161149978638 0.7087167501449585 0 2.909090995788574 4 0
          1.1272525787353516 -0.07592880725860596 0 1.57744562625885 1.767566442489624 0
          1.9087296724319458 2.9074037075042725 0 0.8291426301002502 0.8281394839286804 0
          0 -0.800000011920929 0 1.454545497894287 4 0
          0 0.800000011920929 0 0 2.4000000953674316 0
          0 4 0 3.75 -0.4330126941204071 0
          3.21055006980896 -0.455789178609848 0 4.5 0 0
          5.091211795806885 -0.055647801607847214 0 5.8098859786987305 -0.010843837633728981 0
          6.693774223327637 0.02548009343445301 0 6.861466884613037 1.2402846813201904 0
          7.45475435256958 2.399545669555664 0 8.727272987365723 4 0
          2.712498188018799 -0.7392560243606567 0 1.9000751972198486 -0.7551726698875427 0
          1.1717199087142944 -1.3240290880203247 0 0 -2.4000000953674316 0
          <InformationKey name="L2_NORM_RANGE" location="vtkDataArray" length="2">
            <Value index="0">
              0.80000001192
            </Value>
            <Value index="1">
              9.6002757146
            </Value>
          </InformationKey>
        </DataArray>
      </Points>
      <Cells>
        <DataArray type="Int64" Name="connectivity" format="ascii" RangeMin="0" RangeMax="51">
          39 13 40 12 8 11
          13 12 17 8 41 5
          11 8 7 17 12 16
          5 41 42 12 11 16
          16 11 14 8 5 7
          7 5 2 11 7 14
          5 42 2 7 2 6
          6 2 1 42 43 2
          7 6 14 1 2 0
          6 1 9 15 14 6
          15 6 9 0 2 43
          0 43 44 9 1 3
          1 0 45 15 9 19
          0 44 45 23 19 9
          3 1 45 3 45 46
          9 3 10 3 46 4
          47 4 46 10 23 9
          4 10 3 40 13 18
          13 17 18 18 17 22
          17 16 22 40 18 48
          18 22 24 16 14 21
          24 22 28 21 14 20
          18 24 48 16 21 22
          20 14 15 28 22 26
          21 20 27 24 28 30
          26 22 21 26 21 27
          27 20 25 30 28 33
          49 48 24 49 24 30
          28 26 31 20 15 19
          26 27 31 49 30 50
          25 20 19 25 19 29
          33 28 31 33 31 37
          27 25 32 30 36 34
          32 25 29 29 19 23
          27 32 31 32 29 35
          32 35 37 35 38 37
          50 30 34 50 34 51
          37 31 32 37 36 33
          33 36 30
        </DataArray>
        <DataArray type="Int64" Name="offsets" format="ascii" RangeMin="3" RangeMax="231">
          3 6 9 12 15 18
          21 24 27 30 33 36
          39 42 45 48 51 54
          57 60 63 66 69 72
          75 78 81 84 87 90
          93 96 99 102 105 108
          111 114 117 120 123 126
          129 132 135 138 141 144
          147 150 153 156 159 162
          165 168 171 174 177 180
          183 186 189 192 195 198
          201 204 207 210 213 216
          219 222 225 228 231
        </DataArray>
        <DataArray type="UInt8" Name="types" format="ascii" RangeMin="5" RangeMax="5">
          5 5 5 5 5 5
          5 5 5 5 5 5
          5 5 5 5 5 5
          5 5 5 5 5 5
          5 5 5 5 5 5
          5 5 5 5 5 5
          5 5 5 5 5 5
          5 5 5 5 5 5
          5 5 5 5 5 5
          5 5 5 5 5 5
          5 5 5 5 5 5
          5 5 5 5 5 5
          5 5 5 5 5
        </DataArray>
      </Cells>
    </Piece>
  </UnstructuredGrid>
</VTKFile>
