<?xml version="1.0"?>
<VTKFile type="UnstructuredGrid" version="0.1" byte_order="LittleEndian" header_type="UInt32" compressor="vtkZLibDataCompressor">
  <UnstructuredGrid>
    <Piece NumberOfPoints="52" NumberOfCells="77">
      <PointData>
        <DataArray type="Float64" Name="nsi_SBC" NumberOfComponents="3" format="ascii" RangeMin="0" RangeMax="0">
          0 0 0 0 0 0
          0 0 0 0 0 0
          0 0 0 0 0 0
          0 0 0 0 0 0
          0 0 0 0 0 0
          0 0 0 0 0 0
          0 0 0 0 0 0
          0 0 0 0 0 0
          0 0 0 0 0 0
          0 0 0 0 0 0
          0 0 0 0 0 0
          0 0 0 0 0 0
          0 0 0 0 0 0
          0 0 0 0 0 0
          0 0 0 0 0 0
          0 0 0 0 0 0
          0 0 0 0 0 0
          0 0 0 0 0 0
          0 0 0 0 0 0
          0 0 0 0 0 0
          0 0 0 0 0 0
          0 0 0 0 0 0
          0 0 0 0 0 0
          0 0 0 0 0 0
          0 0 0 0 0 0
          0 0 0 0 0 0
          <InformationKey name="L2_NORM_RANGE" location="vtkDataArray" length="2">
            <Value index="0">
              0
            </Value>
            <Value index="1">
              0
            </Value>
          </InformationKey>
        </DataArray>
        <DataArray type="Float64" Name="nsi_SFIXNO" NumberOfComponents="3" format="ascii" RangeMin="0" RangeMax="1.7320508075688772">
          -1 -1 -1 -1 -1 -1
          -1 -1 -1 -1 -1 -1
          0 0 0 -1 -1 -1
          -1 -1 -1 -1 -1 -1
          0 0 0 -1 -1 -1
          0 0 0 -1 -1 -1
          0 0 0 0 0 0
          -1 -1 -1 -1 -1 -1
          -1 -1 -1 -1 -1 -1
          -1 -1 -1 -1 -1 -1
          -1 -1 -1 -1 -1 -1
          -1 -1 -1 0 0 0
          -1 -1 -1 -1 -1 -1
          -1 -1 -1 -1 -1 -1
          -1 -1 -1 0 0 0
          -1 -1 -1 -1 -1 -1
          -1 -1 -1 -1 -1 -1
          0 0 0 0 0 0
          0 0 0 0 0 0
          0 0 0 0 0 0
          -1 -1 -1 0 0 0
          -1 -1 -1 -1 -1 -1
          -1 -1 -1 -1 -1 -1
          -1 -1 -1 0 0 0
          -1 -1 -1 -1 -1 -1
          -1 -1 -1 0 0 0
          <InformationKey name="L2_NORM_RANGE" location="vtkDataArray" length="2">
            <Value index="0">
              0
            </Value>
            <Value index="1">
              1.7320508076
            </Value>
          </InformationKey>
        </DataArray>
        <DataArray type="Float64" Name="nsi_UBC" NumberOfComponents="3" format="ascii" RangeMin="0" RangeMax="1">
          0 0 0 0 0 0
          0 0 0 0 0 0
          0 0 0 0 0 0
          0 0 0 0 0 0
          0 0 0 0 0 0
          0 0 0 0 0 0
          0 0 0 0 0 0
          0 0 0 0 0 0
          0 0 0 0 0 0
          0 0 0 0 0 0
          0 0 0 0 0 0
          0 0 0 0 0 0
          0 0 0 0 0 0
          0 0 0 0 0 0
          0 0 0 0 0 0
          0 0 0 0 0 0
          0 0 0 0 0 0
          1 0 0 0 0 0
          1 0 0 1 0 0
          1 0 0 0 0 0
          0 0 0 0 0 0
          0 0 0 0 0 0
          0 0 0 0 0 0
          0 0 0 0 0 0
          0 0 0 0 0 0
          0 0 0 1 0 0
          <InformationKey name="L2_NORM_RANGE" location="vtkDataArray" length="2">
            <Value index="0">
              0
            </Value>
            <Value index="1">
              1
            </Value>
          </InformationKey>
        </DataArray>
        <DataArray type="Float64" Name="nsi_UFIXNO" NumberOfComponents="3" format="ascii" RangeMin="1" RangeMax="1.4142135623730951">
          -1 -1 0 -1 -1 0
          -1 -1 0 -1 -1 0
          0 1 0 -1 -1 0
          -1 -1 0 -1 -1 0
          1 1 0 -1 -1 0
          0 1 0 -1 -1 0
          1 1 0 1 1 0
          -1 -1 0 -1 -1 0
          -1 -1 0 -1 -1 0
          -1 -1 0 -1 -1 0
          -1 -1 0 -1 -1 0
          -1 -1 0 0 1 0
          -1 -1 0 -1 -1 0
          -1 -1 0 -1 -1 0
          -1 -1 0 0 1 0
          -1 -1 0 -1 -1 0
          -1 -1 0 -1 -1 0
          1 1 0 0 1 0
          1 1 0 1 1 0
          1 1 0 1 1 0
          -1 -1 0 1 1 0
          -1 -1 0 -1 -1 0
          -1 -1 0 -1 -1 0
          -1 -1 0 0 1 0
          -1 -1 0 -1 -1 0
          -1 -1 0 1 1 0
          <InformationKey name="L2_NORM_RANGE" location="vtkDataArray" length="2">
            <Value index="0">
              1
            </Value>
            <Value index="1">
              1.4142135624
            </Value>
          </InformationKey>
        </DataArray>
        <DataArray type="Float64" Name="Velocity" NumberOfComponents="3" format="ascii" RangeMin="0" RangeMax="1.5125714704150484">
          0.9677030216487307 -0.028752653249747472 0 1.0023604069690981 -0.061687418566777064 0
          0.999484306307211 -0.20972985638783723 0 1.0225130665248747 -0.021275288830771025 0
          1.0141719077954274 0 0 0.6421834258886951 -0.42943187467928956 0
          1.0558313070685836 -0.11294284236489013 0 1.3911653976990235 -0.2740184176119969 0
          0 0 0 1.0621725478470656 -0.019293671348806538 0
          1.033279085166054 0 0 1.5083615818088199 0.11277318669230106 0
          0 0 0 0 0 0
          1.1847256808623328 0.05023855074229931 0 1.083015961865481 0.006950067481649532 0
          1.32891284663001 0.27683379154515364 0 0.7704876019873239 0.4067919017906181 0
          0.8973318112076731 0.023881197179845985 0 1.0542079090247554 0.009361846015067347 0
          1.0690046910604802 -0.00015121133226823362 0 0.9930634685691215 0.0602672367168678 0
          0.9486480790591111 0.07664811295311007 0 1.0461238029476134 0 0
          0.8873757900299397 0.007091972460975023 0 1.0780044934792476 0.00595830639600772 0
          0.9653955798955194 0.04284603578936884 0 1.0732102205238256 -0.0031578890087173342 0
          0.919389983368557 0.0388019193155129 0 1.0605430395003823 0 0
          0.9273372119046845 -0.011586871899903527 0 0.9702790748521991 0.08519941733769414 0
          1.0052224022409766 -0.003660267261559574 0 0.9337274483144713 0.04780602038210679 0
          0.9999999990462067 0 0 1.0165246406687973 0 0
          0.9999999990462067 0 0 0.9999999990462067 0 0
          0.9999999990462067 0 0 0 0 0
          0.7738141401801056 -0.35443640680275423 0 0 0 0
          0.6195954148864046 0.025922414193309644 0 0.8325113989905196 0.000032281225095025205 0
          0.9689538790493459 -0.001714320909723875 0 0.9928785070688504 -0.02540296871119636 0
          1.0058150512582804 -0.01153203950711073 0 1.0055826898739997 0 0
          0.982068182857135 -0.05734777867826232 0 0.9642110410424044 -0.025220819441743602 0
          0.9556137841765568 -0.05938159435874696 0 0.9999999990462067 0 0
          <InformationKey name="L2_NORM_RANGE" location="vtkDataArray" length="2">
            <Value index="0">
              0
            </Value>
            <Value index="1">
              1.5125714704
            </Value>
          </InformationKey>
        </DataArray>
        <DataArray type="Float64" Name="Pressure" format="ascii" RangeMin="-0.33471569715903204" RangeMax="0.223268950735144">
          0.0414268255357173 -0.04324254347618409 0.012481588464052153 -0.01661926832607298 -0.0063039361503790985 -0.08365553359014127
          -0.04061849853012243 -0.18786516228775013 -0.20957540101890373 -0.03534899959235599 -0.018991028369190373 -0.33471569715903204
          0.06386458518730319 0.223268950735144 -0.08080822221194497 -0.00011921676890830151 -0.05147893023954573 0.0008449928849182634
          -0.013901838068028501 -0.010630176902446255 -0.0407714007424148 -0.05441535977415105 -0.06276565537876685 0.001970725928706613
          -0.06344165912174696 -0.04012021605870691 -0.0034939396804580967 -0.023081200044951546 0.02601045158606143 -0.01134038655688043
          0.1908411628350417 0.13063305497419112 0.1423147355263538 0.18586283464376832 0.17146236466395365 0.1239785849796238
          0.17522167458204532 0.1415947803572338 0.05732814160618853 0.0875451207131155 0.03764540230772002 0.004961729493695806
          0.02212431035872683 0.10715497633338743 -0.020292775267603404 0.004296367456197753 -0.00032659665996853454 -0.0055559763839833735
          -0.06357456202487101 0.01155334189030412 0.19726986412202568 0.1358040196539427
        </DataArray>
        <DataArray type="Float64" Name="Sigma" NumberOfComponents="6" format="ascii" RangeMin="0.00004172312831737749" RangeMax="0.04466345919758131">
          0.0002952478576250912 -0.00024223820917019704 0 0.0004260235424986548 0 0
          -0.00009102951750142863 0.00010855987734506836 0 0.00024069595927592212 0 0
          -0.0017148195015156487 0.0016283679581950874 0 0.0038811294538852906 0 0
          -0.00019866610899093752 0.00019817051180096493 0 0.00009661285059716902 0 0
          -0.00006189677666056631 0.00006372517794011452 0 0.000017018398188652812 0 0
          0.0023521969796942016 0.0009298280038231558 0 0.0047513561959107034 0 0
          -0.0017785545579610269 0.0019243043158146118 0 -0.0009703343652384834 0 0
          -0.0017694425329867801 0.0022832739012333095 0 -0.0014472635491490377 0 0
          0.0022253349656232513 -0.0004849990094750933 0 0.018012854237068388 0 0
          -0.00022511079162216817 0.0002206473889500911 0 -0.00002443563457796114 0 0
          -0.00010276789397254906 0.0001055993936777422 0 -0.000028946464913241643 0 0
          0.005438803005044498 -0.0023046635839022614 0 -0.006507911871041264 0 0
          0.001186856547455192 0.0039026721755737116 0 0.014071618867541732 0 0
          -0.025034508414245742 0.03698578798318383 0 -0.00038660472584304303 0 0
          0.0002527998223855376 -0.00012406858998450512 0 -0.003002488727352242 0 0
          0.00031528921658349475 -0.00033696618600718504 0 -0.000044246616010372814 0 0
          0.0038758260693997786 -0.0038665208639783563 0 0.0023727472726641006 0 0
          0.005362102692859541 -0.005547170453803336 0 0.004764515835193892 0 0
          -0.0023191763857034245 0.0021872529692002936 0 0.00038428963911264064 0 0
          -0.000024860949316137763 0.000016772400458438828 0 -0.00019980956250069355 0 0
          0.00003818156753742335 -0.00009286004598546176 0 0.0003399194824815052 0 0
          0.0014606525674772423 -0.0014249513298469393 0 -0.0001014506575111991 0 0
          -0.0010884112077748551 0.0011582798847790698 0 0.0013583338997625173 0 0
          0.000008057823981831633 0.000020812083161913035 0 -0.00008536125787417634 0 0
          -0.0005301414240303351 0.0005269330347810442 0 -0.00034000790438902555 0 0
          -0.0003327166396052164 0.0003982916287692975 0 0.000026502437483317728 0 0
          0.0008141645905897413 -0.0007686637583526689 0 0.0006897309267287717 0 0
          0.0002895992654839303 -0.0002176793188122261 0 0.00033968809915199325 0 0
          0.0007497886098788787 -0.0006676832530534818 0 -0.00043789237821106674 0 0
          0.0002605937125047329 -0.0003490498190474457 0 -0.0001395381618406425 0 0
          -0.0012347349387551703 0.0010335241615710704 0 0.00021037442628505032 0 0
          -0.0002872936444984569 0.0001855133187086438 0 -0.00035375877293271216 0 0
          0.0008989160616264097 -0.0009503027468013057 0 0.0002651525200252368 0 0
          -0.0010811007927073422 0.0008969383331289606 0 0.0013509850870766314 0 0
          0.0015665296455372273 -0.0010942369976183473 0 -0.00002724051433487819 0 0
          -0.001793388023326066 0.0016107893182362365 0 -0.0011328108740472438 0 0
          0.0012393939432885038 -0.0004658042663991169 0 -0.0016097196678020813 0 0
          0.0002954651802419356 0.00008652742392438227 0 0.0004947216261639721 0 0
          0.0042216934924067225 -0.00422493936337976 0 0.0006695645722963416 0 0
          0.0001492373489534776 0.005062121542039264 0 -0.012603497222097073 0 0
          0.006078877989220116 -0.0066615673279753745 0 -0.005394914235379285 0 0
          0.023052894191111863 -0.019898400612752994 0 0.0004323975887650219 0 0
          0.00880784206361939 -0.007271290198268915 0 -0.0003374117620455844 0 0
          0.001593333814365714 -0.0015223818756895842 0 -0.000048157757376814144 0 0
          0.0004132826315556994 -0.0003938051995348272 0 0.00001799130288510591 0 0
          -0.000005533438261280144 -0.000005684444578979408 0 0.0001935161070848029 0 0
          -0.000053439538276428795 0.00005486582209088169 0 0.00006014960405763058 0 0
          -0.000029639479873115893 0.000028822661982152308 0 0.000005619148129574191 0 0
          -0.0017441435790348297 0.0017395231322284701 0 -0.0011577581430316155 0 0
          0.0004602831394939562 -0.00032481044497052465 0 0.0002876087280965547 0 0
          -0.0011860772637760865 0.0010130603023295645 0 -0.0004980842417868887 0 0
          -0.00008693095891339451 0.0005195459248765042 0 -0.00017150596035636598 0 0
          <InformationKey name="L2_NORM_RANGE" location="vtkDataArray" length="2">
            <Value index="0">
              4.1723128317e-05
            </Value>
            <Value index="1">
              0.044663459198
            </Value>
          </InformationKey>
        </DataArray>
      </PointData>
      <CellData>
        <DataArray type="UInt8" Name="vtkGhostType" format="ascii" RangeMin="0" RangeMax="1">
          1 0 0 1 0 0
          1 0 0 0 0 0
          1 0 0 1 0 0
          0 0 0 1 1 0
          1 0 1 0 1 1
          0 1 1 0 0 1
          0 0 0 1 0 0
          0 0 1 0 0 0
          0 0 0 0 0 0
          1 1 0 0 0 1
          0 0 0 0 0 0
          0 0 0 0 0 0
          1 1 0 0 0
        </DataArray>
        <DataArray type="Float64" Name="Velocity_SGS" NumberOfComponents="3" format="ascii" RangeMin="0" RangeMax="0.7208493556834914">
          6.91086159513006e-310 6.91086159513006e-310 4.6445549437565e-310 0.4386839474798647 -0.31580079589757803 0
          0.7160382755211372 0.08314434182805722 0 0.38593198346525337 0.28001546690184514 0
          0.3321285065421776 -0.11202594837666549 0 0.10578485104521258 -0.04909359721543743 0
          0.24043000478351073 0.12473758986535599 0 -0.03720492184357428 0.018542134905153447 0
          0.04428552874686379 0.11881352154982214 0 -0.008519532438330514 -0.08165726642476405 0
          0.044025653356261726 0.05030303009680889 0 0.023355271354763656 -0.0634915386538239 0
          -0.020550284775430593 0.023876025199258355 0 -0.05533223213826956 -0.07140676873878489 0
          0.015105223886207128 -0.019445425774006063 0 0.010831661925709519 0.01647045192480977 0
          0.0018314081422531256 -0.008015749515476487 0 -0.008529952320924523 -0.020479004305445095 0
          -0.004695109671475581 0.002735410036625448 0 -0.007671345322828309 -0.005871790185048922 0
          0.012115296639000088 0.015882535421114927 0 0.008571218284593278 0.006685598990013428 0
          0.012146762849247785 0.009544062270028948 0 0.00207296729469745 -0.004215353041289896 0
          0.003920468120139076 -0.003752089699901204 0 -0.0005178240827864464 0.006997786335107783 0
          0.0019459646326208955 0.004891647673103331 0 0.005391583622605738 -0.005695857506825136 0
          0.005536072493365239 0.0013912978058979741 0 -0.003729225133530534 -0.001471495389144522 0
          0.0015811165843303881 -0.0002987097528908188 0 -0.0008089380601010834 0.0030196669407085226 0
          -0.00015866823191773078 0.0014088263548039973 0 0.00029022496795956944 -0.00021428863606518835 0
          -0.00035456999182979267 -0.005980199735532535 0 0.00013163747063503733 -0.0021432632845858283 0
          0.08517571388501437 -0.038926955124758654 0 0.09056232607750815 0.034177267251652606 0
          -0.01485908906398966 -0.09721683512726775 0 -0.10843352796833057 -0.01720262727491106 0
          -0.03614770478482474 0.11937056080286083 0 -0.047681263803211145 0.05896651266100095 0
          0.012879682270718392 0.035838591144613574 0 0.006220061113590254 -0.01551372564862847 0
          -0.0028703378100494044 -0.0016663153710286243 0 -0.04134795213759361 -0.0547398381493753 0
          -0.04104542423477698 -0.05034426345459932 0 -0.010558194566084858 -0.015297607933361513 0
          -0.015282666361531957 0.015037777153756149 0 0.006190109314564052 -0.001198188555921318 0
          0.03351250187889582 0.026508152840022243 0 0.036919168873777754 0.034604058114821215 0
          -0.003890806284110572 -0.015399576068408449 0 -0.002627995497573249 0.009791345408714978 0
          0.007420540145825843 0.025953297432803953 0 0.0014307958547595 0.016321391509406064 0
          0.02825340135919733 -0.018893175726913417 0 0.003723481987776606 -0.01612838151928326 0
          -0.003484002931863502 -0.004528847580946433 0 0.003200657584623393 0.006646021903991956 0
          0.021956535153588818 0.0010413204239476523 0 -0.004455547652824955 0.0026671709798406825 0
          -0.00676198139008102 0.0017430856795338581 0 -0.0007956026120308723 -0.03074277649250751 0
          0.01961496424082839 0.020360066019732434 0 0.0074933587285215455 -0.010967931503835852 0
          0.06014962180071437 -0.004794496031978743 0 0.015963702987112242 0.0005588629018595164 0
          -0.005374380350314463 0.0010982228147870241 0 0.005572241647309974 -0.0035112236858046457 0
          0.005133387485919943 0.020879649435539202 0 0.009381831902868565 -0.023189946045017652 0
          0.03854827429462905 0.04857030541096683 0 -0.02795478908953966 -0.003188864020172034 0
          0.06693363455534673 0.01358488763580828 0 0.01392087774201635 0.016957659958778983 0
          0.03433319469129248 -0.005028166848214655 0 -0.021681711278231066 -0.0207036792249546 0
          <InformationKey name="L2_NORM_RANGE" location="vtkDataArray" length="2">
            <Value index="0">
              0
            </Value>
            <Value index="1">
              0.72084935568
            </Value>
          </InformationKey>
        </DataArray>
      </CellData>
      <Points>
        <DataArray type="Float32" Name="Points" NumberOfComponents="3" format="ascii" RangeMin="0.800000011920929" RangeMax="9.600275714582546">
          6.099924564361572 0.7551726698875427 0 5.713908672332764 1.5511434078216553 0
          5.287501811981201 0.7392560243606567 0 6.337732315063477 2.693572759628296 0
          7.2727274894714355 4 0 4.789450168609619 0.455789178609848 0
          4.914334297180176 1.5619853734970093 0 4.5937981605529785 0.9171930551528931 0
          4.25 0.4330126941204071 0 5.075174808502197 2.6770246028900146 0
          5.818181991577148 4 0 4 0.911578357219696 0
          3.75 0.4330126941204071 0 3.5 5.794379420720475e-10 0
          4.003536701202393 1.4846373796463013 0 4.304850101470947 2.216280698776245 0
          3.502586603164673 0.9728408455848694 0 3.21055006980896 0.455789178609848 0
          2.9087884426116943 0.055647801607847214 0 4.017580509185791 3.097895622253418 0
          3.513624668121338 2.259860038757324 0 3.104448080062866 1.572829246520996 0
          2.7160346508026123 0.7453813552856445 0 4.363636493682861 4 0
          2.1901140213012695 0.010843842290341854 0 2.996014356613159 2.9170591831207275 0
          2.296038866043091 1.4410018920898438 0 2.5660502910614014 2.144286870956421 0
          1.7997161149978638 0.7087167501449585 0 2.909090995788574 4 0
          1.1272525787353516 -0.07592880725860596 0 1.57744562625885 1.767566442489624 0
          1.9087296724319458 2.9074037075042725 0 0.8291426301002502 0.8281394839286804 0
          0 -0.800000011920929 0 1.454545497894287 4 0
          0 0.800000011920929 0 0 2.4000000953674316 0
          0 4 0 3.75 -0.4330126941204071 0
          3.21055006980896 -0.455789178609848 0 4.5 0 0
          5.091211795806885 -0.055647801607847214 0 5.8098859786987305 -0.010843837633728981 0
          6.693774223327637 0.02548009343445301 0 6.861466884613037 1.2402846813201904 0
          7.45475435256958 2.399545669555664 0 8.727272987365723 4 0
          2.712498188018799 -0.7392560243606567 0 1.9000751972198486 -0.7551726698875427 0
          1.1717199087142944 -1.3240290880203247 0 0 -2.4000000953674316 0
          <InformationKey name="L2_NORM_RANGE" location="vtkDataArray" length="2">
            <Value index="0">
              0.80000001192
            </Value>
            <Value index="1">
              9.6002757146
            </Value>
          </InformationKey>
        </DataArray>
      </Points>
      <Cells>
        <DataArray type="Int64" Name="connectivity" format="ascii" RangeMin="0" RangeMax="51">
          39 13 40 12 8 11
          13 12 17 8 41 5
          11 8 7 17 12 16
          5 41 42 12 11 16
          16 11 14 8 5 7
          7 5 2 11 7 14
          5 42 2 7 2 6
          6 2 1 42 43 2
          7 6 14 1 2 0
          6 1 9 15 14 6
          15 6 9 0 2 43
          0 43 44 9 1 3
          1 0 45 15 9 19
          0 44 45 23 19 9
          3 1 45 3 45 46
          9 3 10 3 46 4
          47 4 46 10 23 9
          4 10 3 40 13 18
          13 17 18 18 17 22
          17 16 22 40 18 48
          18 22 24 16 14 21
          24 22 28 21 14 20
          18 24 48 16 21 22
          20 14 15 28 22 26
          21 20 27 24 28 30
          26 22 21 26 21 27
          27 20 25 30 28 33
          49 48 24 49 24 30
          28 26 31 20 15 19
          26 27 31 49 30 50
          25 20 19 25 19 29
          33 28 31 33 31 37
          27 25 32 30 36 34
          32 25 29 29 19 23
          27 32 31 32 29 35
          32 35 37 35 38 37
          50 30 34 50 34 51
          37 31 32 37 36 33
          33 36 30
        </DataArray>
        <DataArray type="Int64" Name="offsets" format="ascii" RangeMin="3" RangeMax="231">
          3 6 9 12 15 18
          21 24 27 30 33 36
          39 42 45 48 51 54
          57 60 63 66 69 72
          75 78 81 84 87 90
          93 96 99 102 105 108
          111 114 117 120 123 126
          129 132 135 138 141 144
          147 150 153 156 159 162
          165 168 171 174 177 180
          183 186 189 192 195 198
          201 204 207 210 213 216
          219 222 225 228 231
        </DataArray>
        <DataArray type="UInt8" Name="types" format="ascii" RangeMin="5" RangeMax="5">
          5 5 5 5 5 5
          5 5 5 5 5 5
          5 5 5 5 5 5
          5 5 5 5 5 5
          5 5 5 5 5 5
          5 5 5 5 5 5
          5 5 5 5 5 5
          5 5 5 5 5 5
          5 5 5 5 5 5
          5 5 5 5 5 5
          5 5 5 5 5 5
          5 5 5 5 5 5
          5 5 5 5 5
        </DataArray>
      </Cells>
    </Piece>
  </UnstructuredGrid>
</VTKFile>
