<?xml version="1.0"?>
<VTKFile type="UnstructuredGrid" version="0.1" byte_order="LittleEndian" header_type="UInt32" compressor="vtkZLibDataCompressor">
  <UnstructuredGrid>
    <Piece NumberOfPoints="27" NumberOfCells="32">
      <PointData>
        <DataArray type="Float64" Name="Velocity" NumberOfComponents="3" format="ascii" RangeMin="2.6677841329462924" RangeMax="2.9">
          2.9 0 0 2.9 0 0
          2.6193 -0.5063 0 2.894235521628223 -0.013572996856761712 0
          2.9 0 0 2.6193 -0.5063 0
          2.894808654687839 0 0 2.893045993260167 -0.013305014386570712 0
          2.897724942141336 0 0 2.6193 -0.5063 0
          2.893849431270143 -0.014065249979728325 0 2.8973477755078 0 0
          2.6193 -0.5063 0 2.8938099136074142 -0.013985030793421342 0
          2.897411127238098 0 0 2.6193 -0.5063 0
          2.893796825624429 -0.014021015945673706 0 2.8974007427868917 0 0
          2.6193 -0.5063 0 2.8935785542382773 -0.014101546635542424 0
          2.8973059388497537 0 0 2.6193 -0.5063 0
          2.8930883696006955 -0.014344420487041593 0 2.8972992564838167 0 0
          2.6193 -0.5063 0 2.892124081680141 -0.009993768371128435 0
          2.8964357690561346 0.000556512090252907 0
          <InformationKey name="L2_NORM_RANGE" location="vtkDataArray" length="2">
            <Value index="0">
              2.6677841329
            </Value>
            <Value index="1">
              2.9
            </Value>
          </InformationKey>
        </DataArray>
        <DataArray type="Float64" Name="Pressure" format="ascii" RangeMin="0.7198280341549468" RangeMax="1.5457895999999995">
          0.72124 0.72124 1.5457895999999995 0.7361900853160992 0.72124 1.5457895999999995
          0.723681190174335 0.7359865856876615 0.7226090922186128 1.5457895999999995 0.7358429096974399 0.7226651557941454
          1.5457895999999995 0.7358362156601397 0.7226498113336928 1.5457895999999995 0.7358531003520036 0.7226317548382221
          1.5457895999999995 0.7358060475741091 0.7225226236843186 1.5457895999999995 0.7357939343282011 0.7223295001730408
          1.5457895999999995 0.7347429665622202 0.7198280341549468
        </DataArray>
        <DataArray type="Float64" Name="Temperature" format="ascii" RangeMin="0.00247" RangeMax="0.003114">
          0.00247 0.00247 0.003114 0.002492256974750093 0.00247 0.003114
          0.002482442567168232 0.002493676662015435 0.002478246766462395 0.003114 0.0024931333672700176 0.002478563201360464
          0.003114 0.002493136055891575 0.0024785247618336406 0.003114 0.002493189680395697 0.0024784869958776163
          0.003114 0.002493115960126214 0.002478247617105862 0.003114 0.0024932805267939805 0.002477335673728826
          0.003114 0.0024915449541641965 0.0024704296359986076
        </DataArray>
        <DataArray type="Float64" Name="Density" format="ascii" RangeMin="0.9978687369228229" RangeMax="1.7">
          1 1 1.7 1.0116127461407616 1 1.7
          0.9983555201239462 1.0107573464406356 0.9985642694952757 1.7 1.0107802485819972 0.998514247758319
          1.7 1.010769963386859 0.9985085318150669 1.7 1.0107714162442831 0.9984987969711913
          1.7 1.0107366704440406 0.9984444370226978 1.7 1.0106533195003844 0.9985450059146673
          1.7 1.0099127579321865 0.9978687369228229
        </DataArray>
        <DataArray type="Float64" Name="Momentum" NumberOfComponents="3" format="ascii" RangeMin="2.8900482001101784" RangeMax="4.535233026008696">
          2.9 0 0 2.9 0 0
          4.4528099999999995 -0.86071 0 2.927845544012466 -0.013730616623628641 0
          2.9 0 0 4.4528099999999995 -0.86071 0
          2.8900482001101784 0 0 2.9241674912783595 -0.013448141035724694 0
          2.893564590047603 0 0 4.4528099999999995 -0.86071 0
          2.9250458474981063 -0.014216876870877727 0 2.8930430345554097 0 0
          4.4528099999999995 -0.86071 0 2.9249761404254957 -0.014135649063030584 0
          2.893089730723151 0 0 4.4528099999999995 -0.86071 0
          2.924967115759615 -0.014172042144592289 0 2.8930511560161474 0 0
          4.4528099999999995 -0.86071 0 2.924645953579077 -0.014252950294519512 0
          2.892798996997361 0 0 4.4528099999999995 -0.86071 0
          2.923909364344898 -0.014497236181537906 0 2.893083703202194 0 0
          4.4528099999999995 -0.86071 0 2.920793007611683 -0.010092834177821773 0
          2.89026270244613 0.0005553260165829483 0
          <InformationKey name="L2_NORM_RANGE" location="vtkDataArray" length="2">
            <Value index="0">
              2.8900482001
            </Value>
            <Value index="1">
              4.535233026
            </Value>
          </InformationKey>
        </DataArray>
        <DataArray type="Float64" Name="Energy" format="ascii" RangeMin="5.955718402570731" RangeMax="9.850459752999999">
          5.97846 5.97846 9.850459752999999 6.047251296691495 5.97846 9.850459752999999
          5.962530923623938 6.039685426137021 5.969203608621707 9.850459752999999 6.041788267741297 5.968040221747755
          9.850459752999999 6.0416120145291075 5.968161779829926 9.850459752999999 6.041621843044332 5.968046475872076
          9.850459752999999 6.040723413570169 5.9672757055979595 9.850459752999999 6.038914794032539 5.96720360756947
          9.850459752999999 6.0303608301533345 5.955718402570731
        </DataArray>
        <DataArray type="Float64" Name="stream" format="ascii" RangeMin="-2.881783180392852" RangeMax="0.11013301540661269">
          -0.03508749999999994 -1.4393581321543 -0.05701579810505105 -1.4370244676608916 -2.881783180392852 -0.03451521775351696
          -2.8694304844000498 -1.4207639167908406 -2.855121056754436 -0.0205577844123959 -1.406060400408297 -2.8404773570813266
          -0.0057176672837942295 -1.3913445944855418 -2.8258001655474474 0.008984640164273583 -1.376670405184868 -2.811099695245641
          0.023637608730579296 -1.3620264630013972 -2.796357600677549 0.03823899712105724 -1.3475062480037894 -2.789564052638539
          0.11013301540661269 -1.3410530479358804 -2.789706658861666
        </DataArray>
      </PointData>
      <CellData>
        <DataArray type="UInt8" Name="vtkGhostType" format="ascii" RangeMin="0" RangeMax="0">
          0 0 0 0 0 0
          0 0 0 0 0 0
          0 0 0 0 0 0
          0 0 0 0 0 0
          0 0 0 0 0 0
          0 0
        </DataArray>
      </CellData>
      <Points>
        <DataArray type="Float32" Name="Points" NumberOfComponents="3" format="ascii" RangeMin="0" RangeMax="4.2201894765504395">
          0 1 0 0 0.5 0
          0.512499988079071 1 0 0.512499988079071 0.5 0
          0 0 0 1.024999976158142 1 0
          0.512499988079071 0 0 1.024999976158142 0.5 0
          1.024999976158142 0 0 1.537500023841858 1 0
          1.537500023841858 0.5 0 1.537500023841858 0 0
          2.049999952316284 1 0 2.049999952316284 0.5 0
          2.049999952316284 0 0 2.5625 1 0
          2.5625 0.5 0 2.5625 0 0
          3.075000047683716 1 0 3.075000047683716 0.5 0
          3.075000047683716 0 0 3.5875000953674316 1 0
          3.5875000953674316 0.5 0 3.5875000953674316 0 0
          4.099999904632568 1 0 4.099999904632568 0.5 0
          4.099999904632568 0 0
          <InformationKey name="L2_NORM_RANGE" location="vtkDataArray" length="2">
            <Value index="0">
              0
            </Value>
            <Value index="1">
              4.2201894766
            </Value>
          </InformationKey>
        </DataArray>
      </Points>
      <Cells>
        <DataArray type="Int64" Name="connectivity" format="ascii" RangeMin="0" RangeMax="26">
          6 3 4 3 1 4
          8 7 6 7 3 6
          11 10 8 10 7 8
          14 13 11 13 10 11
          17 16 14 16 13 14
          20 19 17 19 16 17
          23 22 20 22 19 20
          26 25 23 25 22 23
          3 2 1 2 0 1
          7 5 3 5 2 3
          10 9 7 9 5 7
          13 12 10 12 9 10
          16 15 13 15 12 13
          19 18 16 18 15 16
          22 21 19 21 18 19
          25 24 22 24 21 22
        </DataArray>
        <DataArray type="Int64" Name="offsets" format="ascii" RangeMin="3" RangeMax="96">
          3 6 9 12 15 18
          21 24 27 30 33 36
          39 42 45 48 51 54
          57 60 63 66 69 72
          75 78 81 84 87 90
          93 96
        </DataArray>
        <DataArray type="UInt8" Name="types" format="ascii" RangeMin="5" RangeMax="5">
          5 5 5 5 5 5
          5 5 5 5 5 5
          5 5 5 5 5 5
          5 5 5 5 5 5
          5 5 5 5 5 5
          5 5
        </DataArray>
      </Cells>
    </Piece>
  </UnstructuredGrid>
</VTKFile>
