<?xml version="1.0"?>
<VTKFile type="UnstructuredGrid" version="0.1" byte_order="LittleEndian" header_type="UInt32" compressor="vtkZLibDataCompressor">
  <UnstructuredGrid>
    <Piece NumberOfPoints="13" NumberOfCells="11">
      <PointData>
        <DataArray type="Float64" Name="Disp" NumberOfComponents="3" format="ascii" RangeMin="0" RangeMax="0.09018650546247578">
          0 0 0 0 0 0
          -0.0005501668584187907 0.001786567471541268 0 0.0011385743218330312 0.0016678765922167034 0
          -0.002102758687825361 0.007794139783939605 0 0.0024127809584918508 0.007607261720666464 0
          -0.003595436585768554 0.0203337388006881 0 0.004275616636781942 0.020427613683078955 0
          -0.004957438309730047 0.03872117547775536 0 0.005491915238620931 0.03874841691262912 0
          -0.006145741987185675 0.06216866426692329 0 0.006705587363646924 0.06222870094340684 0
          -0.007094013189186633 0.08990706726617669 0
          <InformationKey name="L2_NORM_RANGE" location="vtkDataArray" length="2">
            <Value index="0">
              0
            </Value>
            <Value index="1">
              0.090186505462
            </Value>
          </InformationKey>
        </DataArray>
        <DataArray type="Float64" Name="Nodal Stress" NumberOfComponents="6" format="ascii" RangeMin="45464.09911990153" RangeMax="2282970.7393711344">
          1995496.7417729085 308910.2977883496 0 1065139.6989685455 0 0
          134836.85183721466 -162361.55113838438 0 8970.294527696857 0 0
          -163594.87648990873 -40008.21220821106 0 -37804.54166954699 0 0
          75445.3856258012 28958.254998935223 0 -35415.60408161314 0 0
          14945.434321440516 60473.59731746185 0 45676.97225481889 0 0
          102606.66466744129 25947.435405034146 0 -26365.422298579997 0 0
          -86041.39662646003 -8711.591945393533 0 21275.180089729518 0 0
          62004.26422815161 -10988.785332222029 0 -16923.63439187886 0 0
          -67628.5847295536 -8950.836847676763 0 25124.162968892608 0 0
          54488.46667970802 -8940.722999340089 0 -17106.52331396466 0 0
          -62477.14560447572 -12772.752809784086 0 22130.160315035035 0 0
          41505.076261739596 -13900.323320535446 0 -12292.028509403584 0 0
          -53237.29131407264 -15399.379017197927 0 19384.1900950789 0 0
          <InformationKey name="L2_NORM_RANGE" location="vtkDataArray" length="2">
            <Value index="0">
              45464.09912
            </Value>
            <Value index="1">
              2282970.7394
            </Value>
          </InformationKey>
        </DataArray>
        <DataArray type="Float64" Name="Nodal Strain" NumberOfComponents="6" format="ascii" RangeMin="0.003941521176243781" RangeMax="0.1809358867010842">
          0.13150297091990956 -0.04920271950700747 0 0.11412211060377277 0 0
          0.015429830529029064 -0.01641285550407084 0 0.0009611029851103778 0 0
          -0.010256483598985941 0.002984944716910235 0 -0.004050486607451464 0 0
          0.004354732723309542 -0.0006260312724260963 0 -0.0037945290087442658 0 0
          -0.001092240309806458 0.0037857771540529715 0 0.004893961313016309 0 0
          0.006402353354637443 -0.001811135494906177 0 -0.002824866674847857 0 0
          -0.005834685760983092 0.0024506504548454625 0 0.002279483581042449 0 0
          0.004821332635304473 -0.002999351246164131 0 -0.0018132465419870205 0 0
          -0.0045109404504082296 0.001775961108364288 0 0.0026918746038099226 0 0
          0.004211344869955575 -0.002584639738513864 0 -0.001832841783639071 0 0
          -0.004006483514255977 0.0013189871423181262 0 0.002371088605182325 0 0
          0.003461088423000523 -0.002475204389386089 0 -0.0013170030545789555 0 0
          -0.0032526858432481197 0.0008013761885598847 0 0.002076877510187025 0 0
          <InformationKey name="L2_NORM_RANGE" location="vtkDataArray" length="2">
            <Value index="0">
              0.0039415211762
            </Value>
            <Value index="1">
              0.1809358867
            </Value>
          </InformationKey>
        </DataArray>
        <DataArray type="Float64" Name="Sld_traction" NumberOfComponents="3" format="ascii" RangeMin="27334.93322345652" RangeMax="254345.19549345068">
          28440.362137437718 -125794.21646763694 0 -253739.37585639147 17544.446717139046 0
          173537.96146158123 89092.05249989677 0 21562.562506756847 -16800.43072284252 0
          47230.28599349723 35213.595673308046 0 81468.78947674685 -29184.353739589777 0
          81500.0814233589 -5994.02523212396 0 62687.29080209845 6827.271469049774 0
          63885.09718929901 -10610.823445222444 0 55510.78929609848 8907.885416986484 0
          59389.480197910874 -13446.104616238197 0 46080.640510012534 12915.561206345705 0
          49018.869883681065 -15948.109818706074 0
          <InformationKey name="L2_NORM_RANGE" location="vtkDataArray" length="2">
            <Value index="0">
              27334.933223
            </Value>
            <Value index="1">
              254345.19549
            </Value>
          </InformationKey>
        </DataArray>
        <DataArray type="Float64" Name="Velocity" NumberOfComponents="3" format="ascii" RangeMin="0" RangeMax="2.932488117071408">
          0 0 0 0 0 0
          -0.039269521005661 0.12408063881904063 0 0.06938548381572862 0.12176744273400686 0
          -0.10725608515621521 0.4676562026770932 0 0.12020982056367147 0.46512131532180456 0
          -0.13953924714386812 1.0321320266360328 0 0.17471207394358013 1.040662978877414 0
          -0.15008153438435023 1.6857139627112971 0 0.17726827797737466 1.6899883066978987 0
          -0.14172143502663515 2.3366943271662777 0 0.17099466513589556 2.3392975884716734 0
          -0.12381338172393974 2.9298731718746964 0
          <InformationKey name="L2_NORM_RANGE" location="vtkDataArray" length="2">
            <Value index="0">
              0
            </Value>
            <Value index="1">
              2.9324881171
            </Value>
          </InformationKey>
        </DataArray>
        <DataArray type="Float64" Name="Acceleration" NumberOfComponents="3" format="ascii" RangeMin="0" RangeMax="814.378567721405">
          0 0 0 0 0 0
          -34.666120032589106 107.31478654282819 0 53.7266089245461 109.13839217197142 0
          -67.7307645215501 356.85451014443606 0 73.31220267893332 361.4147154410548 0
          -49.49108750964615 646.9412632498497 0 71.98948254745346 655.6337037567282 0
          -4.157408766546723 808.844969459904 0 21.093714602397995 814.1053413215268 0
          62.09269973529081 738.8280240410459 0 -43.166519767394675 740.087427649727 0
          132.12157698943975 387.42427682968264 0
          <InformationKey name="L2_NORM_RANGE" location="vtkDataArray" length="2">
            <Value index="0">
              0
            </Value>
            <Value index="1">
              814.37856772
            </Value>
          </InformationKey>
        </DataArray>
        <DataArray type="Float64" Name="Sigma" NumberOfComponents="6" format="ascii" RangeMin="136908.06784402087" RangeMax="5591012.801568191">
          4869504.3067946695 996062.3559020774 0 2560314.7729453812 0 0
          -463281.30075929326 -499873.2978242822 0 -440520.26615260064 0 0
          -1119718.845903742 -82588.72299180592 0 -419550.48386397754 0 0
          618241.5458560238 186204.01537990628 0 112629.61561455172 0 0
          65404.94391446613 136365.18379802754 0 159114.9312800176 0 0
          168986.903654596 23777.790462903704 0 -139373.57134614757 0 0
          -273576.90587036597 -35637.224795794784 0 66472.4747048904 0 0
          197629.3756973148 -36789.00774156448 0 -43948.0670904425 0 0
          -182158.67440381882 6455.648699133788 0 63995.65844057432 0 0
          157712.26834284767 -19592.92091171553 0 -60957.9051046732 0 0
          -170323.04538895527 -12368.545111835212 0 60855.474668606395 0 0
          125553.88242530392 -30484.521517160014 0 -45285.048267455626 0 0
          -141479.43318168345 -14680.858017002707 0 48919.324072465344 0 0
          <InformationKey name="L2_NORM_RANGE" location="vtkDataArray" length="2">
            <Value index="0">
              136908.06784
            </Value>
            <Value index="1">
              5591012.8016
            </Value>
          </InformationKey>
        </DataArray>
        <DataArray type="Float64" Name="Press" format="ascii" RangeMin="-45533.135613191436" RangeMax="26704.174516864845">
          -45533.135613191436 -38466.17678703337 -44489.0518212516 -28112.196704490034 -44030.98983530231 -17003.006216198188
          4659.797797799553 26704.174516864845 -10844.286062621777 12193.84074950992 -2764.419107552273 16718.36288876318
          -1075.2754393885323
        </DataArray>
        <DataArray type="Float64" Name="Dev strain" NumberOfComponents="6" format="ascii" RangeMin="0.004047759860096422" RangeMax="0.18165454492842728">
          0.13305673431129053 -0.04764895611562651 0 0.11412211060377277 0 0
          0.01684272402504835 -0.014999962008051563 0 0.0009611029851103778 0 0
          -0.008799176505655431 0.00444225181024074 0 -0.004050486607451464 0 0
          0.005548728099926445 0.0005679641041908065 0 -0.0037945290087442658 0 0
          0.00008110968685021581 0.004959127150709645 0 0.004893961313016309 0 0
          0.006944521341422621 -0.0012689675081209995 0 -0.002824866674847857 0 0
          -0.005812322211846801 0.002473014003981753 0 0.002279483581042449 0 0
          0.004395597798682876 -0.003425086082785727 0 -0.0018132465419870205 0 0
          -0.00455446929816795 0.0017324322606045667 0 0.0026918746038099226 0 0
          0.003945368168877183 -0.0028506164395922552 0 -0.001832841783639071 0 0
          -0.0040937404521405665 0.0012317302044335357 0 0.002371088605182325 0 0
          0.003106277347273981 -0.0028300154651126315 0 -0.0013170030545789555 0 0
          -0.0034150566305476086 0.0006390054012603971 0 0.002076877510187025 0 0
          <InformationKey name="L2_NORM_RANGE" location="vtkDataArray" length="2">
            <Value index="0">
              0.0040477598601
            </Value>
            <Value index="1">
              0.18165454493
            </Value>
          </InformationKey>
        </DataArray>
        <DataArray type="Float64" Name="J2 Stresses" format="ascii" RangeMin="8859225621.245064" RangeMax="13990909139509.107">
          13990909139509.107 280765964978.2627 674301247646.337 211618629761.3936 17766025359.42333 19417226560.477657
          39161815081.72262 20688258764.806156 17635590105.152214 13557487616.537151 15507307548.661158 8859225621.245064
          10714253869.689632
        </DataArray>
      </PointData>
      <CellData>
        <DataArray type="UInt8" Name="vtkGhostType" format="ascii" RangeMin="0" RangeMax="0">
          0 0 0 0 0 0
          0 0 0 0 0
        </DataArray>
        <DataArray type="Float64" Name="Gauss Stress" NumberOfComponents="6" format="ascii" RangeMin="48541.28262158947" RangeMax="1199313.8010570612">
          -358608.67537326197 -169108.47691631893 0 -249147.0448006754 0 0
          1052671.9319700522 95037.32362150418 0 566748.0076429341 0 0
          254495.73355636513 85733.59896161564 0 44123.658516140546 0 0
          -184234.86483143194 41116.079275028 0 -49268.645656469365 0 0
          35800.11319333703 -11429.158658663117 0 -38949.72124389988 0 0
          -31853.085518334934 22710.517070478494 0 28737.94487958681 0 0
          67078.89961336556 -7290.850250131078 0 -13636.771251513797 0 0
          -79195.50610827585 -15150.299195394282 0 28840.022018340747 0 0
          46363.6299699724 -12099.401003329975 0 -15129.159567840816 0 0
          -65394.77195686355 -8973.560581693695 0 21297.742668169176 0 0
          -57789.975934504175 -14885.085434725188 0 21496.583491205372 0 0
          <InformationKey name="L2_NORM_RANGE" location="vtkDataArray" length="2">
            <Value index="0">
              48541.282622
            </Value>
            <Value index="1">
              1199313.8011
            </Value>
          </InformationKey>
        </DataArray>
        <DataArray type="Float64" Name="Gauss Strain" NumberOfComponents="6" format="ascii" RangeMin="0.004386245535275963" RangeMax="0.09895007630610415">
          -0.01957531692250733 0.000728275769308004 0 -0.026694326228643792 0 0
          0.07179666215423573 -0.030807045883108695 0 0.0607230008188858 0 0
          0.015116352433968382 -0.0029653048440404918 0 0.00472753484101506 0 0
          -0.014628064604924714 0.00951667940648171 0 -0.005278783463193147 0 0
          0.0029653351801906154 -0.0020949439468094036 0 -0.004173184418989273 0 0
          -0.0030863102895410137 0.0027597899878318553 0 0.0030790655228128735 0 0
          0.005051737481316508 -0.002916450004058133 0 -0.0014610826340907645 0 0
          -0.005115739750755621 0.0017462467041959727 0 0.0030900023591079375 0 0
          0.003743809319402671 -0.002520086856308298 0 -0.0016209813822686584 0 0
          -0.004350570833286907 0.0016945589569098622 0 0.002281901000160983 0 0
          -0.0035962452297958265 0.001000707323751921 0 0.002303205374057718 0 0
          <InformationKey name="L2_NORM_RANGE" location="vtkDataArray" length="2">
            <Value index="0">
              0.0043862455353
            </Value>
            <Value index="1">
              0.098950076306
            </Value>
          </InformationKey>
        </DataArray>
      </CellData>
      <Points>
        <DataArray type="Float32" Name="Points" NumberOfComponents="3" format="ascii" RangeMin="0" RangeMax="0.6020797527609908">
          0 0.05000000074505806 0 0 0 0
          0.10000000149011612 0.05000000074505806 0 0.10000000149011612 0 0
          0.20000000298023224 0.05000000074505806 0 0.20000000298023224 0 0
          0.30000001192092896 0.05000000074505806 0 0.30000001192092896 0 0
          0.4000000059604645 0.05000000074505806 0 0.4000000059604645 0 0
          0.5 0.05000000074505806 0 0.5 0 0
          0.6000000238418579 0.05000000074505806 0
          <InformationKey name="L2_NORM_RANGE" location="vtkDataArray" length="2">
            <Value index="0">
              0
            </Value>
            <Value index="1">
              0.60207975276
            </Value>
          </InformationKey>
        </DataArray>
      </Points>
      <Cells>
        <DataArray type="Int64" Name="connectivity" format="ascii" RangeMin="0" RangeMax="12">
          3 2 1 2 0 1
          5 4 3 4 2 3
          7 6 5 6 4 5
          9 8 7 8 6 7
          11 10 9 10 8 9
          12 10 11
        </DataArray>
        <DataArray type="Int64" Name="offsets" format="ascii" RangeMin="3" RangeMax="33">
          3 6 9 12 15 18
          21 24 27 30 33
        </DataArray>
        <DataArray type="UInt8" Name="types" format="ascii" RangeMin="5" RangeMax="5">
          5 5 5 5 5 5
          5 5 5 5 5
        </DataArray>
      </Cells>
    </Piece>
  </UnstructuredGrid>
</VTKFile>
