<?xml version="1.0"?>
<VTKFile type="UnstructuredGrid" version="0.1" byte_order="LittleEndian" header_type="UInt32" compressor="vtkZLibDataCompressor">
  <UnstructuredGrid>
    <Piece NumberOfPoints="13" NumberOfCells="11">
      <PointData>
        <DataArray type="Float64" Name="Disp" NumberOfComponents="3" format="ascii" RangeMin="0.0019128755881856786" RangeMax="0.036459088995930096">
          -0.0005530057190496165 0.0018380932632656426 0 0.0011766088068770547 -0.001610763252577151 0
          -0.0011350400468566617 -0.0016020435941955687 0 0.001788841292229038 -0.007443001020515678 0
          -0.0017228729471917947 -0.007464869061398343 0 0.0022948801312081433 -0.015577940920257853 0
          -0.002266221066240049 -0.015598567838261915 0 0.0027051537902375595 -0.025566491293853393 0
          -0.002587408340617891 -0.025665916071276617 0 0.00271222805915977 -0.03635806635903864 0
          -0.002605281522516615 -0.03634252102273444 0 0.000605166622537376 0.0018146256844989853 0
          -0.00008338669090534763 0.003129081742545738 0
          <InformationKey name="L2_NORM_RANGE" location="vtkDataArray" length="2">
            <Value index="0">
              0.0019128755882
            </Value>
            <Value index="1">
              0.036459088996
            </Value>
          </InformationKey>
        </DataArray>
        <DataArray type="Float64" Name="Nodal Stress" NumberOfComponents="6" format="ascii" RangeMin="7192.36616640071" RangeMax="30175.001833247108">
          -26041.221367184135 -6576.490853474436 0 9209.295575538346 0 0
          21566.489657823822 -3716.2356298545437 0 -7609.061427134092 0 0
          -25639.28280811123 -1682.9317455933494 0 9025.148207610773 0 0
          25455.16410292329 1904.0767556169935 0 -9507.911821780992 0 0
          -21960.451661159113 3378.514909810507 0 7407.82380231431 0 0
          25168.909452659456 5637.402322089091 0 -10141.51598604724 0 0
          -13606.466606335332 8420.393094811758 0 4778.45918049608 0 0
          24462.431815622727 15177.362602639641 0 -9042.556592605371 0 0
          -3185.1860341917804 15261.901352347943 0 843.950784836448 0 0
          19315.423709461316 12403.970273835175 0 -6776.149141230139 0 0
          -1974.744626441474 6506.960991628679 0 -2343.069223336966 0 0
          15207.394138628317 -7850.749880995485 0 -4649.054196144994 0 0
          -21944.10898511468 -9298.617861727575 0 7897.260916947342 0 0
          <InformationKey name="L2_NORM_RANGE" location="vtkDataArray" length="2">
            <Value index="0">
              7192.3661664
            </Value>
            <Value index="1">
              30175.001833
            </Value>
          </InformationKey>
        </DataArray>
        <DataArray type="Float64" Name="Nodal Strain" NumberOfComponents="6" format="ascii" RangeMin="0.0006993138391038958" RangeMax="0.0021691575908295464">
          -0.00162521256717478 0.00046029427357983065 0 0.0009867102402362513 0 0
          0.0016731862480536496 -0.0010356771756261753 0 -0.000815256581478653 0 0
          -0.0017712726382367535 0.0007954792613187331 0 0.0009669801651011542 0 0
          0.0017502232660796281 -0.0007731075211317607 0 -0.0010187048380479635 0 0
          -0.0016892649368617405 0.00102562433859929 0 0.0007936954073908191 0 0
          0.0015964434494010653 -0.0004962180288743312 0 -0.0010865909985050613 0 0
          -0.0012726187966958008 0.001087401885569959 0 0.0005119777693388657 0 0
          0.0012052678938787793 0.00021043904963059156 0 -0.0009688453492077184 0 0
          -0.0007725811935975538 0.0012038924549602741 0 0.00009042329837533369 0 0
          0.0009366741837531238 0.00019616131565032284 0 -0.000726015979417515 0 0
          -0.00037344465158970093 0.0005353095217749583 0 -0.0002510431310718178 0 0
          0.0013666263627947187 -0.0011038890678792604 0 -0.0004981129495869635 0 0
          -0.0012353428610179214 0.00011953118791641187 0 0.0008461350982443581 0 0
          <InformationKey name="L2_NORM_RANGE" location="vtkDataArray" length="2">
            <Value index="0">
              0.0006993138391
            </Value>
            <Value index="1">
              0.0021691575908
            </Value>
          </InformationKey>
        </DataArray>
        <DataArray type="Float64" Name="Sld_traction" NumberOfComponents="3" format="ascii" RangeMin="5888.74172254982" RangeMax="27355.496417594248">
          -24395.59344260006 6931.224180011258 0 -24345.43712376133 -2977.8449568720866 0
          -26588.633857004275 2435.901217890337 0 -27251.364988579473 2384.5944125231545 0
          -24701.632056647388 -2873.726723976494 0 -26291.354172675758 6869.574898965889 0
          -19156.81732035005 -7188.244227974155 0 -20950.473446511514 15536.111583006203 0
          -9572.34187789699 -13829.412227045344 0 -2285.9979637226256 5818.231168701459 0
          1652.091442589444 -5652.2449469411495 0 -17830.89032098593 -7406.505165080779 0
          -18909.64323031289 9783.079500573718 0
          <InformationKey name="L2_NORM_RANGE" location="vtkDataArray" length="2">
            <Value index="0">
              5888.7417225
            </Value>
            <Value index="1">
              27355.496418
            </Value>
          </InformationKey>
        </DataArray>
        <DataArray type="Float64" Name="Velocity" NumberOfComponents="3" format="ascii" RangeMin="0.6256835211557193" RangeMax="11.69894791181675">
          -0.3617912343474954 -0.5104771996819595 0 0.521955462428038 -2.307702609524968 0
          -0.4925597024344441 -2.3208621119522492 0 0.5876212540146547 -4.503967468170112 0
          -0.5592385836725111 -4.514524834010526 0 0.6117329218023493 -6.864998944362153 0
          -0.5822882407327118 -6.869685620983004 0 0.6194043758841445 -9.27367723946865 0
          -0.5859839521695288 -9.276819255383183 0 0.6176030085160338 -11.682634496006175 0
          -0.5832263442911476 -11.682478943355452 0 0.3935466648647826 -0.4992100156045731 0
          -0.17952602831068848 0.659764808275195 0
          <InformationKey name="L2_NORM_RANGE" location="vtkDataArray" length="2">
            <Value index="0">
              0.62568352116
            </Value>
            <Value index="1">
              11.698947912
            </Value>
          </InformationKey>
        </DataArray>
        <DataArray type="Float64" Name="Acceleration" NumberOfComponents="3" format="ascii" RangeMin="823.287507907293" RangeMax="1475.1939584259458">
          -92.22611286957586 -1268.7092652161086 0 11.131006299460829 -1475.1519635872 0
          -21.34125042372831 -1470.6935442582453 0 -31.453897931899235 -1424.6937525293438 0
          25.75806625433546 -1414.211120022892 0 -22.519064477581196 -1296.9890914769228 0
          24.116148717331043 -1292.7542415577523 0 -4.105787703813348 -1242.1006245721337 0
          7.794681165320753 -1244.975727633454 0 -4.968680413346419 -1225.4462867487146 0
          4.413491311171697 -1225.7758622272322 0 82.89627054355387 -1260.9089590891945 0
          -127.47848112139425 -813.3581975533186 0
          <InformationKey name="L2_NORM_RANGE" location="vtkDataArray" length="2">
            <Value index="0">
              823.28750791
            </Value>
            <Value index="1">
              1475.1939584
            </Value>
          </InformationKey>
        </DataArray>
        <DataArray type="Float64" Name="Sigma" NumberOfComponents="6" format="ascii" RangeMin="11294.293971626683" RangeMax="77949.80794737265">
          -71057.50163617657 -6404.374551191282 0 25154.08839548766 0 0
          64664.16790315928 -9119.698244628626 0 -25048.22024472342 0 0
          -72599.59660672274 1186.4299264360172 0 27276.07465771519 0 0
          72803.53360987658 -769.951127599939 0 -27842.86673833996 0 0
          -65010.316311107155 9811.311925698397 0 25273.416115677242 0 0
          69050.12788245192 4446.544747494841 0 -27088.50273339358 0 0
          -44583.61784571665 13122.320796793956 0 19840.05321946016 0 0
          58663.3736076071 20425.137829349387 0 -21551.24736414027 0 0
          -23050.97052207853 25897.723626246872 0 10307.274928582427 0 0
          51327.572439310774 20630.474106345107 0 -12409.348489114442 0 0
          2547.762010467776 10385.375338928216 0 -3635.1016664079234 0 0
          48689.00556625524 -15305.323497969272 0 -18036.875025334346 0 0
          -57955.85931744252 -10527.491771971832 0 18481.13241593451 0 0
          <InformationKey name="L2_NORM_RANGE" location="vtkDataArray" length="2">
            <Value index="0">
              11294.293972
            </Value>
            <Value index="1">
              77949.807947
            </Value>
          </InformationKey>
        </DataArray>
        <DataArray type="Float64" Name="Press" format="ascii" RangeMin="-12641.086897653879" RangeMax="7233.232320716562">
          -930.2104360216545 5861.1018282814275 -3957.1274313868844 4009.3582290089207 -6009.344226024015 161.98973835535398
          -8317.133746681653 -881.2334803638072 -5790.974158525514 -10197.956490100414 -12641.086897653879 7233.232320716562
          1049.1841457069
        </DataArray>
        <DataArray type="Float64" Name="Dev strain" NumberOfComponents="6" format="ascii" RangeMin="0.0009380321851111318" RangeMax="0.0021549511779675045">
          -0.0016778895385920008 0.00040761730216261013 0 0.0009867102402362513 0 0
          0.0015641549213137775 -0.0011447085023660473 0 -0.000815256581478653 0 0
          -0.0017387089503326284 0.0008280429492228589 0 0.0009669801651011542 0 0
          0.001720025951716924 -0.0008033048354944644 0 -0.0010187048380479635 0 0
          -0.0015702541315061333 0.0011446351439548977 0 0.0007936954073908191 0 0
          0.0016695175350160479 -0.0004231439432593486 0 -0.0010865909985050613 0 0
          -0.0010846973432771807 0.0012753233389885788 0 0.0005119777693388657 0 0
          0.0013348499874631312 0.00034002114321494346 0 -0.0009688453492077184 0 0
          -0.0005408477247391695 0.0014356259238186581 0 0.00009042329837533369 0 0
          0.0012308531777507595 0.0004903403096479584 0 -0.000726015979417515 0 0
          -0.000004952647626007256 0.000903801525738652 0 -0.0002510431310718178 0 0
          0.001199585373089379 -0.0012709300575845996 0 -0.0004981129495869635 0 0
          -0.0013520136510795939 0.000002860397854739277 0 0.0008461350982443581 0 0
          <InformationKey name="L2_NORM_RANGE" location="vtkDataArray" length="2">
            <Value index="0">
              0.00093803218511
            </Value>
            <Value index="1">
              0.002154951178
            </Value>
          </InformationKey>
        </DataArray>
        <DataArray type="Float64" Name="J2 Stresses" format="ascii" RangeMin="60477047.127481" RangeMax="2844279972.4639006">
          2703274316.835593 2289165087.6975713 2822050583.897919 2844279972.4639006 2320987924.825823 2577292705.471487
          1178354069.5911906 2045402894.9243972 627579644.6289456 1568566059.6637068 60477047.127481 1383768310.3740447
          1820242919.959888
        </DataArray>
      </PointData>
      <CellData>
        <DataArray type="UInt8" Name="vtkGhostType" format="ascii" RangeMin="0" RangeMax="1">
          1 1 0 0 0 0
          0 0 0 0 0
        </DataArray>
        <DataArray type="Float64" Name="Gauss Stress" NumberOfComponents="6" format="ascii" RangeMin="9647.624052789259" RangeMax="29772.437142427">
          -24324.049785654024 -8294.994596910192 0 8532.781928695944 0 0
          18153.265182071445 -6221.757526937614 0 -5977.002291523369 0 0
          -26006.38879295572 -4454.6263028369995 0 9127.314269493143 0 0
          -23587.830912118436 1423.5590987108326 0 8235.541345017493 0 0
          23593.81251073887 -929.9622732963606 0 -8538.337441782734 0 0
          -18236.098169574067 4405.229745212294 0 6008.322200581278 0 0
          25001.78297418721 3883.303095644519 0 -9885.984452018769 0 0
          -7986.8520485863555 14818.613622273082 0 2865.360261300774 0 0
          24697.83538521743 9652.54196164936 0 -9599.898959357897 0 0
          731.4487938067377 9427.851841746791 0 -1912.391742313314 0 0
          23356.60379861654 16694.390477650544 0 -7884.440308224097 0 0
          <InformationKey name="L2_NORM_RANGE" location="vtkDataArray" length="2">
            <Value index="0">
              9647.6240528
            </Value>
            <Value index="1">
              29772.437142
            </Value>
          </InformationKey>
        </DataArray>
        <DataArray type="Float64" Name="Gauss Strain" NumberOfComponents="6" format="ascii" RangeMin="0.0007361339745740431" RangeMax="0.002163916776649205">
          -0.0014411823205142092 0.00027621644970834394 0 0.0009142266352174227 0 0
          0.0015188674246814462 -0.0010927421512838095 0 -0.0006403931026632184 0 0
          -0.0016985054029669444 0.0006106120066886328 0 0.0009779265288742656 0 0
          -0.0017356864615338467 0.000944105325340718 0 0.0008823794298233032 0 0
          0.0017184852605276464 -0.0009090620377618426 0 -0.0009148218687624358 0 0
          -0.0014599080744414439 0.0009659484878570948 0 0.000643748807205137 0 0
          0.0016471522447403543 -0.0006155420279606489 0 -0.0010592126198591537 0 0
          -0.0010997256328373498 0.0013437171176118759 0 0.00030700288513936855 0 0
          0.0014193974574566249 -0.00019259826649709651 0 -0.0010285606027883461 0 0
          -0.0002844626519333329 0.0006472948174888161 0 -0.00020489911524785502 0 0
          0.0010721006114136624 0.00035829204131016267 0 -0.000844761461595439 0 0
          <InformationKey name="L2_NORM_RANGE" location="vtkDataArray" length="2">
            <Value index="0">
              0.00073613397457
            </Value>
            <Value index="1">
              0.0021639167766
            </Value>
          </InformationKey>
        </DataArray>
      </CellData>
      <Points>
        <DataArray type="Float32" Name="Points" NumberOfComponents="3" format="ascii" RangeMin="0.4000000059604645" RangeMax="1.0012492197622458">
          0.5 0 0 0.6000000238418579 0.05000000074505806 0
          0.6000000238418579 0 0 0.699999988079071 0.05000000074505806 0
          0.699999988079071 0 0 0.800000011920929 0.05000000074505806 0
          0.800000011920929 0 0 0.8999999761581421 0.05000000074505806 0
          0.8999999761581421 0 0 1 0.05000000074505806 0
          1 0 0 0.5 0.05000000074505806 0
          0.4000000059604645 0 0
          <InformationKey name="L2_NORM_RANGE" location="vtkDataArray" length="2">
            <Value index="0">
              0.40000000596
            </Value>
            <Value index="1">
              1.0012492198
            </Value>
          </InformationKey>
        </DataArray>
      </Points>
      <Cells>
        <DataArray type="Int64" Name="connectivity" format="ascii" RangeMin="0" RangeMax="12">
          0 11 12 1 11 0
          2 1 0 4 3 2
          3 1 2 6 5 4
          5 3 4 8 7 6
          7 5 6 10 9 8
          9 7 8
        </DataArray>
        <DataArray type="Int64" Name="offsets" format="ascii" RangeMin="3" RangeMax="33">
          3 6 9 12 15 18
          21 24 27 30 33
        </DataArray>
        <DataArray type="UInt8" Name="types" format="ascii" RangeMin="5" RangeMax="5">
          5 5 5 5 5 5
          5 5 5 5 5
        </DataArray>
      </Cells>
    </Piece>
  </UnstructuredGrid>
</VTKFile>
