<?xml version="1.0"?>
<VTKFile type="UnstructuredGrid" version="0.1" byte_order="LittleEndian" header_type="UInt32" compressor="vtkZLibDataCompressor">
  <UnstructuredGrid>
    <Piece NumberOfPoints="13" NumberOfCells="11">
      <PointData>
        <DataArray type="Float64" Name="Disp" NumberOfComponents="3" format="ascii" RangeMin="0.03671694937855484" RangeMax="0.15351360034526976">
          0.004961832292647646 0.05437954333042494 0 -0.004617857302072528 0.07358582832063378 0
          0.005182023350212136 0.07362586340077855 0 -0.0047078965485284245 0.09344097296022068 0
          0.005267768715980628 0.09346148575147789 0 -0.004723911774511799 0.11345696652287933 0
          0.005280609685959563 0.11346620435871693 0 -0.0047170758449979104 0.13345793918134702 0
          0.005270614987189073 0.13345912391379766 0 -0.0047147277208171474 0.15342368170516732 0
          0.005264753194137991 0.15342329635610108 0 -0.004382562477912382 0.054323190063006795 0
          0.004475982602228531 0.036443105677369296 0
          <InformationKey name="L2_NORM_RANGE" location="vtkDataArray" length="2">
            <Value index="0">
              0.036716949379
            </Value>
            <Value index="1">
              0.15351360035
            </Value>
          </InformationKey>
        </DataArray>
        <DataArray type="Float64" Name="Nodal Stress" NumberOfComponents="6" format="ascii" RangeMin="208.27274233047888" RangeMax="39070.64732673187">
          11692.638468570958 -14077.32651416666 0 -1733.4297048503288 0 0
          -21420.423163863907 -11218.789218280606 0 7266.062620184977 0 0
          5555.9100589774725 -9146.880297020889 0 -306.7563382430436 0 0
          -11438.718027402974 -6912.1653660680395 0 3705.569687567244 0 0
          1973.2956089308561 -5352.923805830582 0 435.8272717419243 0 0
          -5149.224768812199 -3324.0865220079645 0 1369.1550690599163 0 0
          632.8111697919934 -2152.331104817998 0 456.750071788227 0 0
          -1532.0213948558146 -938.1319742155614 0 234.45301878580125 0 0
          284.0479649260858 -369.74623969519376 0 188.19419521110123 0 0
          -205.82500010351598 18.12475786092568 0 -26.174370722684294 0 0
          290.5565908595169 119.76336683731131 0 51.69546860125069 0 0
          -33894.368041637186 -15362.183715288069 0 11903.386454519672 0 0
          23181.498220672474 -15160.782963789501 0 -5663.110626880757 0 0
          <InformationKey name="L2_NORM_RANGE" location="vtkDataArray" length="2">
            <Value index="0">
              208.27274233
            </Value>
            <Value index="1">
              39070.647327
            </Value>
          </InformationKey>
        </DataArray>
        <DataArray type="Float64" Name="Nodal Strain" NumberOfComponents="6" format="ascii" RangeMin="0.000017478101870657086" RangeMax="0.0029744641738552982">
          0.0013379501232610206 -0.001423117553460867 0 -0.00018572461123396382 0 0
          -0.0011293591824802574 -0.000036326974024904024 0 0.0007785067093055332 0 0
          0.0007235250148205655 -0.0008517739518935446 0 -0.000032866750526040405 0 0
          -0.0005701882388834968 -0.00008520045374046811 0 0.0003970253236679189 0 0
          0.00033212553656043905 -0.00045282654359257214 0 0.000046695779115206175 0 0
          -0.00024908439341487273 -0.000053533866971561854 0 0.00014669518597070532 0 0
          0.00012206976587149943 -0.00017633833497957105 0 0.00004893750769159574 0 0
          -0.00007592538626771673 -0.000012294376913403875 0 0.000025119966298478704 0 0
          0.00003349436319812019 -0.00003655501586844548 0 0.00002016366377261799 0 0
          -0.000015349098502427062 0.000008645518422334549 0 -0.0000028043968631447464 0 0
          0.00001647677910291866 -0.0000018224948994605072 0 0.000005538800207276859 0 0
          -0.0018723768702852252 0.00011321430753789435 0 0.001275362834412822 0 0
          0.0021972778358976593 -0.0019108237195804099 0 -0.0006067618528800812 0 0
          <InformationKey name="L2_NORM_RANGE" location="vtkDataArray" length="2">
            <Value index="0">
              1.7478101871e-05
            </Value>
            <Value index="1">
              0.0029744641739
            </Value>
          </InformationKey>
        </DataArray>
        <DataArray type="Float64" Name="Sld_traction" NumberOfComponents="3" format="ascii" RangeMin="97.2744878695536" RangeMax="31852.623923150768">
          13804.22377587758 13889.67860697492 0 15571.637311046432 -10923.865206893908 0
          5905.09971980684 9555.438260228659 0 7348.115083150539 -6656.685170626032 0
          1653.9382658364805 5652.134092774852 0 2372.7410403646995 -3103.9534724643413 0
          -173.622708821005 2432.293147263914 0 209.35575387763177 -844.0263711413044 0
          -350.0519326376545 522.1362660259064 0 -148.8449052778381 -64.43470737569135 0
          -72.10555774171627 -65.2925304536434 0 27987.121287593363 -15208.90176256047 0
          24194.246391257493 16074.894793967154 0
          <InformationKey name="L2_NORM_RANGE" location="vtkDataArray" length="2">
            <Value index="0">
              97.27448787
            </Value>
            <Value index="1">
              31852.623923
            </Value>
          </InformationKey>
        </DataArray>
        <DataArray type="Float64" Name="Velocity" NumberOfComponents="3" format="ascii" RangeMin="0.8172240937966881" RangeMax="15.455344464044318">
          0.4003993848694001 2.069901770780252 0 -0.5481029971110598 3.9739469417833035 0
          0.5478108470485457 3.9795071830767768 0 -0.6693430185603853 6.427937795340988 0
          0.66692490899332 6.437851441493578 0 -0.7447966350135959 9.281329092045624 0
          0.7435563848281577 9.2908672645802 0 -0.7758342125098361 12.343817287102503 0
          0.7702034039676315 12.353771467648585 0 -0.7708657560474397 15.436108268874598 0
          0.7653277433944268 15.436033204688648 0 -0.39939397870870597 2.0686713764117464 0
          0.2465384291445314 0.7791495507518214 0
          <InformationKey name="L2_NORM_RANGE" location="vtkDataArray" length="2">
            <Value index="0">
              0.8172240938
            </Value>
            <Value index="1">
              15.455344464
            </Value>
          </InformationKey>
        </DataArray>
        <DataArray type="Float64" Name="Acceleration" NumberOfComponents="3" format="ascii" RangeMin="217.674596270333" RangeMax="1250.1725086023846">
          -31.820631561015944 -1249.7674778422734 0 -38.71623335620461 -1234.9674627622662 0
          16.934799249553635 -1234.3003641872492 0 -82.11983091704906 -1032.0309077199054 0
          59.653988245603614 -1028.9615572237672 0 -110.55190131769223 -681.2915812458377 0
          88.63096437091872 -677.9630533251766 0 -122.72382917539971 -249.691788914497 0
          99.21462901042605 -245.91361693455838 0 -120.9014183541235 194.6095175735827 0
          97.54894323478538 194.5929945687385 0 10.006635048068347 -1248.14863241063 0
          -73.23651825430761 -1074.6368334721265 0
          <InformationKey name="L2_NORM_RANGE" location="vtkDataArray" length="2">
            <Value index="0">
              217.67459627
            </Value>
            <Value index="1">
              1250.1725086
            </Value>
          </InformationKey>
        </DataArray>
        <DataArray type="Float64" Name="Sigma" NumberOfComponents="6" format="ascii" RangeMin="300.52448297023824" RangeMax="93973.17698268218">
          38808.97938316619 -26280.216078273523 0 -12051.222736347743 0 0
          -53005.889776567805 -13145.72304393801 0 14474.81114191871 0 0
          19634.133746548734 -15583.633959278162 0 -5542.124617600397 0 0
          -27195.318372833997 -8834.416285021929 0 6942.074605643946 0 0
          7237.753404908163 -9242.066811554789 0 -1210.8771120917113 0 0
          -11902.84117897105 -4214.612657874344 0 1845.5809344087531 0 0
          2161.511241384716 -3754.693948965494 0 462.003470948356 0 0
          -3372.189580037899 -1168.7530191530518 0 -87.95210109076254 0 0
          495.5999481700825 -732.3861525486905 0 404.59948122431814 0 0
          -373.42998040124127 132.777763013975 0 -237.63800677991154 0 0
          202.16488890833773 221.4676195157049 0 19.91019998029807 0 0
          -86921.15728778313 -21409.52608984117 0 28588.504692959807 0 0
          70062.07260991792 -24168.162569611817 0 -29078.32709227412 0 0
          <InformationKey name="L2_NORM_RANGE" location="vtkDataArray" length="2">
            <Value index="0">
              300.52448297
            </Value>
            <Value index="1">
              93973.176983
            </Value>
          </InformationKey>
        </DataArray>
        <DataArray type="Float64" Name="Press" format="ascii" RangeMin="28.810912287707207" RangeMax="11265.063340648268">
          11265.063340648268 2787.5761556544076 6415.793896185085 2145.4362349592498 3595.950240180405 1388.568722652469
          1594.1957409069914 538.187975317187 426.7366725736036 151.36812070353298 28.810912287707207 3987.9024516748195
          10058.541941356421
        </DataArray>
        <DataArray type="Float64" Name="Dev strain" NumberOfComponents="6" format="ascii" RangeMin="0.000014267505064027775" RangeMax="0.0029773296292437087">
          0.0010474272866655156 -0.0017136403900563713 0 -0.00018572461123396382 0 0
          -0.0013026345101416483 -0.00020960230168629452 0 0.0007785067093055332 0 0
          0.0005353648905968556 -0.0010399340761172546 0 -0.000032866750526040405 0 0
          -0.000680522317933477 -0.00019553453279044834 0 0.0003970253236679189 0 0
          0.0002230371407467547 -0.0005619149394062566 0 0.000046695779115206175 0 0
          -0.0003127609663564383 -0.00011721043991312748 0 0.00014669518597070532 0 0
          0.00007016091243657303 -0.00022824718841449746 0 0.00004893750769159574 0 0
          -0.00010214839079813433 -0.000038517381443821486 0 0.000025119966298478704 0 0
          0.000016939187958007806 -0.00005311019110855787 0 0.00002016366377261799 0 0
          -0.00002439349455406203 -3.988776293004258e-7 0 -0.0000028043968631447464 0 0
          0.000010800648586378029 -0.000007498625416001142 0 0.000005538800207276859 0 0
          -0.0020727779036511748 -0.00008718672582805521 0 0.001275362834412822 0 0
          0.0018836357255849674 -0.0022244658298931014 0 -0.0006067618528800812 0 0
          <InformationKey name="L2_NORM_RANGE" location="vtkDataArray" length="2">
            <Value index="0">
              1.4267505064e-05
            </Value>
            <Value index="1">
              0.0029773296292
            </Value>
          </InformationKey>
        </DataArray>
        <DataArray type="Float64" Name="J2 Stresses" format="ascii" RangeMin="45058.37841645065" RangeMax="4211153345.964408">
          1134701311.3021486 1543597232.0753424 321853213.99631876 420864226.2060131 69266992.49489798 80571836.24022508
          9438290.550307378 6370756.984769345 431929.577587378 92657.89787331568 45058.37841645065 4211153345.964408
          2957784326.815619
        </DataArray>
      </PointData>
      <CellData>
        <DataArray type="UInt8" Name="vtkGhostType" format="ascii" RangeMin="0" RangeMax="1">
          1 1 0 0 0 0
          0 0 0 0 0
        </DataArray>
        <DataArray type="Float64" Name="Gauss Stress" NumberOfComponents="6" format="ascii" RangeMin="325.65943415926193" RangeMax="32821.11559056277">
          15753.800812993497 -15515.465668015666 0 -4180.348378554019 0 0
          -27692.508577735756 -14264.974421358402 0 10337.364366176924 0 0
          8635.218915211628 -11513.713229667308 0 -1039.512070676477 0 0
          3944.583049982549 -7167.645561510046 0 63.02429198394566 0 0
          -16406.089372018105 -8738.322333813117 0 5291.587043320753 0 0
          1358.3793903538976 -3544.2195715515873 0 365.5690977551326 0 0
          -8243.483649701586 -5053.713518886312 0 2525.5928093203293 0 0
          614.6806661048939 -1032.237577289818 0 259.5502836939705 0 0
          -3197.522359582528 -1872.3690623720806 0 739.8774347554486 0 0
          310.41685408067417 76.25831184861107 0 62.2905581415682 0 0
          -711.2422812249114 -217.35621336448116 0 26.336457784547946 0 0
          <InformationKey name="L2_NORM_RANGE" location="vtkDataArray" length="2">
            <Value index="0">
              325.65943416
            </Value>
            <Value index="1">
              32821.115591
            </Value>
          </InformationKey>
        </DataArray>
        <DataArray type="Float64" Name="Gauss Strain" NumberOfComponents="6" format="ascii" RangeMin="0.00002132163399418316" RangeMax="0.002410980893481621">
          0.001679395260500095 -0.001670883291036601 0 -0.0004478944691307878 0 0
          -0.0014685729547897544 -0.000029908580892180426 0 0.001107574753518956 0 0
          0.0010280053950032348 -0.001130808763376652 0 -0.00011137629328676537 0 0
          0.0005377432736241123 -0.0006528526490358086 0 0.000006752602712565599 0 0
          -0.0008597805860793964 -0.00003823411770029043 0 0.0005669557546415092 0 0
          0.0002236063697235494 -0.0003016720904806097 0 0.00003916811761662135 0 0
          -0.00040833049216131657 -0.00006656940671682286 0 0.00027059922957003524 0 0
          0.00008077138962498594 -0.00009568413645301893 0 0.00002780895896721113 0 0
          -0.0001615241305997492 -0.000019543420184344064 0 0.00007927258229522664 0 0
          0.000019449121296883477 -0.000005639293942266142 0 0.00000667398837231088 0 0
          -0.00004304029818161934 0.000009876066231998166 0 0.0000028217633340587112 0 0
          <InformationKey name="L2_NORM_RANGE" location="vtkDataArray" length="2">
            <Value index="0">
              2.1321633994e-05
            </Value>
            <Value index="1">
              0.0024109808935
            </Value>
          </InformationKey>
        </DataArray>
      </CellData>
      <Points>
        <DataArray type="Float32" Name="Points" NumberOfComponents="3" format="ascii" RangeMin="0.4000000059604645" RangeMax="1.0012492197622458">
          0.5 0 0 0.6000000238418579 0.05000000074505806 0
          0.6000000238418579 0 0 0.699999988079071 0.05000000074505806 0
          0.699999988079071 0 0 0.800000011920929 0.05000000074505806 0
          0.800000011920929 0 0 0.8999999761581421 0.05000000074505806 0
          0.8999999761581421 0 0 1 0.05000000074505806 0
          1 0 0 0.5 0.05000000074505806 0
          0.4000000059604645 0 0
          <InformationKey name="L2_NORM_RANGE" location="vtkDataArray" length="2">
            <Value index="0">
              0.40000000596
            </Value>
            <Value index="1">
              1.0012492198
            </Value>
          </InformationKey>
        </DataArray>
      </Points>
      <Cells>
        <DataArray type="Int64" Name="connectivity" format="ascii" RangeMin="0" RangeMax="12">
          0 11 12 1 11 0
          2 1 0 4 3 2
          3 1 2 6 5 4
          5 3 4 8 7 6
          7 5 6 10 9 8
          9 7 8
        </DataArray>
        <DataArray type="Int64" Name="offsets" format="ascii" RangeMin="3" RangeMax="33">
          3 6 9 12 15 18
          21 24 27 30 33
        </DataArray>
        <DataArray type="UInt8" Name="types" format="ascii" RangeMin="5" RangeMax="5">
          5 5 5 5 5 5
          5 5 5 5 5
        </DataArray>
      </Cells>
    </Piece>
  </UnstructuredGrid>
</VTKFile>
