<?xml version="1.0"?>
<VTKFile type="UnstructuredGrid" version="0.1" byte_order="LittleEndian" header_type="UInt32" compressor="vtkZLibDataCompressor">
  <UnstructuredGrid>
    <Piece NumberOfPoints="13" NumberOfCells="11">
      <PointData>
        <DataArray type="Float64" Name="Disp" NumberOfComponents="3" format="ascii" RangeMin="0.010716188371027313" RangeMax="0.10196930614519441">
          -0.0026683497106822296 -0.01938886783958215 0 0.003312367733386455 -0.03135750774914139 0
          -0.003440163064770167 -0.03137503299717026 0 0.004016087817842462 -0.0463324037974223 0
          -0.004125615209122125 -0.046376462059235686 0 0.004511884691230763 -0.06375694175328503 0
          -0.004628925808054686 -0.06380938181379119 0 0.004750370677285349 -0.08266302145535012 0
          -0.004832993790205024 -0.08273260506360601 0 0.00472009090332811 -0.10185487480545298 0
          -0.004811267945354606 -0.10185573668915456 0 0.0025305320494565424 -0.019389343349947043 0
          -0.001893293976695558 -0.01054761257921191 0
          <InformationKey name="L2_NORM_RANGE" location="vtkDataArray" length="2">
            <Value index="0">
              0.010716188371
            </Value>
            <Value index="1">
              0.10196930615
            </Value>
          </InformationKey>
        </DataArray>
        <DataArray type="Float64" Name="Nodal Stress" NumberOfComponents="6" format="ascii" RangeMin="6770.081298875089" RangeMax="37526.54221528321">
          -34053.56361747908 -756.2243676360908 0 11446.433684685984 0 0
          34912.22287199871 2408.8709409496864 0 -12631.07980110966 0 0
          -28762.42597831379 4389.691067322771 0 9781.709962016925 0 0
          34122.66668732503 8212.564348245382 0 -13126.468805185172 0 0
          -19818.854184199197 10039.665783672923 0 6468.710453352838 0 0
          29623.50722155965 12796.411991420939 0 -11776.471310250363 0 0
          -9048.67381297834 14049.83614332722 0 2372.4059262231976 0 0
          22750.884380617674 15657.01812050537 0 -8007.752387187144 0 0
          -1295.2185520446187 13760.784525514602 0 -863.252272884489 0 0
          14038.186395752457 10121.269007688961 0 -3266.5231792389695 0 0
          -2456.287499273003 6155.010055897443 0 -1384.378462016347 0 0
          32870.84589292934 -2243.1277660112355 0 -10976.898740364986 0 0
          -35282.45197063 -4575.374834099717 0 11935.489043315636 0 0
          <InformationKey name="L2_NORM_RANGE" location="vtkDataArray" length="2">
            <Value index="0">
              6770.0812989
            </Value>
            <Value index="1">
              37526.542215
            </Value>
          </InformationKey>
        </DataArray>
        <DataArray type="Float64" Name="Nodal Strain" NumberOfComponents="6" format="ascii" RangeMin="0.0006755419337511307" RangeMax="0.0030097459614602255">
          -0.002405389388118645 0.0011621826743645315 0 0.0012264036090734978 0 0
          0.0024076991001088484 -0.0010748028925035478 0 -0.0013533299786903207 0 0
          -0.002211233679426798 0.0013407788611771191 0 0.001048040353073242 0 0
          0.002144027465228739 -0.0006320549282440808 0 -0.0014064073719841253 0 0
          -0.0017741919340025468 0.001424935205412323 0 0.0006930761200020896 0 0
          0.0016589500875606555 -0.00014395297281134874 0 -0.0012617647832411103 0 0
          -0.0011481137060458538 0.0013267266464154568 0 0.0002541863492381998 0 0
          0.001065883951454642 0.00030582685215689554 0 -0.0008579734700557653 0 0
          -0.00058397220105728 0.0010291709858240652 0 -0.00009249131495190953 0 0
          0.0006412537065648556 0.00022158398641519532 0 -0.0003499846263470324 0 0
          -0.0003952708948015517 0.0005273681289667103 0 -0.00014832626378746572 0 0
          0.002428029269709641 -0.0013341821937482793 0 -0.001176096293610534 0 0
          -0.0023567688966842962 0.0009332750822296632 0 0.001278802397498104 0 0
          <InformationKey name="L2_NORM_RANGE" location="vtkDataArray" length="2">
            <Value index="0">
              0.00067554193375
            </Value>
            <Value index="1">
              0.0030097459615
            </Value>
          </InformationKey>
        </DataArray>
        <DataArray type="Float64" Name="Sld_traction" NumberOfComponents="3" format="ascii" RangeMin="5046.521358120812" RangeMax="36057.7066493781">
          -34790.36471951549 1386.7658048612664 0 -35910.625792319006 3253.4849033979967 0
          -32376.907491514055 -3565.33646495958 0 -34319.595053036115 8960.287070144961 0
          -25492.59999432342 -9251.614438673692 0 -27737.671525340666 13461.971519169974 0
          -14839.941102601882 -13276.840415051736 0 -16399.670855518074 15321.434976253335 0
          -3932.6019225050127 -13520.119845162095 0 65.49972184307536 6211.367214475749 0
          1619.647972321915 -4779.552098651403 0 -33806.56811508652 -1628.4971186637943 0
          -33321.15949435701 4915.879679903011 0
          <InformationKey name="L2_NORM_RANGE" location="vtkDataArray" length="2">
            <Value index="0">
              5046.5213581
            </Value>
            <Value index="1">
              36057.706649
            </Value>
          </InformationKey>
        </DataArray>
        <DataArray type="Float64" Name="Velocity" NumberOfComponents="3" format="ascii" RangeMin="5.78126938277013" RangeMax="12.110809494150473">
          -0.5618077154607836 -7.910006631509573 0 0.3944182736139916 -9.8224315985755 0
          -0.4691551015087827 -9.838488074017011 0 0.2421618773580052 -11.304593857133268 0
          -0.3360253952895207 -11.312323014095034 0 0.05086523406554577 -12.085306003346691 0
          -0.10120788332997965 -12.110386598616788 0 -0.27993681536998727 -11.827589521491952 0
          0.13469103302471952 -11.759643777510789 0 -0.32444010381930344 -10.725817081021162 0
          0.182587525303453 -10.750615908312682 0 0.46740104328263166 -7.897720581247023 0
          -0.5902755865439466 -5.75105646017195 0
          <InformationKey name="L2_NORM_RANGE" location="vtkDataArray" length="2">
            <Value index="0">
              5.7812693828
            </Value>
            <Value index="1">
              12.110809494
            </Value>
          </InformationKey>
        </DataArray>
        <DataArray type="Float64" Name="Acceleration" NumberOfComponents="3" format="ascii" RangeMin="692.328567540977" RangeMax="5381.286669568936">
          -110.51031308324968 -1345.102847883983 0 58.434844472989425 -1692.1952072322947 0
          -24.443718169527983 -1714.718603171701 0 -124.33494150891966 -1580.505505026409 0
          132.66555062318457 -1593.9565286184734 0 -374.1244051625854 -582.537359226928 0
          441.39401657809685 -617.1870314780135 0 -815.8342925992997 1797.9625573244848 0
          757.32056299736 1888.3451506331403 0 -875.550455298458 5309.581680349875 0
          822.4694850731839 5276.705732766357 0 120.47469008075905 -1330.8313255243152 0
          -121.05376029253341 -825.3466993485579 0
          <InformationKey name="L2_NORM_RANGE" location="vtkDataArray" length="2">
            <Value index="0">
              692.32856754
            </Value>
            <Value index="1">
              5381.2866696
            </Value>
          </InformationKey>
        </DataArray>
        <DataArray type="Float64" Name="Sigma" NumberOfComponents="6" format="ascii" RangeMin="7405.659133293074" RangeMax="104680.2843174369">
          -97629.92440949393 4621.130303901552 0 35181.995264431214 0 0
          98104.96190247756 -1978.757406688801 0 -36461.800476914585 0 0
          -85762.7604235478 11407.93201542315 0 33225.20378278244 0 0
          92350.69726732533 7436.603651644184 0 -35203.86600830849 0 0
          -63342.23921988498 19203.5818302275 0 26178.63455352339 0 0
          75681.80937569143 14895.835331822153 0 -28640.30580806815 0 0
          -34699.06372138292 22557.692472537576 0 15015.857969064557 0 0
          52274.901258843005 20374.541888009375 0 -16660.939911462876 0 0
          -13960.3751209245 22508.052970512595 0 2797.5801858296672 0 0
          33592.44351623935 13203.81009304768 0 -3113.959679188767 0 0
          -2878.492065958968 6304.205710259211 0 -2610.567177353144 0 0
          94963.96589972494 -8503.342106916942 0 -34412.68683794722 0 0
          -98179.77791968134 -2186.6730092930184 0 34789.003476585676 0 0
          <InformationKey name="L2_NORM_RANGE" location="vtkDataArray" length="2">
            <Value index="0">
              7405.6591333
            </Value>
            <Value index="1">
              104680.28432
            </Value>
          </InformationKey>
        </DataArray>
        <DataArray type="Float64" Name="Press" format="ascii" RangeMin="-9468.329914225666" RangeMax="6749.1423749380165">
          -6226.843409177698 4961.621452711124 -8092.3120206652 1907.0493166334277 -9468.329914225666 -1491.588830085156
          -9304.6334992607 -2563.351748215118 -5594.49828931151 -5924.207296441699 -6090.764337367857 6749.1423749380165
          -3026.6893935279413
        </DataArray>
        <DataArray type="Float64" Name="Dev strain" NumberOfComponents="6" format="ascii" RangeMin="0.0007757704748669319" RangeMax="0.0029744710665795733">
          -0.0023308104172437612 0.0012367616452394158 0 0.0012264036090734978 0 0
          0.0023785693097869657 -0.0011039326828254298 0 -0.0013533299786903207 0 0
          -0.0020609012273175562 0.0014911113132863615 0 0.001048040353073242 0 0
          0.002204173165667296 -0.0005719092278055236 0 -0.0014064073719841253 0 0
          -0.001555810969621049 0.001643316169793821 0 0.0006930761200020896 0 0
          0.0017992827132721598 -0.0000036203470998446373 0 -0.0012617647832411103 0 0
          -0.0009129931395110267 0.001561847212950284 0 0.0002541863492381998 0 0
          0.0012224142198860764 0.00046235712058833017 0 -0.0008579734700557653 0 0
          -0.0003877296246828417 0.0012254135621985033 0 -0.00009249131495190953 0 0
          0.0008356284469665197 0.00041595872681685965 0 -0.0003499846263470324 0 0
          -0.0001836616603329006 0.0007389773634353615 0 -0.00014832626378746572 0 0
          0.0023210819164182564 -0.0014411295470396627 0 -0.001176096293610534 0 0
          -0.002365766073473951 0.0009242779054400086 0 0.001278802397498104 0 0
          <InformationKey name="L2_NORM_RANGE" location="vtkDataArray" length="2">
            <Value index="0">
              0.00077577047487
            </Value>
            <Value index="1">
              0.0029744710666
            </Value>
          </InformationKey>
        </DataArray>
        <DataArray type="Float64" Name="J2 Stresses" format="ascii" RangeMin="25718128.352395166" RangeMax="5146615238.885132">
          5085921690.441183 5146615238.885132 4018674535.769542 4601805225.299144 2361838639.0214224 3179877869.5005436
          912806254.0498651 1643290359.0673614 352708874.74420106 653820617.4034027 25718128.352395166 4841289077.047351
          5124593856.32723
        </DataArray>
      </PointData>
      <CellData>
        <DataArray type="UInt8" Name="vtkGhostType" format="ascii" RangeMin="0" RangeMax="1">
          1 1 0 0 0 0
          0 0 0 0 0
        </DataArray>
        <DataArray type="Float64" Name="Gauss Stress" NumberOfComponents="6" format="ascii" RangeMin="8198.791497097842" RangeMax="37160.66150221662">
          -34450.04228573933 -2857.758413358677 0 11852.770634356559 0 0
          33640.97460372668 -125.68293041091533 0 -11897.497350143538 0 0
          -31548.418969231996 1564.2569785013761 0 10648.466190099694 0 0
          -24135.96499812164 7464.841626345798 0 8066.657442665781 0 0
          34489.752498311485 5214.045669685964 0 -12813.487567480217 0 0
          -14208.015269716 12130.8524636719 0 4184.728904839933 0 0
          31879.132665151476 10827.717128672146 0 -12555.179087617753 0 0
          -4615.673706750582 15992.601264757404 0 384.16608114378323 0 0
          26632.690945196846 14822.83187160271 0 -10095.129250155489 0 0
          -285.2978645883968 8135.532950232804 0 -975.6488902374145 0 0
          19274.97077339651 14001.449205867104 0 -5659.106468273992 0 0
          <InformationKey name="L2_NORM_RANGE" location="vtkDataArray" length="2">
            <Value index="0">
              8198.7914971
            </Value>
            <Value index="1">
              37160.661502
            </Value>
          </InformationKey>
        </DataArray>
        <DataArray type="Float64" Name="Gauss Strain" NumberOfComponents="6" format="ascii" RangeMin="0.0006761959119759533" RangeMax="0.0029808987142475596">
          -0.002358654505647142 0.0010262330521079277 0 0.001269939710823917 0 0
          0.0024074154334951534 -0.0012104407308767323 0 -0.0012747318589439501 0 0
          -0.002309324818463049 0.0012384618902226696 0 0.0011409070917963954 0 0
          -0.0019905989865210386 0.0013952017232433296 0 0.0008642847259999053 0 0
          0.002277337833104894 -0.0008593450413906989 0 -0.0013728736679443092 0 0
          -0.001448102964396568 0.0013739185784664215 0 0.0004483638112328502 0 0
          0.001890376721486814 -0.00036513208599311324 0 -0.0013451977593876164 0 0
          -0.000900855309937806 0.0013071741512951927 0 0.000041160651551119636 0 0
          0.0013729482149568218 0.00010760617135744895 0 -0.001081620991088088 0 0
          -0.0003109331671217714 0.000591298705894786 0 -0.00010453380966829448 0 0
          0.000876731869318783 0.0003117117013692037 0 -0.0006063328358864991 0 0
          <InformationKey name="L2_NORM_RANGE" location="vtkDataArray" length="2">
            <Value index="0">
              0.00067619591198
            </Value>
            <Value index="1">
              0.0029808987142
            </Value>
          </InformationKey>
        </DataArray>
      </CellData>
      <Points>
        <DataArray type="Float32" Name="Points" NumberOfComponents="3" format="ascii" RangeMin="0.4000000059604645" RangeMax="1.0012492197622458">
          0.5 0 0 0.6000000238418579 0.05000000074505806 0
          0.6000000238418579 0 0 0.699999988079071 0.05000000074505806 0
          0.699999988079071 0 0 0.800000011920929 0.05000000074505806 0
          0.800000011920929 0 0 0.8999999761581421 0.05000000074505806 0
          0.8999999761581421 0 0 1 0.05000000074505806 0
          1 0 0 0.5 0.05000000074505806 0
          0.4000000059604645 0 0
          <InformationKey name="L2_NORM_RANGE" location="vtkDataArray" length="2">
            <Value index="0">
              0.40000000596
            </Value>
            <Value index="1">
              1.0012492198
            </Value>
          </InformationKey>
        </DataArray>
      </Points>
      <Cells>
        <DataArray type="Int64" Name="connectivity" format="ascii" RangeMin="0" RangeMax="12">
          0 11 12 1 11 0
          2 1 0 4 3 2
          3 1 2 6 5 4
          5 3 4 8 7 6
          7 5 6 10 9 8
          9 7 8
        </DataArray>
        <DataArray type="Int64" Name="offsets" format="ascii" RangeMin="3" RangeMax="33">
          3 6 9 12 15 18
          21 24 27 30 33
        </DataArray>
        <DataArray type="UInt8" Name="types" format="ascii" RangeMin="5" RangeMax="5">
          5 5 5 5 5 5
          5 5 5 5 5
        </DataArray>
      </Cells>
    </Piece>
  </UnstructuredGrid>
</VTKFile>
