<?xml version="1.0"?>
<VTKFile type="UnstructuredGrid" version="0.1" byte_order="LittleEndian" header_type="UInt32" compressor="vtkZLibDataCompressor">
  <UnstructuredGrid>
    <Piece NumberOfPoints="13" NumberOfCells="11">
      <PointData>
        <DataArray type="Float64" Name="Disp" NumberOfComponents="3" format="ascii" RangeMin="0.03719581252864018" RangeMax="0.16871309604396317">
          0.005345023260971124 0.05604910135344289 0 -0.005166088267854326 0.07712541277308063 0
          0.005723651524353552 0.07717108605672225 0 -0.005387390008385814 0.09944346699171273 0
          0.00593837286042031 0.09947457363326954 0 -0.005485503722799712 0.12235615755359933 0
          0.006034617834887278 0.12237569600408842 0 -0.0055125764073522985 0.14548192535794624 0
          0.00605377014472195 0.14549394785818506 0 -0.005504837225726647 0.1686053128623137 0
          0.006042652744792678 0.168604849054069 0 -0.004771085544165117 0.05599200899713471 0
          0.004696522230929665 0.03689811849674898 0
          <InformationKey name="L2_NORM_RANGE" location="vtkDataArray" length="2">
            <Value index="0">
              0.037195812529
            </Value>
            <Value index="1">
              0.16871309604
            </Value>
          </InformationKey>
        </DataArray>
        <DataArray type="Float64" Name="Nodal Stress" NumberOfComponents="6" format="ascii" RangeMin="1094.341697066087" RangeMax="45159.49656795696">
          18367.99789109086 -14014.940089642016 0 -4101.538370327946 0 0
          -28529.40838179758 -12140.000481878336 0 9975.521504659717 0 0
          10806.027068324847 -10580.76835756076 0 -2108.5012058771904 0 0
          -18265.975240534633 -9085.2390994828 0 6363.897110319589 0 0
          5301.524602647549 -7787.421295725461 0 -580.2102608717338 0 0
          -10690.716271738049 -6034.285966272751 0 3514.5305146426717 0 0
          2045.3022812770598 -4876.757562252739 0 191.10817264084702 0 0
          -5385.034482785906 -3597.1227005745295 0 1516.917174254637 0 0
          519.1996753257657 -2567.9426909599097 0 380.77500400984707 0 0
          -2368.9116416038937 -1493.1997360425323 0 450.78666171080624 0 0
          735.8361084887517 -762.3023724104023 0 273.905210609593 0 0
          -40256.23137405736 -14755.622927463512 0 14180.534469905893 0 0
          30173.940546465463 -13738.68226347274 0 -8223.714027729584 0 0
          <InformationKey name="L2_NORM_RANGE" location="vtkDataArray" length="2">
            <Value index="0">
              1094.3416971
            </Value>
            <Value index="1">
              45159.496568
            </Value>
          </InformationKey>
        </DataArray>
        <DataArray type="Float64" Name="Nodal Strain" NumberOfComponents="6" format="ascii" RangeMin="0.0001172356551912831" RangeMax="0.003466523043794998">
          0.001812533423993705 -0.0016570670739419603 0 -0.0004394505396779942 0 0
          -0.001604243438632744 0.000151764550644318 0 0.0010688058754992555 0 0
          0.0011497436605075162 -0.001141698706551656 0 -0.00022591084348684183 0 0
          -0.000980239692199517 0.000003410608627465484 0 0.0006818461189628131 0 0
          0.0006568025178935916 -0.0007455845426463741 0 -0.00006216538509340005 0 0
          -0.0005481123777572628 -0.00004920913074312322 0 0.000376556840854572 0 0
          0.0003202629330288164 -0.000421386335920805 0 0.00002047587564009074 0 0
          -0.0002561766523213316 -0.0000646146756558269 0 0.0001625268400987111 0 0
          0.0001287979300575515 -0.00020196732347305664 0 0.00004079732185819789 0 0
          -0.00011587941239875912 -0.00002205313680289898 0 0.000048298570897586384 0 0
          0.0000797848067638538 -0.0000807300304753413 0 0.00002934698685102782 0 0
          -0.0023484585650232577 0.00038374948282608344 0 0.001519342978918488 0 0
          0.0026459486913001317 -0.002058975181193248 0 -0.0008811122172567412 0 0
          <InformationKey name="L2_NORM_RANGE" location="vtkDataArray" length="2">
            <Value index="0">
              0.00011723565519
            </Value>
            <Value index="1">
              0.0034665230438
            </Value>
          </InformationKey>
        </DataArray>
        <DataArray type="Float64" Name="Sld_traction" NumberOfComponents="3" format="ascii" RangeMin="716.6251913775258" RangeMax="37989.674060377416">
          21029.511221257304 13648.532126338187 0 23056.969897489376 -12034.99554167721 0
          12212.55578383176 10782.275842092233 0 14042.185531886516 -8941.839695030922 0
          6124.971843920797 7955.011978913178 0 7256.253087858124 -5869.876338291004 0
          2110.9585455792885 5078.642423215535 0 2770.029406254736 -3410.604801262284 0
          131.8470034261885 2736.959674079701 0 -206.68142465178093 -1020.1785798725972 0
          -342.9313608664896 629.2453787284678 0 34993.164291084046 -14788.299026964292 0
          31187.382695608387 14438.364221798774 0
          <InformationKey name="L2_NORM_RANGE" location="vtkDataArray" length="2">
            <Value index="0">
              716.62519138
            </Value>
            <Value index="1">
              37989.67406
            </Value>
          </InformationKey>
        </DataArray>
        <DataArray type="Float64" Name="Velocity" NumberOfComponents="3" format="ascii" RangeMin="0.1885899836629044" RangeMax="15.183785445376849">
          0.3673266864295113 1.1378416544935277 0 -0.560615473839496 3.0012707119617588 0
          0.5450182052691801 3.0071448584154084 0 -0.709106071251079 5.532049058406038 0
          0.6909533500178684 5.54384961604535 0 -0.8025288490049127 8.555408598903185 0
          0.785902717276107 8.567029118359557 0 -0.841298152926798 11.839129776570537 0
          0.8192803618159363 11.85147366490304 0 -0.8351821532860693 15.160798502126141 0
          0.8133658122072824 15.160713926089628 0 -0.3816773316907991 1.1377872007905587 0
          0.1885341575612567 0.004588395214209839 0
          <InformationKey name="L2_NORM_RANGE" location="vtkDataArray" length="2">
            <Value index="0">
              0.18858998366
            </Value>
            <Value index="1">
              15.183785445
            </Value>
          </InformationKey>
        </DataArray>
        <DataArray type="Float64" Name="Acceleration" NumberOfComponents="3" format="ascii" RangeMin="509.5817054747193" RangeMax="868.7250163740853">
          -34.41683309184555 -800.6874955245876 0 -0.2559373414746915 -868.7249786729008 0
          -12.365345814262582 -868.5690542661032 0 -20.30088259400827 -850.887527697807 0
          7.358470892723744 -849.5271194038651 0 -33.59062654863328 -764.2761226513248 0
          20.903528199115954 -762.7512384174042 0 -39.332699689105084 -639.6622210065834 0
          25.903507130490652 -637.8950465223461 0 -38.48749772412157 -508.95422345639963 0
          25.14361452052117 -508.9610134414688 0 21.741824911942786 -799.70488456764 0
          -51.99760088679113 -648.2734627442733 0
          <InformationKey name="L2_NORM_RANGE" location="vtkDataArray" length="2">
            <Value index="0">
              509.58170547
            </Value>
            <Value index="1">
              868.72501637
            </Value>
          </InformationKey>
        </DataArray>
        <DataArray type="Float64" Name="Sigma" NumberOfComponents="6" format="ascii" RangeMin="1027.016801684553" RangeMax="113077.22200511">
          58223.49106269853 -27181.93677157312 0 -19494.565722470983 0 0
          -72785.46482403716 -13470.535958764678 0 22186.025054130016 0 0
          35718.12044228709 -18666.986372867264 0 -12009.239996168859 0 0
          -45325.529858308975 -11122.494852753842 0 13809.875058270985 0 0
          18292.983272134785 -13668.420854949953 0 -5743.808995844146 0 0
          -25798.60226799435 -7469.885589497484 0 6827.587904105154 0 0
          7796.705366756972 -8180.617204160411 0 -1765.3550839793509 0 0
          -12189.569089713244 -4610.287104661714 0 2417.2918524571446 0 0
          2682.5305927684344 -4372.8453040969 0 139.47805828582125 0 0
          -5488.668379182117 -1772.7386458862118 0 123.42112359468221 0 0
          690.9768647561973 -635.5770152573964 0 416.36083027893426 0 0
          -105505.82803033403 -19344.472129641123 0 35787.844110145204 0 0
          89629.14538183554 -23101.006098105485 0 -36189.564441491035 0 0
          <InformationKey name="L2_NORM_RANGE" location="vtkDataArray" length="2">
            <Value index="0">
              1027.0168017
            </Value>
            <Value index="1">
              113077.22201
            </Value>
          </InformationKey>
        </DataArray>
        <DataArray type="Float64" Name="Press" format="ascii" RangeMin="943.8349355561306" RangeMax="12471.476715993094">
          12471.476715993094 1916.1483793059247 8196.817741667655 2009.2684443243509 5565.900382775022 1826.1406324886711
          3330.7958505806682 1079.235311380435 1402.7966512976004 1077.0619684464323 943.8349355561306 2465.2756058423697
          10521.822193596088
        </DataArray>
        <DataArray type="Float64" Name="Dev strain" NumberOfComponents="6" format="ascii" RangeMin="0.00012984321942093423" RangeMax="0.00344160905172997">
          0.0015080383400606127 -0.0019615621578750525 0 -0.0004394505396779942 0 0
          -0.0017748030316128744 -0.000018795042335812172 0 0.0010688058754992555 0 0
          0.0009263236688526513 -0.0013651186982065208 0 -0.00022591084348684183 0 0
          -0.0011091781919811419 -0.00012552789115415972 0 0.0006818461189628131 0 0
          0.0005002732499098876 -0.0009021138106300781 0 -0.00006216538509340005 0 0
          -0.000642870532570799 -0.00014396728555665956 0 0.000376556840854572 0 0
          0.00022275036152496266 -0.0005188989074246588 0 0.00002047587564009074 0 0
          -0.000312265341228993 -0.0001207033645634884 0 0.0001625268400987111 0 0
          0.00007819077156476536 -0.00025257448196584276 0 0.00004079732185819789 0 0
          -0.0001566691955385694 -0.00006284291994270926 0 0.000048298570897586384 0 0
          0.00004078901666692256 -0.00011972582057227251 0 0.00002934698685102782 0 0
          -0.00252313289527233 0.0002090751525770109 0 0.001519342978918488 0 0
          0.0023435231843337858 -0.002361400688159594 0 -0.0008811122172567412 0 0
          <InformationKey name="L2_NORM_RANGE" location="vtkDataArray" length="2">
            <Value index="0">
              0.00012984321942
            </Value>
            <Value index="1">
              0.0034416090517
            </Value>
          </InformationKey>
        </DataArray>
        <DataArray type="Float64" Name="J2 Stresses" format="ascii" RangeMin="484042.67022354336" RangeMax="6073036621.6834545">
          2159425822.2679024 2862644541.2593827 848175715.408665 1136734936.624261 268977318.27650195 372337523.99824333
          64634675.85164406 86380995.86514026 13163736.749536237 16637849.635063404 484042.67022354336 6073036621.6834545
          4610941235.927666
        </DataArray>
      </PointData>
      <CellData>
        <DataArray type="UInt8" Name="vtkGhostType" format="ascii" RangeMin="0" RangeMax="1">
          1 1 0 0 0 0
          0 0 0 0 0
        </DataArray>
        <DataArray type="Float64" Name="Gauss Stress" NumberOfComponents="6" format="ascii" RangeMin="1222.3038004903417" RangeMax="39434.025278339315">
          22601.79430987721 -14722.946827962725 0 -6632.095351272273 0 0
          -34404.96703017711 -14381.348052945843 0 12826.434480601416 0 0
          14580.196505971711 -12245.005422079463 0 -3105.926888169942 0 0
          8152.520141626643 -9228.638503934679 0 -1314.3913112473415 0 0
          -23423.546558253707 -10379.260873029285 0 7995.553372077381 0 0
          3671.3077455805915 -6198.6955942544955 0 -227.19205857278143 0 0
          -14476.613131526834 -7619.830612537744 0 4964.551322177331 0 0
          1367.4982276902888 -3783.6405998867735 0 263.80494225453833 0 0
          -7985.098065500282 -4674.8727012899435 0 2493.174890860983 0 0
          436.1775445475595 -1119.1558033134477 0 226.42000405314593 0 0
          -3812.2043150008203 -2398.9257078401192 0 893.3970114458825 0 0
          <InformationKey name="L2_NORM_RANGE" location="vtkDataArray" length="2">
            <Value index="0">
              1222.3038005
            </Value>
            <Value index="1">
              39434.025278
            </Value>
          </InformationKey>
        </DataArray>
        <DataArray type="Float64" Name="Gauss Strain" NumberOfComponents="6" format="ascii" RangeMin="0.00012153567765023303" RangeMax="0.002922470490084982">
          0.002140233408847041 -0.0018588459987786661 0 -0.0007105816447791722 0 0
          -0.001943878071693156 0.00020150967586733595 0 0.0013742608372072944 0 0
          0.0014787642297865318 -0.0013953645482189512 0 -0.000332777880875351 0 0
          0.0009119170995424271 -0.0009503498981962856 0 -0.00014082764049078655 0 0
          -0.0013024225801242192 0.00009517945757839762 0 0.0008566664327225765 0 0
          0.0004836182530505598 -0.0005738821047889136 0 -0.000024342006275655104 0 0
          -0.000761906987518426 -0.000027251717626737765 0 0.0005319162130904283 0 0
          0.00023280846625954823 -0.0003190992652665656 0 0.00002826481524155769 0 0
          -0.00040340440820395084 -0.000048737404895700224 0 0.0002671258811636767 0 0
          0.00007112538901459167 -0.00009551746968480196 0 0.00002425928614855135 0 0
          -0.00018662439007719722 -0.000035201682167122084 0 0.0000957211083692017 0 0
          <InformationKey name="L2_NORM_RANGE" location="vtkDataArray" length="2">
            <Value index="0">
              0.00012153567765
            </Value>
            <Value index="1">
              0.0029224704901
            </Value>
          </InformationKey>
        </DataArray>
      </CellData>
      <Points>
        <DataArray type="Float32" Name="Points" NumberOfComponents="3" format="ascii" RangeMin="0.4000000059604645" RangeMax="1.0012492197622458">
          0.5 0 0 0.6000000238418579 0.05000000074505806 0
          0.6000000238418579 0 0 0.699999988079071 0.05000000074505806 0
          0.699999988079071 0 0 0.800000011920929 0.05000000074505806 0
          0.800000011920929 0 0 0.8999999761581421 0.05000000074505806 0
          0.8999999761581421 0 0 1 0.05000000074505806 0
          1 0 0 0.5 0.05000000074505806 0
          0.4000000059604645 0 0
          <InformationKey name="L2_NORM_RANGE" location="vtkDataArray" length="2">
            <Value index="0">
              0.40000000596
            </Value>
            <Value index="1">
              1.0012492198
            </Value>
          </InformationKey>
        </DataArray>
      </Points>
      <Cells>
        <DataArray type="Int64" Name="connectivity" format="ascii" RangeMin="0" RangeMax="12">
          0 11 12 1 11 0
          2 1 0 4 3 2
          3 1 2 6 5 4
          5 3 4 8 7 6
          7 5 6 10 9 8
          9 7 8
        </DataArray>
        <DataArray type="Int64" Name="offsets" format="ascii" RangeMin="3" RangeMax="33">
          3 6 9 12 15 18
          21 24 27 30 33
        </DataArray>
        <DataArray type="UInt8" Name="types" format="ascii" RangeMin="5" RangeMax="5">
          5 5 5 5 5 5
          5 5 5 5 5
        </DataArray>
      </Cells>
    </Piece>
  </UnstructuredGrid>
</VTKFile>
