<?xml version="1.0"?>
<VTKFile type="UnstructuredGrid" version="0.1" byte_order="LittleEndian" header_type="UInt32" compressor="vtkZLibDataCompressor">
  <UnstructuredGrid>
    <Piece NumberOfPoints="13" NumberOfCells="11">
      <PointData>
        <DataArray type="Float64" Name="Disp" NumberOfComponents="3" format="ascii" RangeMin="0" RangeMax="0.08248432820319056">
          0 0 0 0 0 0
          -0.0006037641467316497 0.0019442982833972956 0 0.0011935187054101521 0.0018429567751074196 0
          -0.0021063206355736823 0.008136237510835287 0 0.002403204554486679 0.007981916538516024 0
          -0.0033954316814614766 0.020343417218537715 0 0.0040786389627313225 0.020455051617489332 0
          -0.004482609782999939 0.03742479020176224 0 0.005017172767114514 0.037465672227837345 0
          -0.005348311666116347 0.05834814537143992 0 0.005911932032623825 0.0584061632997194 0
          -0.005985976740753257 0.08226683707054026 0
          <InformationKey name="L2_NORM_RANGE" location="vtkDataArray" length="2">
            <Value index="0">
              0
            </Value>
            <Value index="1">
              0.082484328203
            </Value>
          </InformationKey>
        </DataArray>
        <DataArray type="Float64" Name="Nodal Stress" NumberOfComponents="6" format="ascii" RangeMin="32620.21046268085" RangeMax="2326254.4296979303">
          2027815.9799388226 337426.6667377406 0 1088836.6579833059 0 0
          134154.39150558878 -148433.91324704388 0 15498.12840716451 0 0
          -164678.27027999115 -40539.2979961774 0 -35175.309723236445 0 0
          70043.0954388966 21609.855952741196 0 -34362.6880884688 0 0
          16612.005776209648 54108.62844532079 0 47036.1258331354 0 0
          93316.37086710015 20116.454620256733 0 -22912.443146857833 0 0
          -81524.18291443755 -14728.512469470888 0 20136.942761105198 0 0
          49372.80636682301 -16447.24400146808 0 -12275.711378955992 0 0
          -58235.36052661237 -12568.62007682015 0 22149.61739372061 0 0
          40749.95823811748 -11518.646027464774 0 -12107.616193308164 0 0
          -49840.65698460657 -13778.166743728152 0 17610.842833215225 0 0
          28500.61552399739 -13871.500790400054 0 -7705.485786425341 0 0
          -39295.300496580916 -13505.861008378262 0 14080.80691306223 0 0
          <InformationKey name="L2_NORM_RANGE" location="vtkDataArray" length="2">
            <Value index="0">
              32620.210463
            </Value>
            <Value index="1">
              2326254.4297
            </Value>
          </InformationKey>
        </DataArray>
        <DataArray type="Float64" Name="Nodal Strain" NumberOfComponents="6" format="ascii" RangeMin="0.0028056365890335258" RangeMax="0.1832447271235601">
          0.13279304618356805 -0.048320094516547896 0 0.11666107049821135 0 0
          0.01488366772350791 -0.015393650642845593 0 0.0016605137579104865 0 0
          -0.010314901520135889 0.002985702653129868 0 -0.003768783184632476 0 0
          0.004231297675894717 -0.0009579779833362218 0 -0.003681716580907371 0 0
          -0.0007458791747464816 0.003271616111229713 0 0.005039584910693079 0 0
          0.005947010254069414 -0.0018958379152352388 0 -0.002454904622877625 0 0
          -0.0052971376199787215 0.0018595413562677058 0 0.002157529581546985 0 0
          0.004114030597682647 -0.002938117656062828 0 -0.0013152547906024276 0 0
          -0.00371078932058588 0.0011820757276061456 0 0.002373173292184351 0 0
          0.0033220915179892757 -0.0022781160818945365 0 -0.0012972445921401604 0 0
          -0.0030679695437673214 0.000795868696326795 0 0.0018868760178444887 0 0
          0.002531168994228387 -0.0020087006108856246 0 -0.0008255877628312867 0 0
          -0.0023244549994565567 0.00043869923142229953 0 0.0015086578835423817 0 0
          <InformationKey name="L2_NORM_RANGE" location="vtkDataArray" length="2">
            <Value index="0">
              0.002805636589
            </Value>
            <Value index="1">
              0.18324472712
            </Value>
          </InformationKey>
        </DataArray>
        <DataArray type="Float64" Name="Sld_traction" NumberOfComponents="3" format="ascii" RangeMin="22440.209435663597" RangeMax="260781.7266659104">
          33322.506515833855 -116976.28220261107 0 -260760.60184399574 3319.260280652912 0
          178871.2293720778 88307.2571390923 0 19088.400913801932 -11798.133329913302 0
          46700.909666537795 29463.69462315407 0 75066.20430430323 -22764.215268014854 0
          75444.79580572665 -11880.715442603132 0 51382.12831461991 12292.522434504175 0
          52994.009279502134 -13870.870653322458 0 41764.44569041484 11888.243295299391 0
          45576.80686573578 -14094.848218814299 0 31996.153710594856 13233.237852880457 0
          34413.93960739007 -13691.373857654124 0
          <InformationKey name="L2_NORM_RANGE" location="vtkDataArray" length="2">
            <Value index="0">
              22440.209436
            </Value>
            <Value index="1">
              260781.72667
            </Value>
          </InformationKey>
        </DataArray>
        <DataArray type="Float64" Name="Velocity" NumberOfComponents="3" format="ascii" RangeMin="0" RangeMax="6.131369993391147">
          0 0 0 0 0 0
          0.1052979522839021 -0.3309237923421382 0 -0.18010785089230041 -0.3277415320492574 0
          0.26646511453245636 -1.2099186112445777 0 -0.29653625151775986 -1.2084455287760685 0
          0.31638873529859435 -2.56007256648088 0 -0.40387474982851046 -2.5838562782893355 0
          0.3017840976299624 -3.986867569748629 0 -0.36899179080077626 -3.999498368137406 0
          0.23312135733482187 -5.2263548315494575 0 -0.30601133653764423 -5.232525220475409 0
          0.14244895499335408 -6.12971502527472 0
          <InformationKey name="L2_NORM_RANGE" location="vtkDataArray" length="2">
            <Value index="0">
              0
            </Value>
            <Value index="1">
              6.1313699934
            </Value>
          </InformationKey>
        </DataArray>
        <DataArray type="Float64" Name="Acceleration" NumberOfComponents="3" format="ascii" RangeMin="0" RangeMax="311.77420534568773">
          0 0 0 0 0 0
          -4.991821401129528 15.101109049899605 0 6.505511273682259 16.004811446111944 0
          -5.299058481269185 42.18398695742326 0 5.1565359391474885 43.96344183017027 0
          5.046260831404652 49.60447542464317 0 -3.184535341561059 51.04433454487662 0
          20.56996416910897 4.470933202595916 0 -19.255461953142913 5.466925630571495 0
          39.76109819084195 -111.77354355467833 0 -38.1295014948746 -111.77048397620092 0
          58.68939621291884 -306.2004407101631 0
          <InformationKey name="L2_NORM_RANGE" location="vtkDataArray" length="2">
            <Value index="0">
              0
            </Value>
            <Value index="1">
              311.77420535
            </Value>
          </InformationKey>
        </DataArray>
        <DataArray type="Float64" Name="Sigma" NumberOfComponents="6" format="ascii" RangeMin="97197.23286205054" RangeMax="5688842.915605069">
          4945982.005063241 1046802.7018495428 0 2608524.4540584777 0 0
          -478453.95819096855 -476174.91485995724 0 -437585.80208088906 0 0
          -1131883.4161473985 -97361.10585534033 0 -424116.4741028417 0 0
          610851.8326469525 171163.90393142772 0 114036.72972807822 0 0
          73690.76016972595 130221.63980586808 0 161168.81858535667 0 0
          144949.049535145 17492.32480701679 0 -133091.52231423568 0 0
          -257857.85379853813 -47316.66299080934 0 59646.6577606416 0 0
          163939.92289664038 -44174.93586892853 0 -32067.866296954722 0 0
          -153158.8420719659 -245.65422748669403 0 52913.325206436915 0 0
          119214.19444913651 -21389.28995323092 0 -46929.78238566493 0 0
          -133538.48466263356 -16121.230803857956 0 46664.097090623545 0 0
          87683.81180469727 -28464.557609025764 0 -30799.678302874592 0 0
          -102756.24948822612 -13919.369962637 0 33891.12762548357 0 0
          <InformationKey name="L2_NORM_RANGE" location="vtkDataArray" length="2">
            <Value index="0">
              97197.232862
            </Value>
            <Value index="1">
              5688842.9156
            </Value>
          </InformationKey>
        </DataArray>
        <DataArray type="Float64" Name="Press" format="ascii" RangeMin="-45045.520627212885" RangeMax="27830.604428144692">
          -45045.520627212885 -37456.70129536393 -42814.973483035545 -25513.76783207237 -41430.96084014016 -15672.45306963739
          9112.19420519783 27830.604428144692 -7011.442251413916 11191.609371961833 128.8615851371654 14270.151603089611
          576.854003534993
        </DataArray>
        <DataArray type="Float64" Name="Dev strain" NumberOfComponents="6" format="ascii" RangeMin="0.0029243429433265748" RangeMax="0.18395716992343566">
          0.13431414186243254 -0.046798998837683375 0 0.11666107049821135 0 0
          0.016249810761931174 -0.014027507604422323 0 0.0016605137579104865 0 0
          -0.008918153720670298 0.004382450452595461 0 -0.003768783184632476 0 0
          0.0053464870509059865 0.00015721139167504877 0 -0.003681716580907371 0 0
          0.00033942137918833423 0.004356916665164529 0 0.005039584910693079 0 0
          0.006412353751365953 -0.001430494417938701 0 -0.002454904622877625 0 0
          -0.00538805150348065 0.0017686274727657784 0 0.002157529581546985 0 0
          0.0036178868870315735 -0.0034342613667139 0 -0.0013152547906024276 0 0
          -0.003845363219044405 0.00104750182914762 0 0.002373173292184351 0 0
          0.003037909223553407 -0.002562298376330405 0 -0.0012972445921401604 0 0
          -0.0032026781842823433 0.0006611600558117742 0 0.0018868760178444887 0 0
          0.002206429869266161 -0.0023334397358478506 0 -0.0008255877628312867 0 0
          -0.0024902299891554286 0.00027292424172342737 0 0.0015086578835423817 0 0
          <InformationKey name="L2_NORM_RANGE" location="vtkDataArray" length="2">
            <Value index="0">
              0.0029243429433
            </Value>
            <Value index="1">
              0.18395716992
            </Value>
          </InformationKey>
        </DataArray>
        <DataArray type="Float64" Name="J2 Stresses" format="ascii" RangeMin="4486495992.129699" RangeMax="14480366902359.719">
          14480366902359.719 275700703370.94 690288322242.7964 204469615660.36243 17687848825.110554 15086442522.12822
          35254200626.59082 14670948651.400015 12428800621.512974 7885364060.121424 9590594973.632627 4486495992.129699
          5663449967.45337
        </DataArray>
      </PointData>
      <CellData>
        <DataArray type="UInt8" Name="vtkGhostType" format="ascii" RangeMin="0" RangeMax="0">
          0 0 0 0 0 0
          0 0 0 0 0
        </DataArray>
        <DataArray type="Float64" Name="Gauss Stress" NumberOfComponents="6" format="ascii" RangeMin="37099.104681907455" RangeMax="1223776.4323645176">
          -368423.661433962 -169385.85313144716 0 -249221.84881855073 0 0
          1070109.1451064204 115983.16190954423 0 582274.0592915822 0 0
          248958.1535366578 78753.56226748755 0 47371.34199973304 0 0
          -185700.17516198938 31421.57857556914 0 -49636.97526313557 0 0
          24100.48806565081 -17576.309496338647 0 -35170.91028351627 0 0
          -29069.754599415675 17468.69397249859 0 29241.318010587536 0 0
          54002.015607501206 -11266.369500317844 0 -8694.774492060917 0 0
          -72381.80553064503 -20601.96556843198 0 26830.70555670793 0 0
          32983.38138379628 -13461.485268642009 0 -10355.12119930533 0 0
          -54391.36785992595 -11149.048759630165 0 17549.213303798515 0 0
          -44545.01838480021 -14509.76372791965 0 16585.18213774418 0 0
          <InformationKey name="L2_NORM_RANGE" location="vtkDataArray" length="2">
            <Value index="0">
              37099.104682
            </Value>
            <Value index="1">
              1223776.4324
            </Value>
          </InformationKey>
        </DataArray>
        <DataArray type="Float64" Name="Gauss Strain" NumberOfComponents="6" format="ascii" RangeMin="0.0032495824681631293" RangeMax="0.10007267107319565">
          -0.02026648106201703 0.0010589983989666976 0 -0.026702340944844725 0 0
          0.07229411172511774 -0.02993367218883327 0 0.06238650635266952 0 0
          0.014970098028779577 -0.0032661081786315247 0 0.005075500928542825 0 0
          -0.014386497460698136 0.0088765475826117 0 -0.005318247349621669 0 0
          0.0023491887724157246 -0.00211618239494029 0 -0.003768311816091029 0 0
          -0.0027002929704046394 0.002285969376586173 0 0.003132998358277235 0 0
          0.004259657168404296 -0.0027333840931477466 0 -0.0009315829812922409 0 0
          -0.004434344481887789 0.0011134955140636093 0 0.002874718452504421 0 0
          0.002836723144151235 -0.002139512568610011 0 -0.0011094772713541423 0 0
          -0.0034869173914364926 0.0011461882264523437 0 0.0018802728539784126 0 0
          -0.0026635811800600293 0.0005544818188914615 0 0.001776983800472591 0 0
          <InformationKey name="L2_NORM_RANGE" location="vtkDataArray" length="2">
            <Value index="0">
              0.0032495824682
            </Value>
            <Value index="1">
              0.10007267107
            </Value>
          </InformationKey>
        </DataArray>
      </CellData>
      <Points>
        <DataArray type="Float32" Name="Points" NumberOfComponents="3" format="ascii" RangeMin="0" RangeMax="0.6020797527609908">
          0 0.05000000074505806 0 0 0 0
          0.10000000149011612 0.05000000074505806 0 0.10000000149011612 0 0
          0.20000000298023224 0.05000000074505806 0 0.20000000298023224 0 0
          0.30000001192092896 0.05000000074505806 0 0.30000001192092896 0 0
          0.4000000059604645 0.05000000074505806 0 0.4000000059604645 0 0
          0.5 0.05000000074505806 0 0.5 0 0
          0.6000000238418579 0.05000000074505806 0
          <InformationKey name="L2_NORM_RANGE" location="vtkDataArray" length="2">
            <Value index="0">
              0
            </Value>
            <Value index="1">
              0.60207975276
            </Value>
          </InformationKey>
        </DataArray>
      </Points>
      <Cells>
        <DataArray type="Int64" Name="connectivity" format="ascii" RangeMin="0" RangeMax="12">
          3 2 1 2 0 1
          5 4 3 4 2 3
          7 6 5 6 4 5
          9 8 7 8 6 7
          11 10 9 10 8 9
          12 10 11
        </DataArray>
        <DataArray type="Int64" Name="offsets" format="ascii" RangeMin="3" RangeMax="33">
          3 6 9 12 15 18
          21 24 27 30 33
        </DataArray>
        <DataArray type="UInt8" Name="types" format="ascii" RangeMin="5" RangeMax="5">
          5 5 5 5 5 5
          5 5 5 5 5
        </DataArray>
      </Cells>
    </Piece>
  </UnstructuredGrid>
</VTKFile>
