<?xml version="1.0"?>
<VTKFile type="UnstructuredGrid" version="0.1" byte_order="LittleEndian" header_type="UInt32" compressor="vtkZLibDataCompressor">
  <UnstructuredGrid>
    <Piece NumberOfPoints="13" NumberOfCells="11">
      <PointData>
        <DataArray type="Float64" Name="Disp" NumberOfComponents="3" format="ascii" RangeMin="0.009199600900205825" RangeMax="0.02104291518378662">
          0.0008228331139235522 0.012354496232142523 0 -0.0005130113670003397 0.015029305398684195 0
          0.0006726796509252944 0.015032599611543533 0 -0.00036379235397272726 0.017095175366677224 0
          0.0005253306912613079 0.01708669113419267 0 -0.000259623798792256 0.018631176217377157 0
          0.00041858292115889176 0.018620048136781694 0 -0.00021298005063496658 0.0198617463070857 0
          0.0003773811484937287 0.019847743786897073 0 -0.00021947240521418414 0.021039434392368352 0
          0.0003827484393168695 0.021039434000567552 0 -0.0006607974944038461 0.012340363866264727 0
          0.0009073264714514212 0.009154748243249038 0
          <InformationKey name="L2_NORM_RANGE" location="vtkDataArray" length="2">
            <Value index="0">
              0.0091996009002
            </Value>
            <Value index="1">
              0.021042915184
            </Value>
          </InformationKey>
        </DataArray>
        <DataArray type="Float64" Name="Nodal Stress" NumberOfComponents="6" format="ascii" RangeMin="1331.6749251438414" RangeMax="7363.768864976526">
          -5680.951110509665 -3855.87270107685 0 2661.603293108686 0 0
          3643.8791600864765 -1792.837712490256 0 -1628.9963989350094 0 0
          -5445.417970093229 -561.044839087395 0 2297.4016881291836 0 0
          5947.8314629835495 1014.4182942856121 0 -2516.654630521293 0 0
          -3868.189599019649 1778.1796963415634 0 1459.418157030608 0 0
          5937.759866704001 2687.270159847695 0 -2466.58447304224 0 0
          -1696.9014938512807 3020.9781610905598 0 473.81864821756824 0 0
          4678.956322563958 3261.1585403896615 0 -1631.5746517134746 0 0
          -234.56259850140867 2805.2086767322157 0 -203.83160810557317 0 0
          2802.8219991007395 2001.949087678087 0 -637.3039037452494 0 0
          -510.3388249558121 1197.776748298629 0 -279.7199514420438 0 0
          -683.6743977613087 -4917.344940078921 0 184.25602319927458 0 0
          -3020.386567804829 -5937.989418769062 0 1861.9221762916802 0 0
          <InformationKey name="L2_NORM_RANGE" location="vtkDataArray" length="2">
            <Value index="0">
              1331.6749251
            </Value>
            <Value index="1">
              7363.768865
            </Value>
          </InformationKey>
        </DataArray>
        <DataArray type="Float64" Name="Nodal Strain" NumberOfComponents="6" format="ascii" RangeMin="0.00013396399228036648" RangeMax="0.0004932735822482154">
          -0.0002680724828550887 -0.00007252836755871553 0 0.00028517178140450206 0 0
          0.0003243070011665433 -0.00025819837803810674 0 -0.00017453532845732245 0 0
          -0.00036892111075353793 0.0001544045818542299 0 0.000246150180870984 0 0
          0.0003886158797029103 -0.00013996410265758305 0 -0.0002696415675558529 0 0
          -0.0003398056747993165 0.0002651624639893849 0 0.00015636623111042226 0 0
          0.0003281517704842967 -0.000020114983821736054 0 -0.00026427690782595425 0 0
          -0.00022909932674261148 0.00027638777914401434 0 0.0000507662837375966 0 0
          0.00021774121802636625 0.00006583431279340593 0 -0.00017481156982644374 0 0
          -0.00011694049549053688 0.00020874928399878 0 -0.000021839100868454267 0 0
          0.0001287033896615497 0.000042895577723408394 0 -0.00006828256111556244 0 0
          -0.00007923051422179476 0.00010378186862689536 0 -0.000029969994797361834 0 0
          0.00012678557659129655 -0.0003268219815141619 0 0.000019741716771350853 0 0
          -0.0000036708470300213374 -0.00031627115249047486 0 0.00019949166174553716 0 0
          <InformationKey name="L2_NORM_RANGE" location="vtkDataArray" length="2">
            <Value index="0">
              0.00013396399228
            </Value>
            <Value index="1">
              0.00049327358225
            </Value>
          </InformationKey>
        </DataArray>
        <DataArray type="Float64" Name="Sld_traction" NumberOfComponents="3" format="ascii" RangeMin="994.673502525075" RangeMax="7100.662823323539">
          -5838.410076973504 4041.3339757589015 0 -5707.99884322355 -1463.072324331198 0
          -6745.983621362377 943.7488161631968 0 -6869.807365892156 1231.1095835919643 0
          -5462.5570183957125 -1524.007632046821 0 -5814.637029064529 2820.1084400119385 0
          -3065.348987115084 -2842.571191413305 0 -3327.3168195497183 3164.3970775482626 0
          -730.9790397328952 -2786.1562192249894 0 36.338931321621814 1245.5824456456062 0
          338.43062940433583 -935.3288650022972 0 -1747.7553775624128 -4631.065045269246 0
          -2746.538432079741 6465.0227144102155 0
          <InformationKey name="L2_NORM_RANGE" location="vtkDataArray" length="2">
            <Value index="0">
              994.67350253
            </Value>
            <Value index="1">
              7100.6628233
            </Value>
          </InformationKey>
        </DataArray>
        <DataArray type="Float64" Name="Velocity" NumberOfComponents="3" format="ascii" RangeMin="4.249682188485017" RangeMax="17.193630858157174">
          -0.5604555283991661 -6.252300586787271 0 0.5132783858282032 -8.404916426056046 0
          -0.5791598417378271 -8.409329643424922 0 0.5180166993425198 -10.60713258450986 0
          -0.5834971623993639 -10.609057311316686 0 0.5162849802236424 -12.809081734592148 0
          -0.5813372110323324 -12.809705945464735 0 0.5140025309866486 -14.9992828076834 0
          -0.5788946665310486 -14.99894552321475 0 0.5139654585149428 -17.183939454487167 0
          -0.5784420213568935 -17.18389789641754 0 0.4928706526895196 -6.245775239290225 0
          -0.5110190827848278 -4.218845600416843 0
          <InformationKey name="L2_NORM_RANGE" location="vtkDataArray" length="2">
            <Value index="0">
              4.2496821885
            </Value>
            <Value index="1">
              17.193630858
            </Value>
          </InformationKey>
        </DataArray>
        <DataArray type="Float64" Name="Acceleration" NumberOfComponents="3" format="ascii" RangeMin="133.40899917581297" RangeMax="992.2110853280909">
          -5.307703737441443 -927.015701702232 0 -60.8892435324874 -814.6879033675796 0
          43.055651462833794 -813.858942672945 0 -103.5241302327886 -516.514034584914 0
          85.0219095729226 -513.441269965806 0 -131.3117487703471 -73.64617554844153 0
          113.34610484582572 -70.36065361671353 0 -143.16353754820102 448.08178970166773 0
          123.64774551512619 451.7759873393952 0 -141.37489006273927 982.0875614260149 0
          122.00358523273144 982.0713554568356 0 -12.504875849303971 -925.7101909218 0
          -47.76887041915916 -849.1928782335563 0
          <InformationKey name="L2_NORM_RANGE" location="vtkDataArray" length="2">
            <Value index="0">
              133.40899918
            </Value>
            <Value index="1">
              992.21108533
            </Value>
          </InformationKey>
        </DataArray>
        <DataArray type="Float64" Name="Sigma" NumberOfComponents="6" format="ascii" RangeMin="1428.2763527924246" RangeMax="18154.724719853046">
          -15232.500394919842 -5852.580643647989 0 6595.3431938763815 0 0
          11907.54231286855 -3097.9778041839704 0 -6299.607905233429 0 0
          -15978.567690677068 -109.52392355832052 0 7054.282847417641 0 0
          16649.70778753476 650.2976165150408 0 -7208.215677496236 0 0
          -12662.833382690564 3365.3224115395856 0 5663.42714462731 0 0
          15161.583723022686 3168.207719120486 0 -6086.373580134565 0 0
          -6865.522375694055 4838.502985984695 0 3067.3506844474014 0 0
          10743.886580065264 4233.313980404718 0 -3334.112176352679 0 0
          -2756.5864831754184 4613.5586189495025 0 459.26404027358365 0 0
          6658.832988179288 2553.730276345879 0 -541.0786317530298 0 0
          -591.616170746078 1192.093780617048 0 -518.5326071443645 0 0
          1243.8559374630604 -8462.142696904086 0 -1841.3457609113493 0 0
          -7058.156234625999 -7882.740093342736 0 1594.8048389178537 0 0
          <InformationKey name="L2_NORM_RANGE" location="vtkDataArray" length="2">
            <Value index="0">
              1428.2763528
            </Value>
            <Value index="1">
              18154.72472
            </Value>
          </InformationKey>
        </DataArray>
        <DataArray type="Float64" Name="Press" format="ascii" RangeMin="-1866.327355304783" RangeMax="3077.7553209997054">
          1425.7292012732994 1897.9823432786498 -631.4384751096114 755.6376570234335 -1637.1142714723494 -205.2958508172796
          -1866.327355304783 -570.2460870843897 -1175.0421332565616 -1182.5312526408215 -1201.398038718789 3077.7553209997054
          2083.104406956015
        </DataArray>
        <DataArray type="Float64" Name="Dev strain" NumberOfComponents="6" format="ascii" RangeMin="0.0001537739872198036" RangeMax="0.0004907840133351967">
          -0.0003274698532956926 -0.00013192573799931945 0 0.00028517178140450206 0 0
          0.0002742776306605241 -0.00030822774854412583 0 -0.00017453532845732245 0 0
          -0.00037281165860992915 0.00015051403399783873 0 0.000246150180870984 0 0
          0.0003835878828533924 -0.00014499209950710106 0 -0.0002696415675558529 0 0
          -0.00030641350858849446 0.0002985546302002069 0 0.00015636623111042226 0 0
          0.00035211982640250775 0.0000038530720964749585 0 -0.00026427690782595425 0 0
          -0.0001827862183724896 0.0003227008875141362 0 0.0000507662837375966 0 0
          0.00025015801148793506 0.00009825110625497478 0 -0.00017481156982644374 0 0
          -0.00007639426670180662 0.0002492955127875103 0 -0.000021839100868454267 0 0
          0.00016822059235297644 0.00008241278041483516 0 -0.00006828256111556244 0 0
          -0.00003672721544201832 0.00014628516740667182 0 -0.000029969994797361834 0 0
          0.00003914613211806013 -0.0004144614259873983 0 0.000019741716771350853 0 0
          -0.00010246986736868168 -0.0004150701728291352 0 0.00019949166174553716 0 0
          <InformationKey name="L2_NORM_RANGE" location="vtkDataArray" length="2">
            <Value index="0">
              0.00015377398722
            </Value>
            <Value index="1">
              0.00049078401334
            </Value>
          </InformationKey>
        </DataArray>
        <DataArray type="Float64" Name="J2 Stresses" format="ascii" RangeMin="952767.6538050325" RangeMax="151807421.51349598">
          144015522.19707102 85614780.14390562 140104037.090533 151807421.51349598 93854973.86132194 129216566.41010052
          37625414.37361426 69455099.05212404 14494576.949526437 25503989.06583008 952767.6538050325 37425156.86077118
          56613431.024350405
        </DataArray>
      </PointData>
      <CellData>
        <DataArray type="UInt8" Name="vtkGhostType" format="ascii" RangeMin="0" RangeMax="1">
          1 1 0 0 0 0
          0 0 0 0 0
        </DataArray>
        <DataArray type="Float64" Name="Gauss Stress" NumberOfComponents="6" format="ascii" RangeMin="1614.7252341988758" RangeMax="7401.984848782596">
          -4820.07058761792 -5203.6248348885965 0 2116.2674239609623 0 0
          1440.1215736544782 -3670.4114263947968 0 -515.2034907561333 0 0
          -5537.084234428675 -2122.603100649314 0 2450.006045353531 0 0
          -4501.536125130468 797.7270049792596 0 1836.4981048495717 0 0
          4866.954644972906 -178.3408620115926 0 -2151.1802451040085 0 0
          -2691.836504318783 2554.431879683452 0 881.4680829800488 0 0
          6020.561887533563 2032.3517606363062 0 -2543.7207043344974 0 0
          -829.9459514833147 3357.92000323106 0 64.16751612276892 0 0
          5466.026211395818 3199.3851307678156 0 -2117.7116906799474 0 0
          -82.78036345279361 1600.1370837654185 0 -200.11573287460362 0 0
          3906.1045373624547 2824.261134239441 0 -1138.6422559440414 0 0
          <InformationKey name="L2_NORM_RANGE" location="vtkDataArray" length="2">
            <Value index="0">
              1614.7252342
            </Value>
            <Value index="1">
              7401.9848488
            </Value>
          </InformationKey>
        </DataArray>
        <DataArray type="Float64" Name="Gauss Strain" NumberOfComponents="6" format="ascii" RangeMin="0.0001348494652537769" RangeMax="0.000461788984648692">
          -0.00015844701215525885 -0.00019954211007711692 0 0.00022674293828153175 0 0
          0.00023395194906084818 -0.00031360515808728827 0 -0.000055200374009585767 0 0
          -0.00031969876315028704 0.00004613850118321596 0 0.0002625006477164498 0 0
          -0.00035002854483000707 0.00021774964768174953 0 0.00019676765409102557 0 0
          0.0003540089339984788 -0.0001865584417498604 0 -0.00023048359768971523 0 0
          -0.00028350374601146495 0.00027859643798877447 0 0.00009444300889071956 0 0
          0.0003574561433725294 -0.00006985208450931973 0 -0.00027254150403583895 0 0
          -0.00017920756807848895 0.0002694923556409084 0 0.000006875091013153778 0 0
          0.0002761666890008506 0.00003331228750499344 0 -0.00022689768114428008 0 0
          -0.00006306063609539308 0.0001172519475351297 0 -0.000021440971379421813 0 0
          0.00017814099787448104 0.00006222920468272963 0 -0.00012199738456543304 0 0
          <InformationKey name="L2_NORM_RANGE" location="vtkDataArray" length="2">
            <Value index="0">
              0.00013484946525
            </Value>
            <Value index="1">
              0.00046178898465
            </Value>
          </InformationKey>
        </DataArray>
      </CellData>
      <Points>
        <DataArray type="Float32" Name="Points" NumberOfComponents="3" format="ascii" RangeMin="0.4000000059604645" RangeMax="1.0012492197622458">
          0.5 0 0 0.6000000238418579 0.05000000074505806 0
          0.6000000238418579 0 0 0.699999988079071 0.05000000074505806 0
          0.699999988079071 0 0 0.800000011920929 0.05000000074505806 0
          0.800000011920929 0 0 0.8999999761581421 0.05000000074505806 0
          0.8999999761581421 0 0 1 0.05000000074505806 0
          1 0 0 0.5 0.05000000074505806 0
          0.4000000059604645 0 0
          <InformationKey name="L2_NORM_RANGE" location="vtkDataArray" length="2">
            <Value index="0">
              0.40000000596
            </Value>
            <Value index="1">
              1.0012492198
            </Value>
          </InformationKey>
        </DataArray>
      </Points>
      <Cells>
        <DataArray type="Int64" Name="connectivity" format="ascii" RangeMin="0" RangeMax="12">
          0 11 12 1 11 0
          2 1 0 4 3 2
          3 1 2 6 5 4
          5 3 4 8 7 6
          7 5 6 10 9 8
          9 7 8
        </DataArray>
        <DataArray type="Int64" Name="offsets" format="ascii" RangeMin="3" RangeMax="33">
          3 6 9 12 15 18
          21 24 27 30 33
        </DataArray>
        <DataArray type="UInt8" Name="types" format="ascii" RangeMin="5" RangeMax="5">
          5 5 5 5 5 5
          5 5 5 5 5
        </DataArray>
      </Cells>
    </Piece>
  </UnstructuredGrid>
</VTKFile>
