<?xml version="1.0"?>
<VTKFile type="UnstructuredGrid" version="0.1" byte_order="LittleEndian" header_type="UInt32" compressor="vtkZLibDataCompressor">
  <UnstructuredGrid>
    <Piece NumberOfPoints="13" NumberOfCells="11">
      <PointData>
        <DataArray type="Float64" Name="Disp" NumberOfComponents="3" format="ascii" RangeMin="0" RangeMax="0.08481464181097789">
          0 0 0 0 0 0
          0.0009482405312758697 -0.0030124813395112303 0 -0.0017202309096557207 -0.0029333248313540643 0
          0.0027456468091669305 -0.01162067375533479 0 -0.003094030127294741 -0.011516530845010359 0
          0.0038062864060032604 -0.026469606880966702 0 -0.0047078007886137505 -0.026662106274365348 0
          0.004417715386278615 -0.04475867919308124 0 -0.00511657210345038 -0.04484389739055691 0
          0.004639256457928036 -0.06455402458930831 0 -0.005384959727429798 -0.06461536550464243 0
          0.0046359443878347265 -0.08468784732863023 0
          <InformationKey name="L2_NORM_RANGE" location="vtkDataArray" length="2">
            <Value index="0">
              0
            </Value>
            <Value index="1">
              0.084814641811
            </Value>
          </InformationKey>
        </DataArray>
        <DataArray type="Float64" Name="Nodal Stress" NumberOfComponents="6" format="ascii" RangeMin="16364.85697382879" RangeMax="3159727.0194978444">
          -2736758.1598506994 -525961.7391182884 0 -1489091.6228422653 0 0
          -172482.4735689862 150706.41522969466 0 -40246.07488978797 0 0
          217663.23059804528 54423.503366143756 0 37679.032503334456 0 0
          -74758.94826045632 -5669.669376701732 0 41489.936233504035 0 0
          -26463.264979347692 -51231.83295133274 0 -65197.11269108044 0 0
          -93886.37737429506 -8935.382552275776 0 19441.850946761508 0 0
          92689.17510882243 36378.76505669299 0 -22447.355041167582 0 0
          -27934.327817908677 36521.41825398484 0 2458.061390067338 0 0
          48137.65541336423 25363.863600780427 0 -19639.094404813157 0 0
          -14963.616482870822 20650.913290606306 0 1831.7456522261505 0 0
          28541.62190357725 18848.179761916974 0 -9627.50760837191 0 0
          -2329.809526770289 16055.05827251255 0 -2148.402943832822 0 0
          12321.371411029968 10620.86280242526 0 -3484.79257919524 0 0
          <InformationKey name="L2_NORM_RANGE" location="vtkDataArray" length="2">
            <Value index="0">
              16364.856974
            </Value>
            <Value index="1">
              3159727.0195
            </Value>
          </InformationKey>
        </DataArray>
        <DataArray type="Float64" Name="Nodal Strain" NumberOfComponents="6" format="ascii" RangeMin="0.0007012014580932534" RangeMax="0.24555619131026463">
          -0.17669837787796822 0.06017266720050438 0 -0.1595455310188141 0 0
          -0.017702548655988113 0.0169248322867277 0 -0.004312079452477277 0 0
          0.013603677065355237 -0.0038862937094913453 0 0.004037039196785841 0 0
          -0.005137436683721823 0.0022649860538233183 0 0.004445350310732575 0 0
          -0.00006052489312009503 -0.0027143000329756368 0 -0.00698540493118719 0 0
          -0.006387049007011228 0.002714843295347982 0 0.0020830554585815893 0 0
          0.005321413755748281 -0.0007118444641227298 0 -0.0024050737544108127 0 0
          -0.003299645496064365 0.003606327297352798 0 0.0002633637203643577 0 0
          0.002532551686641001 0.00009250256386416553 0 -0.002104188686229981 0 0
          -0.0018063623662981413 0.002009480109431551 0 0.00019625846273851614 0 0
          0.0013655380016156257 0.0003269549150091683 0 -0.001031518672325562 0 0
          -0.0007398099045018978 0.0012299973597069786 0 -0.00023018602969637379 0 0
          0.0005007814292726671 0.00031858407835073406 0 -0.0003733706334852042 0 0
          <InformationKey name="L2_NORM_RANGE" location="vtkDataArray" length="2">
            <Value index="0">
              0.00070120145809
            </Value>
            <Value index="1">
              0.24555619131
            </Value>
          </InformationKey>
        </DataArray>
        <DataArray type="Float64" Name="Sld_traction" NumberOfComponents="3" format="ascii" RangeMin="11036.959065553785" RangeMax="362919.09472363663">
          -58380.13383473191 125383.19394805224 0 360807.7655439784 39089.96851092917 0
          -249006.59944815436 -112481.3905231484 0 -17214.922687041435 36.77349547130689 0
          -58924.19161639957 -21141.59642017093 0 -78279.7940234853 10508.0593728704 0
          -79551.23087881114 32170.50801586888 0 -33487.960983703124 -31247.74387765782 0
          -36555.187646238184 25933.361067822065 0 -15216.961442908614 -22416.2654480814 0
          -19789.96863456748 18266.105369183566 0 -3173.865030734773 -16215.989937687744 0
          -4754.488328635744 9960.38684728542 0
          <InformationKey name="L2_NORM_RANGE" location="vtkDataArray" length="2">
            <Value index="0">
              11036.959066
            </Value>
            <Value index="1">
              362919.09472
            </Value>
          </InformationKey>
        </DataArray>
        <DataArray type="Float64" Name="Velocity" NumberOfComponents="3" format="ascii" RangeMin="0" RangeMax="4.648779464362086">
          0 0 0 0 0 0
          0.030862157276380586 -0.10521924821437101 0 -0.06516586433861782 -0.10111963131534107 0
          0.10562264664266996 -0.4299554488467612 0 -0.12821350514516117 -0.4219722306728313 0
          0.17199040380847475 -1.062102561730626 0 -0.21891463968004676 -1.06611312759199 0
          0.24051084233270714 -1.9730110202178501 0 -0.2820764272922993 -1.973028887430793 0
          0.3107740764171085 -3.1640107227293086 0 -0.35581508150786645 -3.1660377626154528 0
          0.37563794332805056 -4.633578168522348 0
          <InformationKey name="L2_NORM_RANGE" location="vtkDataArray" length="2">
            <Value index="0">
              0
            </Value>
            <Value index="1">
              4.6487794644
            </Value>
          </InformationKey>
        </DataArray>
        <DataArray type="Float64" Name="Acceleration" NumberOfComponents="3" format="ascii" RangeMin="0" RangeMax="2508.640429845688">
          0 0 0 0 0 0
          -119.93616092688774 374.96757645861567 0 181.28535875087664 382.110203023929 0
          -213.3388734818193 1195.2715465660476 0 229.37925408463525 1209.0740809740091 0
          -135.8900793962739 2061.9526052247675 0 208.89129067466956 2079.7473278960897 0
          -17.007145390242385 2505.8913110684152 0 68.32784215812899 2507.709734447424 0
          99.12267205729358 2435.613330848704 0 -46.97105710334472 2426.694053893989 0
          172.4358080302536 1965.9184439140736 0
          <InformationKey name="L2_NORM_RANGE" location="vtkDataArray" length="2">
            <Value index="0">
              0
            </Value>
            <Value index="1">
              2508.6404298
            </Value>
          </InformationKey>
        </DataArray>
        <DataArray type="Float64" Name="Sigma" NumberOfComponents="6" format="ascii" RangeMin="30295.35575038343" RangeMax="7700924.818492362">
          -6668148.034391977 -1516837.549314187 0 -3541080.160134273 0 0
          668529.328387904 547182.1831554767 0 560111.8693760069 0 0
          1509784.7688460164 171696.62685250852 0 565681.9595234774 0 0
          -772559.2183406206 -176793.72811223805 0 -152699.8355350129 0 0
          -120700.84964447486 -151195.899535947 0 -215687.27464856475 0 0
          -117306.7711994237 -4314.8369622765085 0 153977.00888629365 0 0
          288885.0589559815 95205.83570344195 0 -56478.01062761562 0 0
          -116065.23890480267 77978.14959618634 0 6470.564130749958 0 0
          114537.27128376241 17312.094588646152 0 -35708.06811383973 0 0
          -47581.62514714516 30443.86236780749 0 21068.500492925377 0 0
          69069.35416375964 28676.383804107867 0 -20020.842794454577 0 0
          -11810.867302677367 28603.470497879258 0 557.2025550001974 0 0
          27012.83105250809 13394.873574593135 0 -2948.3725157468753 0 0
          <InformationKey name="L2_NORM_RANGE" location="vtkDataArray" length="2">
            <Value index="0">
              30295.35575
            </Value>
            <Value index="1">
              7700924.8185
            </Value>
          </InformationKey>
        </DataArray>
        <DataArray type="Float64" Name="Press" format="ascii" RangeMin="-39068.95744181472" RangeMax="57230.2551835479">
          57230.2551835479 45770.71305140513 50718.10872873419 25411.2880904218 46255.90820272395 16671.05986983206
          -24710.184472817844 -39068.95744181472 -1331.6600827063103 -10950.390626902637 -7493.606651558926 -10988.956927381898
          -4509.784475627362
        </DataArray>
        <DataArray type="Float64" Name="Dev strain" NumberOfComponents="6" format="ascii" RangeMin="0.0009482895856644145" RangeMax="0.24646274537271204">
          -0.17858185405785432 0.05828919102061833 0 -0.1595455310188141 0 0
          -0.019341658535171405 0.015285722407544399 0 -0.004312079452477277 0 0
          0.011966299630705453 -0.005523671144141142 0 0.004037039196785841 0 0
          -0.006354274586479809 0.0010481481510653285 0 0.004445350310732575 0 0
          -0.0012144179567890447 -0.0038681930966445884 0 -0.00698540493118719 0 0
          -0.0067723470347713826 0.0023295452675878283 0 0.0020830554585815893 0 0
          0.0057622847493817774 -0.0002709734704892337 0 -0.0024050737544108127 0 0
          -0.00246400036356732 0.004441972429849845 0 0.0002633637203643577 0 0
          0.002949910162111386 0.0005098610393345506 0 -0.002104188686229981 0 0
          -0.0014093064389197397 0.0024065360368099526 0 0.00019625846273851614 0 0
          0.001647329012259246 0.0006087459256527883 0 -0.001031518672325562 0 0
          -0.0004272764517164021 0.0015425308124924735 0 -0.00023018602969637379 0 0
          0.0007007090309295063 0.0005185116800075734 0 -0.0003733706334852042 0 0
          <InformationKey name="L2_NORM_RANGE" location="vtkDataArray" length="2">
            <Value index="0">
              0.00094828958566
            </Value>
            <Value index="1">
              0.24646274537
            </Value>
          </InformationKey>
        </DataArray>
        <DataArray type="Float64" Name="J2 Stresses" format="ascii" RangeMin="456731064.8982422" RangeMax="26517309354911.668">
          26517309354911.668 451601228792.7589 1234463909788.5547 319881194014.55237 30344697682.022507 12816978010.014925
          47056805641.109116 9786332798.279604 7028014098.193863 1706390332.0118203 2896663872.8897457 478905174.154076
          456731064.8982422
        </DataArray>
      </PointData>
      <CellData>
        <DataArray type="UInt8" Name="vtkGhostType" format="ascii" RangeMin="0" RangeMax="0">
          0 0 0 0 0 0
          0 0 0 0 0
        </DataArray>
        <DataArray type="Float64" Name="Gauss Stress" NumberOfComponents="6" format="ascii" RangeMin="20522.864635465347" RangeMax="1668350.6454374238">
          509218.32958795346 221328.397255436 0 324364.6644548237 0 0
          -1445371.6200647892 -214746.55411417145 0 -805095.4437449293 0 0
          -307409.5276738471 -81322.06948249457 0 -71470.0337657613 0 0
          246303.3352942669 -11302.565257932212 0 65764.94977996653 0 0
          2801.655602318184 40587.02209751709 0 34656.52079647599 0 0
          29698.0739039404 -7362.705731681125 0 -39396.09212996223 0 0
          -33486.866973203025 24794.366133738775 0 -2723.0011633881254 0 0
          74082.09644586747 41795.09263031186 0 -28571.838203568463 0 0
          -6585.364163968785 19430.25415465039 0 534.9534178236663 0 0
          38749.780979736344 18885.561133131214 0 -11553.470138456309 0 0
          20426.323286340725 15894.126607337359 0 -7470.6709184004185 0 0
          <InformationKey name="L2_NORM_RANGE" location="vtkDataArray" length="2">
            <Value index="0">
              20522.864635
            </Value>
            <Value index="1">
              1668350.6454
            </Value>
          </InformationKey>
        </DataArray>
        <DataArray type="Float64" Name="Gauss Strain" NumberOfComponents="6" format="ascii" RangeMin="0.0012648704692375333" RangeMax="0.13375739287324476">
          0.028468152211445392 -0.0023771976813243313 0 0.034753356905873965 0 0
          -0.09557131021483599 0.03628137542273023 0 -0.08626022611552812 0 0
          -0.019053463780899994 0.005170192453887783 0 -0.00765750361776014 0 0
          0.01799675842308807 -0.009603873778933259 0 0.0070462446192821266 0 0
          -0.0012494182461743114 0.002799013878311286 0 0.003713198656765284 0 0
          0.002384244769270068 -0.0015865530488322374 0 -0.004221009871067383 0 0
          -0.0032774321457194576 0.0029669856871671627 0 -0.00029175012464872777 0 0
          0.003798896437907969 0.00033957460052700924 0 -0.003061268378953763 0 0
          -0.00116432080294957 0.0016230668740453414 0 0.00005731643762396416 0 0
          0.0020933571723693385 -0.000034952096909782486 0 -0.0012378718005488904 0 0
          0.0008913757130480035 0.00040578321172621425 0 -0.0008004290269714732 0 0
          <InformationKey name="L2_NORM_RANGE" location="vtkDataArray" length="2">
            <Value index="0">
              0.0012648704692
            </Value>
            <Value index="1">
              0.13375739287
            </Value>
          </InformationKey>
        </DataArray>
      </CellData>
      <Points>
        <DataArray type="Float32" Name="Points" NumberOfComponents="3" format="ascii" RangeMin="0" RangeMax="0.6020797527609908">
          0 0.05000000074505806 0 0 0 0
          0.10000000149011612 0.05000000074505806 0 0.10000000149011612 0 0
          0.20000000298023224 0.05000000074505806 0 0.20000000298023224 0 0
          0.30000001192092896 0.05000000074505806 0 0.30000001192092896 0 0
          0.4000000059604645 0.05000000074505806 0 0.4000000059604645 0 0
          0.5 0.05000000074505806 0 0.5 0 0
          0.6000000238418579 0.05000000074505806 0
          <InformationKey name="L2_NORM_RANGE" location="vtkDataArray" length="2">
            <Value index="0">
              0
            </Value>
            <Value index="1">
              0.60207975276
            </Value>
          </InformationKey>
        </DataArray>
      </Points>
      <Cells>
        <DataArray type="Int64" Name="connectivity" format="ascii" RangeMin="0" RangeMax="12">
          3 2 1 2 0 1
          5 4 3 4 2 3
          7 6 5 6 4 5
          9 8 7 8 6 7
          11 10 9 10 8 9
          12 10 11
        </DataArray>
        <DataArray type="Int64" Name="offsets" format="ascii" RangeMin="3" RangeMax="33">
          3 6 9 12 15 18
          21 24 27 30 33
        </DataArray>
        <DataArray type="UInt8" Name="types" format="ascii" RangeMin="5" RangeMax="5">
          5 5 5 5 5 5
          5 5 5 5 5
        </DataArray>
      </Cells>
    </Piece>
  </UnstructuredGrid>
</VTKFile>
