<?xml version="1.0"?>
<VTKFile type="UnstructuredGrid" version="0.1" byte_order="LittleEndian" header_type="UInt32" compressor="vtkZLibDataCompressor">
  <UnstructuredGrid>
    <Piece NumberOfPoints="13" NumberOfCells="11">
      <PointData>
        <DataArray type="Float64" Name="Disp" NumberOfComponents="3" format="ascii" RangeMin="0" RangeMax="0.0006363022387194122">
          0 0 0 0 0 0
          -0.000005462230789082952 0.000012934678537242537 0 0.000008165667945500844 0.000010537289501548615 0
          -0.000025713859832014527 0.00006973701819824873 0 0.000021971445901127244 0.00006736452594686925 0
          -0.00004885931741668782 0.00021211095416717095 0 0.00004322949076648568 0.00021571851214922686 0
          -0.00006221266613436016 0.0004262232001850373 0 0.00004693327036756515 0.00043485449211680014 0
          -0.000035810837586889275 0.0006203754414283305 0 0.0000179445908757515 0.0006360491574223157 0
          0.000057098228860501345 0.0005826129006344942 0
          <InformationKey name="L2_NORM_RANGE" location="vtkDataArray" length="2">
            <Value index="0">
              0
            </Value>
            <Value index="1">
              0.00063630223872
            </Value>
          </InformationKey>
        </DataArray>
        <DataArray type="Float64" Name="Nodal Stress" NumberOfComponents="6" format="ascii" RangeMin="618.4455265107835" RangeMax="20662.722154317064">
          18194.106870696738 1645.6140501501122 0 9654.766512045719 0 0
          970.7511518361262 -2403.6659761976844 0 -119.78935051731108 0 0
          -1828.6293209064038 -481.5875467993414 0 -449.93049890702326 0 0
          484.38685338382015 488.5037769349479 0 -373.4288650966999 0 0
          -78.8046592684465 677.5088238910218 0 462.80381754944295 0 0
          519.6110673473368 185.05142943504939 0 -279.7055173131318 0 0
          -955.4822405019056 -451.27960946848685 0 417.7986387382766 0 0
          -828.1509243291781 -815.919567779889 0 48.27158399690991 0 0
          -436.0416794406959 -1539.5740777229016 0 633.5369878979109 0 0
          -2980.7424481012135 -2117.2280903090355 0 696.5019338929376 0 0
          612.9623943414538 -3154.4524415594033 0 594.305511751573 0 0
          -6482.817812154067 -3926.662000291673 0 1889.9220899255276 0 0
          2580.8075992743807 -5021.430794512592 0 7.207656371146244 0 0
          <InformationKey name="L2_NORM_RANGE" location="vtkDataArray" length="2">
            <Value index="0">
              618.44552651
            </Value>
            <Value index="1">
              20662.722154
            </Value>
          </InformationKey>
        </DataArray>
        <DataArray type="Float64" Name="Nodal Strain" NumberOfComponents="6" format="ascii" RangeMin="0.000041850201022358645" RangeMax="0.001700868129392879">
          0.0012408071318301204 -0.0005322456703713041 0 0.0010344392691477556 0 0
          0.00015518458142392636 -0.0002063601108654106 0 -0.000012834573269711898 0 0
          -0.00011341682482190957 0.000030909079546704325 0 -0.00004820683916860964 0 0
          0.00001715249749402473 0.000017593596445931276 0 -0.00004001023554607499 0 0
          -0.0000298256479438541 0.00005120793953751752 0 0.000049586123308868876 0 0
          0.00003050609661641515 -0.000005339578874187067 0 -0.000029968448283549833 0 0
          -0.000052131602554833014 0.0000018901079130332707 0 0.000044764139864815354 0 0
          -0.00003001365288851669 -0.000028703150401092862 0 0.000005171955428240351 0 0
          0.000023838954244339638 -0.00009439665985732527 0 0.0000678789629890619 0 0
          -0.00013729488592476401 -0.00004477549044703065 0 0.00007462520720281473 0 0
          0.00015644204393722538 -0.00024720954562358074 0 0.0000636755905448114 0 0
          -0.0003228204865720166 -0.00004894664958675999 0 0.00020249165249202082 0 0
          0.0003636802140379055 -0.00045084532815355604 0 7.722488969085252e-7 0 0
          <InformationKey name="L2_NORM_RANGE" location="vtkDataArray" length="2">
            <Value index="0">
              4.1850201022e-05
            </Value>
            <Value index="1">
              0.0017008681294
            </Value>
          </InformationKey>
        </DataArray>
        <DataArray type="Float64" Name="Sld_traction" NumberOfComponents="3" format="ascii" RangeMin="385.11889052387664" RangeMax="5726.072537173587">
          224.84914200226888 -1777.6597807783417 0 -2127.4407333417516 894.9935746833388 0
          1537.9233570562099 834.5934028787079 0 298.05335358763193 -243.88677342879362 0
          567.7754080992041 370.6284273873793 0 924.8073742711416 -263.51495787589204 0
          1139.3124701241618 -518.8311512198353 0 455.236857936885 702.991219228721 0
          891.5089563727989 -1713.0563807743636 0 -814.3511740334208 1973.5024425022532 0
          -114.090636391041 -3377.899964511026 0 -3462.695992761219 3697.069293802391 0
          -2725.126089065134 -5036.029636496407 0
          <InformationKey name="L2_NORM_RANGE" location="vtkDataArray" length="2">
            <Value index="0">
              385.11889052
            </Value>
            <Value index="1">
              5726.0725372
            </Value>
          </InformationKey>
        </DataArray>
        <DataArray type="Float64" Name="Velocity" NumberOfComponents="3" format="ascii" RangeMin="0" RangeMax="0.6761130504378273">
          0 0 0 0 0 0
          -0.0072423378910245985 0.01962315076285904 0 0.012703221281751218 0.017767683946609412 0
          -0.03052869767370266 0.09657645386627482 0 0.030227958344104574 0.09518672290753362 0
          -0.05272037949906615 0.2693034402830955 0 0.05309302120726658 0.27514678017431315 0
          -0.05569798940603473 0.49972505719026744 0 0.05105660028859256 0.5104479338192468 0
          -0.010990084891078222 0.659383818370844 0 0.005064293052680028 0.6760940836216662 0
          0.11363292701688898 0.4969208368965932 0
          <InformationKey name="L2_NORM_RANGE" location="vtkDataArray" length="2">
            <Value index="0">
              0
            </Value>
            <Value index="1">
              0.67611305044
            </Value>
          </InformationKey>
        </DataArray>
        <DataArray type="Float64" Name="Acceleration" NumberOfComponents="3" format="ascii" RangeMin="0" RangeMax="577.4534214563781">
          0 0 0 0 0 0
          -8.546940846666331 26.42218946697315 0 17.46813429975157 25.978953238813464 0
          -31.322489478231226 119.40135281875176 0 37.11986553328875 120.07888686181282 0
          -46.29714326846169 302.06443091518963 0 57.08094417681653 310.3595541746359 0
          -30.372807779956545 503.4220426518534 0 45.508277578242414 515.1244733437168 0
          35.19375354936068 562.8025234275316 0 -18.74230140086506 577.149183565113 0
          184.16041703634508 222.72951613111798 0
          <InformationKey name="L2_NORM_RANGE" location="vtkDataArray" length="2">
            <Value index="0">
              0
            </Value>
            <Value index="1">
              577.45342146
            </Value>
          </InformationKey>
        </DataArray>
        <DataArray type="Float64" Name="Sigma" NumberOfComponents="6" format="ascii" RangeMin="1502.577279011538" RangeMax="51413.40423758886">
          45092.9280990872 7647.247370862893 0 23483.7300784416 0 0
          -4326.046435965782 -6126.1676507388265 0 -4390.1488546344945 0 0
          -10590.21182861521 -92.70043958006218 0 -3958.245254065827 0 0
          5847.944398687699 2503.750183663395 0 1035.0410440895448 0 0
          463.0546289233118 1376.7991718161823 0 1576.7910801589796 0 0
          1096.0414510023659 188.2191746787243 0 -1538.3354432494784 0 0
          -2445.005415583636 -845.1892813664994 0 1057.7333820251322 0 0
          -884.8293815159484 -1135.538517717257 0 -430.5435167184796 0 0
          -217.55638041901983 -2362.7033311637847 0 1028.1502124854617 0 0
          -6429.296086897513 -2779.7810817192944 0 529.0883625020865 0 0
          3604.449560051636 -5164.485387037203 0 178.71950626981462 0 0
          -15425.35036945659 -4881.395175151249 0 3200.29711091066 0 0
          10401.986440219187 -8435.175356280417 0 -2427.5720559109664 0 0
          <InformationKey name="L2_NORM_RANGE" location="vtkDataArray" length="2">
            <Value index="0">
              1502.577279
            </Value>
            <Value index="1">
              51413.404238
            </Value>
          </InformationKey>
        </DataArray>
        <DataArray type="Float64" Name="Press" format="ascii" RangeMin="-642.2297241558728" RangeMax="2848.5640619197875">
          -642.2297241558728 -580.5627862825424 -628.1482162121587 -469.4765802819794 -490.8617780820689 -155.26251061025985
          246.05892654654122 550.5280053173359 760.300449390493 868.919151878189 1894.8889843041438 1268.8387519020716
          2848.5640619197875
        </DataArray>
        <DataArray type="Float64" Name="Dev strain" NumberOfComponents="6" format="ascii" RangeMin="0.00004571443085951264" RangeMax="0.001710406163314883">
          0.0012630675822837495 -0.000509985219917675 0 0.0010344392691477556 0 0
          0.00017612321482567787 -0.00018542147746365906 0 -0.000012834573269711898 0 0
          -0.00009257736192714783 0.00005174854244146602 0 -0.00004820683916860964 0 0
          0.00003438673787251625 0.000034827836824422735 0 -0.00004001023554607499 0 0
          -0.000016204403479739483 0.00006482918400163211 0 0.000049586123308868876 0 0
          0.00003449457680003795 -0.0000013510986905642764 0 -0.000029968448283549833 0 0
          -0.000059680183566743204 -0.000005658473098876919 0 0.000044764139864815354 0 0
          -0.00004795872260591555 -0.00004664822011849172 0 0.000005171955428240351 0 0
          -0.000004558798498471956 -0.00012279441260013685 0 0.0000678789629890619 0 0
          -0.0001740307803767813 -0.00008151138489904796 0 0.00007462520720281473 0 0
          0.00009913932303039306 -0.00030451226653041314 0 0.0000636755905448114 0 0
          -0.00037912989340121035 -0.00010525605641595381 0 0.00020249165249202082 0 0
          0.00028293613564090976 -0.0005315894065505518 0 7.722488969085252e-7 0 0
          <InformationKey name="L2_NORM_RANGE" location="vtkDataArray" length="2">
            <Value index="0">
              4.571443086e-05
            </Value>
            <Value index="1">
              0.0017104061633
            </Value>
          </InformationKey>
        </DataArray>
        <DataArray type="Float64" Name="J2 Stresses" format="ascii" RangeMin="1082527.3097537793" RangeMax="1183797673.0495842">
          1183797673.0495842 32940655.667007692 59997516.34605359 20501436.826906152 1676565.302057746 1209985.6440054483
          3625898.1786476453 1082527.3097537793 3079122.1197352093 24601499.14147387 19839968.137418956 133445201.83776799
          91150029.1185121
        </DataArray>
      </PointData>
      <CellData>
        <DataArray type="UInt8" Name="vtkGhostType" format="ascii" RangeMin="0" RangeMax="0">
          0 0 0 0 0 0
          0 0 0 0 0
        </DataArray>
        <DataArray type="Float64" Name="Gauss Stress" NumberOfComponents="6" format="ascii" RangeMin="573.2567889184149" RangeMax="10706.19697280401">
          -3582.167149556657 -1797.7684964773905 0 -2437.784354870258 0 0
          9441.909702618545 -140.85381536885643 0 5045.111989913759 0 0
          2097.146536546356 984.3892203946643 0 357.83222699968167 0 0
          -1955.8997918601358 733.1207804411029 0 -448.8043766057672 0 0
          -530.8229749478671 -383.7280677171383 0 -303.71519264760866 0 0
          -428.6582326012488 106.58790099420638 0 365.396339644878 0 0
          -1783.9780807488216 -1366.0917746714392 0 375.56501942302305 0 0
          -663.5012654214113 -928.8479163310571 0 551.7800259307048 0 0
          -4739.183336072689 -2931.004918607781 0 1302.7016598941873 0 0
          160.56855943597725 -2260.953738115819 0 578.6526937524543 0 0
          1531.1258096467473 -4156.2547067809555 0 317.14818708983546 0 0
          <InformationKey name="L2_NORM_RANGE" location="vtkDataArray" length="2">
            <Value index="0">
              573.25678892
            </Value>
            <Value index="1">
              10706.196973
            </Value>
          </InformationKey>
        </DataArray>
        <DataArray type="Float64" Name="Gauss Strain" NumberOfComponents="6" format="ascii" RangeMin="0.00004143094469532433" RangeMax="0.0009351179398177779">
          -0.0001916630643798544 -4.77494407075883e-7 0 -0.00026119118087895626 0 0
          0.0006794526150216411 -0.0003472720476198663 0 0.0005405477132050455 0 0
          0.00011463942331064456 -0.000004584574848465238 0 0.000038339167178537324 0 0
          -0.00016589001300576332 0.00012221933402651222 0 -0.00004808618320776076 0 0
          -0.000024211352934949853 -0.000008451184303086062 0 -0.000032540913497958074 0 0
          -0.000034425155935596585 0.000022922644092487924 0 0.00003914960781909405 0 0
          -0.0000786380138152216 -0.000033864481021216334 0 0.000040239109223895315 0 0
          -0.000014219807661134482 -0.00004264980597288228 0 0.000059119288492575526 0 0
          -0.00023383434834062846 -0.000040100946469388356 0 0.0001395751778458058 0 0
          0.00009221753060670621 -0.00016723128698812911 0 0.00006199850290204866 0 0
          0.0002578037973598018 -0.0003515584008288807 0 0.00003398016290248241 0 0
          <InformationKey name="L2_NORM_RANGE" location="vtkDataArray" length="2">
            <Value index="0">
              4.1430944695e-05
            </Value>
            <Value index="1">
              0.00093511793982
            </Value>
          </InformationKey>
        </DataArray>
      </CellData>
      <Points>
        <DataArray type="Float32" Name="Points" NumberOfComponents="3" format="ascii" RangeMin="0" RangeMax="0.6020797527609908">
          0 0.05000000074505806 0 0 0 0
          0.10000000149011612 0.05000000074505806 0 0.10000000149011612 0 0
          0.20000000298023224 0.05000000074505806 0 0.20000000298023224 0 0
          0.30000001192092896 0.05000000074505806 0 0.30000001192092896 0 0
          0.4000000059604645 0.05000000074505806 0 0.4000000059604645 0 0
          0.5 0.05000000074505806 0 0.5 0 0
          0.6000000238418579 0.05000000074505806 0
          <InformationKey name="L2_NORM_RANGE" location="vtkDataArray" length="2">
            <Value index="0">
              0
            </Value>
            <Value index="1">
              0.60207975276
            </Value>
          </InformationKey>
        </DataArray>
      </Points>
      <Cells>
        <DataArray type="Int64" Name="connectivity" format="ascii" RangeMin="0" RangeMax="12">
          3 2 1 2 0 1
          5 4 3 4 2 3
          7 6 5 6 4 5
          9 8 7 8 6 7
          11 10 9 10 8 9
          12 10 11
        </DataArray>
        <DataArray type="Int64" Name="offsets" format="ascii" RangeMin="3" RangeMax="33">
          3 6 9 12 15 18
          21 24 27 30 33
        </DataArray>
        <DataArray type="UInt8" Name="types" format="ascii" RangeMin="5" RangeMax="5">
          5 5 5 5 5 5
          5 5 5 5 5
        </DataArray>
      </Cells>
    </Piece>
  </UnstructuredGrid>
</VTKFile>
