<?xml version="1.0"?>
<VTKFile type="UnstructuredGrid" version="0.1" byte_order="LittleEndian" header_type="UInt32" compressor="vtkZLibDataCompressor">
  <UnstructuredGrid>
    <Piece NumberOfPoints="13" NumberOfCells="11">
      <PointData>
        <DataArray type="Float64" Name="Disp" NumberOfComponents="3" format="ascii" RangeMin="0" RangeMax="0.015038058432842633">
          0 0 0 0 0 0
          -0.00022564767073509923 0.0007110288031953064 0 0.0003924197438079797 0.0007008685645550505 0
          -0.0005942682597650918 0.0026409497491508885 0 0.0006637038854792147 0.0026319292362493554 0
          -0.000741559106534195 0.005713713927450149 0 0.000936322240720666 0.005763686066155646 0
          -0.0007573229145599891 0.009128949290423833 0 0.0009073264714514212 0.009154748243249038 0
          -0.0006607974944038461 0.012340363866264727 0 0.0008228331139235522 0.012354496232142523 0
          -0.0005130113670003397 0.015029305398684195 0
          <InformationKey name="L2_NORM_RANGE" location="vtkDataArray" length="2">
            <Value index="0">
              0
            </Value>
            <Value index="1">
              0.015038058433
            </Value>
          </InformationKey>
        </DataArray>
        <DataArray type="Float64" Name="Nodal Stress" NumberOfComponents="6" format="ascii" RangeMin="4375.585865273706" RangeMax="698276.3691688552">
          602523.3991484236 124600.26047421724 0 330197.23849242897 0 0
          36895.28454475223 -26963.66745497384 0 11211.881230831445 0 0
          -47308.59843653079 -11924.068503725735 0 -7096.128365294559 0 0
          13956.122901620967 -1671.1602493341968 0 -8526.495984923822 0 0
          6411.064165906761 8475.156162774807 0 14616.734110431424 0 0
          16392.217811196086 -492.8581758353294 0 -2791.900146792781 0 0
          -18104.496935106697 -10456.944423512845 0 4448.000100027196 0 0
          559.3829723211505 -10350.840196178428 0 1446.5356289515917 0 0
          -6447.037815237816 -7326.4820271163235 0 3080.893778856145 0 0
          -3020.386567804829 -5937.989418769062 0 1861.9221762916802 0 0
          -683.6743977613087 -4917.344940078921 0 184.25602319927458 0 0
          -5680.951110509665 -3855.87270107685 0 2661.603293108686 0 0
          3643.8791600864765 -1792.837712490256 0 -1628.9963989350094 0 0
          <InformationKey name="L2_NORM_RANGE" location="vtkDataArray" length="2">
            <Value index="0">
              4375.5858653
            </Value>
            <Value index="1">
              698276.36917
            </Value>
          </InformationKey>
        </DataArray>
        <DataArray type="Float64" Name="Nodal Strain" NumberOfComponents="6" format="ascii" RangeMin="0.0003511081392014588" RangeMax="0.05385015258875764">
          0.0385873763508082 -0.012618674221428174 0 0.03537827555276024 0 0
          0.0035983655908742246 -0.0032436649805249965 0 0.0012012729890176542 0 0
          -0.0029533260131905633 0.0008378736224671178 0 -0.0007602994677101309 0 0
          0.0010565502161634334 -0.0006178015500103343 0 -0.0009135531412418382 0 0
          0.00015524900603709708 0.0003764017199872447 0 0.001566078654689081 0 0
          0.0011884747785081253 -0.0006206405058166694 0 -0.00029913215858494094 0 0
          -0.0009197160516678771 -0.00010033542542567847 0 0.00047657143928862806 0 0
          0.0004096287907435973 -0.0007593236915956433 0 0.0001549859602448134 0 0
          -0.00019884262869140408 -0.00029306879424981534 0 0.00033009576202030133 0 0
          -0.0000036708470300213374 -0.00031627115249047486 0 0.00019949166174553716 0 0
          0.00012678557659129655 -0.0003268219815141619 0 0.000019741716771350853 0 0
          -0.0002680724828550887 -0.00007252836755871553 0 0.00028517178140450206 0 0
          0.0003243070011665433 -0.00025819837803810674 0 -0.00017453532845732245 0 0
          <InformationKey name="L2_NORM_RANGE" location="vtkDataArray" length="2">
            <Value index="0">
              0.0003511081392
            </Value>
            <Value index="1">
              0.053850152589
            </Value>
          </InformationKey>
        </DataArray>
        <DataArray type="Float64" Name="Sld_traction" NumberOfComponents="3" format="ascii" RangeMin="3372.7529882285216" RangeMax="81708.14678260662">
          14477.734329615194 -23519.392335951678 0 -80493.92005677645 -14033.89057037535 0
          55759.08322634188 23932.80127158854 0 2749.0777809687197 1953.9790361691507 0
          12536.146575033137 2212.7581313289566 0 14311.263500140954 370.3858502031017 0
          14782.33623859529 -9521.396839096447 0 2515.42873172914 9193.294744785127 0
          3402.4770359280046 -7315.223023559624 0 -2746.538432079741 6465.0227144102155 0
          -1747.7553775624128 -4631.065045269246 0 -5838.410076973504 4041.3339757589015 0
          -5707.99884322355 -1463.072324331198 0
          <InformationKey name="L2_NORM_RANGE" location="vtkDataArray" length="2">
            <Value index="0">
              3372.7529882
            </Value>
            <Value index="1">
              81708.146783
            </Value>
          </InformationKey>
        </DataArray>
        <DataArray type="Float64" Name="Velocity" NumberOfComponents="3" format="ascii" RangeMin="0" RangeMax="8.42057449526724">
          0 0 0 0 0 0
          0.0812129459641292 -0.2588849917673205 0 -0.1514602928768395 -0.24994576765566545 0
          0.2506578810726342 -1.0267189351805603 0 -0.28356307284361315 -1.0141985542061387 0
          0.36742563299300945 -2.416542011536472 0 -0.4490698975255546 -2.4329547561287113 0
          0.4475413928307349 -4.211565734011222 0 -0.5110190827848278 -4.218845600416843 0
          0.4928706526895196 -6.245775239290225 0 -0.5604555283991661 -6.252300586787271 0
          0.5132783858282032 -8.404916426056046 0
          <InformationKey name="L2_NORM_RANGE" location="vtkDataArray" length="2">
            <Value index="0">
              0
            </Value>
            <Value index="1">
              8.4205744953
            </Value>
          </InformationKey>
        </DataArray>
        <DataArray type="Float64" Name="Acceleration" NumberOfComponents="3" format="ascii" RangeMin="0" RangeMax="927.0308964222531">
          0 0 0 0 0 0
          29.854557053373526 -92.9078879751728 0 -47.9143822335418 -93.63387912744201 0
          64.21494315131349 -319.55410461765587 0 -70.30258450342149 -321.99470639590527 0
          58.71925496348763 -614.8558987679535 0 -79.96661505850147 -622.083641749854 0
          31.63647047866766 -844.9941095741342 0 -47.76887041915916 -849.1928782335563 0
          -12.504875849303971 -925.7101909218 0 -5.307703737441443 -927.015701702232 0
          -60.8892435324874 -814.6879033675796 0
          <InformationKey name="L2_NORM_RANGE" location="vtkDataArray" length="2">
            <Value index="0">
              0
            </Value>
            <Value index="1">
              927.03089642
            </Value>
          </InformationKey>
        </DataArray>
        <DataArray type="Float64" Name="Sigma" NumberOfComponents="6" format="ascii" RangeMin="8749.03370819632" RangeMax="1698338.6391543169">
          1467120.7361692924 346861.13529282075 0 782047.461200397 0 0
          -150100.3083473741 -108571.93536400601 0 -119596.21152593699 0 0
          -330134.7567451402 -42836.48267239037 0 -123709.75690514123 0 0
          163488.6231746073 32166.567974298334 0 33451.94856028498 0 0
          29375.808714804065 30047.488782319026 0 47346.06577821951 0 0
          15356.582220972325 -1706.7656525336563 0 -30706.049401015338 0 0
          -55760.76590006729 -25549.210267860526 0 9542.373242461974 0 0
          10533.237869698609 -20152.00293277695 0 3504.6680429306552 0 0
          -12440.310794698358 -7113.51716436454 0 3178.45868350435 0 0
          -7058.156234625999 -7882.740093342736 0 1594.8048389178537 0 0
          1243.8559374630604 -8462.142696904086 0 -1841.3457609113493 0 0
          -15232.500394919842 -5852.580643647989 0 6595.3431938763815 0 0
          11907.54231286855 -3097.9778041839704 0 -6299.607905233429 0 0
          <InformationKey name="L2_NORM_RANGE" location="vtkDataArray" length="2">
            <Value index="0">
              8749.0337082
            </Value>
            <Value index="1">
              1698338.6392
            </Value>
          </InformationKey>
        </DataArray>
        <DataArray type="Float64" Name="Press" format="ascii" RangeMin="-12115.664650835268" RangeMax="8987.260834237239">
          -12115.664650835268 -9439.112664771066 -10242.368685934489 -4419.483424316511 -8880.746361473675 -2994.3987356315224
          7237.640730777678 8987.260834237239 2064.6718572719114 2083.104406956015 3077.7553209997054 1425.7292012732994
          1897.9823432786498
        </DataArray>
        <DataArray type="Float64" Name="Dev strain" NumberOfComponents="6" format="ascii" RangeMin="0.00041677383395841025" RangeMax="0.05404174250890941">
          0.03897945501734728 -0.012226595554889105 0 0.03537827555276024 0 0
          0.0039321885199193355 -0.0029098420514798847 0 0.0012012729890176542 0 0
          -0.0026254456104938665 0.0011657540251638174 0 -0.0007602994677101309 0 0
          0.0012863021270000938 -0.0003880496391736737 0 -0.0009135531412418382 0 0
          0.00036690665616773713 0.0005880593701178843 0 0.001566078654689081 0 0
          0.001238131999535686 -0.0005709832847891088 0 -0.00029913215858494094 0 0
          -0.001064345498327626 -0.00024496487208542777 0 0.00047657143928862806 0 0
          0.00019648326737202855 -0.0009724692149672119 0 0.0001549859602448134 0 0
          -0.0003323073836848427 -0.000426533549243254 0 0.00033009576202030133 0 0
          -0.00010246986736868168 -0.0004150701728291352 0 0.00019949166174553716 0 0
          0.00003914613211806013 -0.0004144614259873983 0 0.000019741716771350853 0 0
          -0.0003274698532956926 -0.00013192573799931945 0 0.00028517178140450206 0 0
          0.0002742776306605241 -0.00030822774854412583 0 -0.00017453532845732245 0 0
          <InformationKey name="L2_NORM_RANGE" location="vtkDataArray" length="2">
            <Value index="0">
              0.00041677383396
            </Value>
            <Value index="1">
              0.054041742509
            </Value>
          </InformationKey>
        </DataArray>
        <DataArray type="Float64" Name="J2 Stresses" format="ascii" RangeMin="37425156.86077118" RangeMax="1289277508729.772">
          1289277508729.772 20734797310.17051 59237986917.839714 14161367217.006937 1443307346.0550451 355084200.70547456
          1903776801.311342 261596835.63393673 105207379.45888476 56613431.024350405 37425156.86077118 144015522.19707102
          85614780.14390562
        </DataArray>
      </PointData>
      <CellData>
        <DataArray type="UInt8" Name="vtkGhostType" format="ascii" RangeMin="0" RangeMax="0">
          0 0 0 0 0 0
          0 0 0 0 0
        </DataArray>
        <DataArray type="Float64" Name="Gauss Stress" NumberOfComponents="6" format="ascii" RangeMin="3976.343147013578" RangeMax="369567.2593670224">
          -113615.80223097632 -47780.93827904003 0 -69951.33995693106 0 0
          318362.8416917457 54551.85708496118 0 179580.49758977292 0 0
          63975.46186298731 14737.55419422066 0 16697.32164582971 0 0
          -53604.30777581784 -1388.3414624992238 0 -14303.914188878894 0 0
          -5546.81432667098 -11392.492007929248 0 -5886.336038540901 0 0
          -5221.959776872814 -615.330501467562 0 8727.463206555383 0 0
          1389.9359796131384 -7337.741030673021 0 2759.310521784286 0 0
          -13126.088467593403 -11508.38564757173 0 5408.499989632326 0 0
          -4820.07058761792 -5203.6248348885965 0 2116.2674239609623 0 0
          -3676.3598355445547 -5410.95612312791 0 977.3059205036177 0 0
          1440.1215736544782 -3670.4114263947968 0 -515.2034907561333 0 0
          <InformationKey name="L2_NORM_RANGE" location="vtkDataArray" length="2">
            <Value index="0">
              3976.343147
            </Value>
            <Value index="1">
              369567.25937
            </Value>
          </InformationKey>
        </DataArray>
        <DataArray type="Float64" Name="Gauss Strain" NumberOfComponents="6" format="ascii" RangeMin="0.0002844290438457439" RangeMax="0.029297866435813898">
          -0.00640895236367545 0.0006447830597462936 0 -0.007494786423956899 0 0
          0.02079192236780465 -0.007473540268636545 0 0.01924076759890424 0 0
          0.004043334626134071 -0.001232155481233785 0 0.0017889987477674694 0 0
          -0.0037792955031834444 0.0018152723161006924 0 -0.001532562234522738 0 0
          0.000010673691235260055 -0.0006156489174709825 0 -0.0006306788612722395 0 0
          -0.00035102103758135933 0.00014254638478348878 0 0.0009350853435595053 0 0
          0.000361343321067832 -0.0005737649300342565 0 0.00029564041304831637 0 0
          -0.0005265639745576815 -0.00035323867241250206 0 0.0005794821417463206 0 0
          -0.00015844701215525885 -0.00019954211007711692 0 0.00022674293828153175 0 0
          -0.00006934869814147142 -0.00025519830038254516 0 0.00010471134862538761 0 0
          0.00023395194906084818 -0.00031360515808728827 0 -0.000055200374009585767 0 0
          <InformationKey name="L2_NORM_RANGE" location="vtkDataArray" length="2">
            <Value index="0">
              0.00028442904385
            </Value>
            <Value index="1">
              0.029297866436
            </Value>
          </InformationKey>
        </DataArray>
      </CellData>
      <Points>
        <DataArray type="Float32" Name="Points" NumberOfComponents="3" format="ascii" RangeMin="0" RangeMax="0.6020797527609908">
          0 0.05000000074505806 0 0 0 0
          0.10000000149011612 0.05000000074505806 0 0.10000000149011612 0 0
          0.20000000298023224 0.05000000074505806 0 0.20000000298023224 0 0
          0.30000001192092896 0.05000000074505806 0 0.30000001192092896 0 0
          0.4000000059604645 0.05000000074505806 0 0.4000000059604645 0 0
          0.5 0.05000000074505806 0 0.5 0 0
          0.6000000238418579 0.05000000074505806 0
          <InformationKey name="L2_NORM_RANGE" location="vtkDataArray" length="2">
            <Value index="0">
              0
            </Value>
            <Value index="1">
              0.60207975276
            </Value>
          </InformationKey>
        </DataArray>
      </Points>
      <Cells>
        <DataArray type="Int64" Name="connectivity" format="ascii" RangeMin="0" RangeMax="12">
          3 2 1 2 0 1
          5 4 3 4 2 3
          7 6 5 6 4 5
          9 8 7 8 6 7
          11 10 9 10 8 9
          12 10 11
        </DataArray>
        <DataArray type="Int64" Name="offsets" format="ascii" RangeMin="3" RangeMax="33">
          3 6 9 12 15 18
          21 24 27 30 33
        </DataArray>
        <DataArray type="UInt8" Name="types" format="ascii" RangeMin="5" RangeMax="5">
          5 5 5 5 5 5
          5 5 5 5 5
        </DataArray>
      </Cells>
    </Piece>
  </UnstructuredGrid>
</VTKFile>
