<?xml version="1.0"?>
<VTKFile type="UnstructuredGrid" version="0.1" byte_order="LittleEndian" header_type="UInt32" compressor="vtkZLibDataCompressor">
  <UnstructuredGrid>
    <Piece NumberOfPoints="13" NumberOfCells="11">
      <PointData>
        <DataArray type="Float64" Name="Disp" NumberOfComponents="3" format="ascii" RangeMin="0.04511739318388593" RangeMax="0.20303145728327548">
          0.006444541454965196 0.06786935323786884 0 -0.006206931780520189 0.09323712316536899 0
          0.006884722058958346 0.09329190747045107 0 -0.006459344542906319 0.12003927157597843 0
          0.007129409461957245 0.12007573814592873 0 -0.006568224951126386 0.1475093759945144 0
          0.007235838659846762 0.1475318184884822 0 -0.006596844474621263 0.17520961077093022 0
          0.00725542337069307 0.17522285065544807 0 -0.006588121116842463 0.20290279167030792 0
          0.007242573912674821 0.202902236975569 0 -0.005746996774353701 0.06780008785594714 0
          0.005677008475528511 0.04475880631203355 0
          <InformationKey name="L2_NORM_RANGE" location="vtkDataArray" length="2">
            <Value index="0">
              0.045117393184
            </Value>
            <Value index="1">
              0.20303145728
            </Value>
          </InformationKey>
        </DataArray>
        <DataArray type="Float64" Name="Nodal Stress" NumberOfComponents="6" format="ascii" RangeMin="1207.7965031666074" RangeMax="54091.8086575089">
          21476.66800143959 -17034.662749550338 0 -4687.149364304797 0 0
          -33773.957381810855 -14635.453793171686 0 11781.004861816082 0 0
          12467.120094592186 -12677.456489377748 0 -2335.6005341803348 0 0
          -21339.440858818813 -10767.634253838334 0 7398.937509856337 0 0
          6020.562522741917 -9157.64354287247 0 -576.8302855113998 0 0
          -12295.11825774206 -6992.156539334255 0 4000.5774010833698 0 0
          2305.750037317568 -5583.353936755368 0 265.9946128569222 0 0
          -6059.082420112007 -4035.9064555042173 0 1681.4659197380056 0 0
          600.6517669661237 -2843.1148351061706 0 438.5234616969934 0 0
          -2606.067438241718 -1623.6246977173173 0 487.52258974931516 0 0
          837.7318161156511 -814.9023485257082 0 304.8146316966148 0 0
          -48112.40745872654 -18001.304472429183 0 16943.230201379254 0 0
          35779.35717521804 -16865.920317680415 0 -9671.544347490357 0 0
          <InformationKey name="L2_NORM_RANGE" location="vtkDataArray" length="2">
            <Value index="0">
              1207.7965032
            </Value>
            <Value index="1">
              54091.808658
            </Value>
          </InformationKey>
        </DataArray>
        <DataArray type="Float64" Name="Nodal Strain" NumberOfComponents="6" format="ascii" RangeMin="0.00012939649357687132" RangeMax="0.004148483182330904">
          0.002142428526872483 -0.0019837854821621523 0 -0.0005021945747469426 0 0
          -0.0018897307489446444 0.0001608232069809816 0 0.0012622505209088659 0 0
          0.0013432748813772188 -0.0013507868954767029 0 -0.00025024291437646443 0 0
          -0.0011396874094214034 -0.000006993844602066503 0 0.0007927433046274647 0 0
          0.0007570988781555822 -0.000869137486017388 0 -0.0000618032448762214 0 0
          -0.0006285028562910667 -0.00006032838646165904 0 0.0004286332929732181 0 0
          0.0003641019289782323 -0.0004811592111010109 0 0.00002849942280609879 0 0
          -0.0002886520851685643 -0.0000718832318177296 0 0.00018015706282907199 0 0
          0.00014444351317994349 -0.00022453147989923088 0 0.00004698465661039215 0 0
          -0.0001281610778130757 -0.000022899355614032744 0 0.00005223456318742663 0 0
          0.00008894164216989326 -0.000088126304041681 0 0.00003265871053892301 0 0
          -0.002793696801607997 0.00043249280406672036 0 0.0018153460930049198 0 0
          0.0031580226667184477 -0.0024825427789492466 0 -0.0010362368943739667 0 0
          <InformationKey name="L2_NORM_RANGE" location="vtkDataArray" length="2">
            <Value index="0">
              0.00012939649358
            </Value>
            <Value index="1">
              0.0041484831823
            </Value>
          </InformationKey>
        </DataArray>
        <DataArray type="Float64" Name="Sld_traction" NumberOfComponents="3" format="ascii" RangeMin="777.5927054965842" RangeMax="45368.746434775865">
          24646.034162994343 16611.64641908578 0 27076.666273221916 -14484.163628565568 0
          14047.26939652738 12948.003847666514 0 16221.578158273127 -10579.189951833829 0
          6879.601893906538 9377.887833983927 0 8202.271962656725 -6785.207992849135 0
          2276.673608631117 5838.642454309984 0 3042.7671387174764 -3820.8352478426914 0
          99.09140182859514 3046.5192087727423 0 -244.0821069341524 -1119.0399850850233 0
          -382.67372770778536 676.9130178713698 0 41637.405638438635 -18018.035541176687 0
          37016.15412660743 17741.774908853346 0
          <InformationKey name="L2_NORM_RANGE" location="vtkDataArray" length="2">
            <Value index="0">
              777.5927055
            </Value>
            <Value index="1">
              45368.746435
            </Value>
          </InformationKey>
        </DataArray>
        <DataArray type="Float64" Name="Velocity" NumberOfComponents="3" format="ascii" RangeMin="3.2689856851901813" RangeMax="5.08486518898129">
          -0.22646393073824145 -4.190113532903567 0 0.0813461748283073 -4.805484711019403 0
          -0.1409730409754002 -4.805597512012319 0 0.0014534410425870448 -5.083757257578412 0
          -0.062207827020792195 -5.0786093962940555 0 -0.052473183701183146 -5.084594433689475 0
          -0.007088445911023644 -5.078537879041619 0 -0.07606798560011052 -4.929760161156722 0
          0.013596524638711749 -4.922549923260291 0 -0.07265414174005791 -4.74925863035233 0
          0.010619489257573722 -4.749273743983778 0 0.166220897081228 -4.1850942072035835 0
          -0.28878886860657094 -3.2562046003510368 0
          <InformationKey name="L2_NORM_RANGE" location="vtkDataArray" length="2">
            <Value index="0">
              3.2689856852
            </Value>
            <Value index="1">
              5.084865189
            </Value>
          </InformationKey>
        </DataArray>
        <DataArray type="Float64" Name="Acceleration" NumberOfComponents="3" format="ascii" RangeMin="530.969950887339" RangeMax="1101.323267904859">
          -41.553917018572974 -1028.0954965981655 0 -4.740939766722477 -1101.3130635376874 0
          -11.37069767055982 -1101.0733198678208 0 -32.143869346296015 -1057.039500177052 0
          15.621942328425575 -1055.1719162823283 0 -50.327899442262606 -918.6702321555349 0
          34.181530365353865 -916.5766681749665 0 -58.18763969538486 -728.2394398127217 0
          41.04274672685915 -725.8152392065676 0 -57.02747412428198 -529.4529728656344 0
          40.00419308567416 -529.4608137349423 0 25.343694752489682 -1026.8035225445055 0
          -65.81676968976899 -839.284476788278 0
          <InformationKey name="L2_NORM_RANGE" location="vtkDataArray" length="2">
            <Value index="0">
              530.96995089
            </Value>
            <Value index="1">
              1101.3232679
            </Value>
          </InformationKey>
        </DataArray>
        <DataArray type="Float64" Name="Sigma" NumberOfComponents="6" format="ascii" RangeMin="1119.6972894243252" RangeMax="134966.1033397562">
          68304.91062727461 -32908.16673761832 0 -22754.731106334053 0 0
          -85954.12336098954 -16326.495246074222 0 25990.87223430262 0 0
          41376.640362642494 -22294.864486892682 0 -13780.110776737834 0 0
          -52797.98068768754 -13228.07688705712 0 15917.44352693535 0 0
          20835.14618715669 -16052.73018946995 0 -6408.442165878896 0 0
          -29600.89792729778 -8667.50713390625 0 7668.822607594762 0 0
          8762.95699792396 -9383.341868197556 0 -1863.7319231858212 0 0
          -13701.54476187836 -5167.902216467987 0 2620.8978186259437 0 0
          2983.637650471714 -4854.007142651548 0 203.32820683548036 0 0
          -6024.177469770039 -1913.424641840769 0 104.18895020632213 0 0
          777.8238209576597 -663.9985257280636 0 455.8706848723284 0 0
          -125851.25380301646 -23755.718800612514 0 42579.06517518568 0 0
          106438.85471735235 -28193.47149027249 0 -43077.169775892005 0 0
          <InformationKey name="L2_NORM_RANGE" location="vtkDataArray" length="2">
            <Value index="0">
              1119.6972894
            </Value>
            <Value index="1">
              134966.10334
            </Value>
          </InformationKey>
        </DataArray>
        <DataArray type="Float64" Name="Press" format="ascii" RangeMin="1031.3233817306568" RangeMax="14998.512180891343">
          14998.512180891343 2436.0122422691607 9734.770174091316 2457.926810396612 6514.738911403301 2163.4507333503702
          3828.0742893619613 1243.0299382572105 1581.2140102006854 1191.9586681836113 1031.3233817306568 3182.819121099851
          12722.305515467093
        </DataArray>
        <DataArray type="Float64" Name="Dev strain" NumberOfComponents="6" format="ascii" RangeMin="0.00014283397542880704" RangeMax="0.004121127586062222">
          0.0017743159926413982 -0.0023518980163932373 0 -0.0005021945747469426 0 0
          -0.002097240820656182 -0.00004668686473055649 0 0.0012622505209088659 0 0
          0.0010762815770850337 -0.0016177801997688875 0 -0.00025024291437646443 0 0
          -0.001293991105876726 -0.00016129754105738932 0 0.0007927433046274647 0 0
          0.0005728904465503231 -0.0010533459176226472 0 -0.0000618032448762214 0 0
          -0.0007397150216193007 -0.0001715405517898929 0 0.0004286332929732181 0 0
          0.000251371690880045 -0.0005938894491991981 0 0.00002849942280609879 0 0
          -0.000353033530496548 -0.0001362646771457134 0 0.00018015706282907199 0 0
          0.00008725107584310306 -0.0002817239172360713 0 0.00004698465661039215 0 0
          -0.00017371739930023504 -0.00006845567710119206 0 0.00005223456318742663 0 0
          0.00004576468286770026 -0.00013130326334387396 0 0.00003265871053892301 0 0
          -0.003009038654411625 0.00021715095126309238 0 0.0018153460930049198 0 0
          0.002789327869328831 -0.0028512375763388624 0 -0.0010362368943739667 0 0
          <InformationKey name="L2_NORM_RANGE" location="vtkDataArray" length="2">
            <Value index="0">
              0.00014283397543
            </Value>
            <Value index="1">
              0.0041211275861
            </Value>
          </InformationKey>
        </DataArray>
        <DataArray type="Float64" Name="J2 Stresses" format="ascii" RangeMin="574906.4896405991" RangeMax="8654680327.560698">
          3003698573.845823 3996214244.7631073 1152016538.348974 1544645643.5219545 356163764.3364087 490372129.055998
          83286634.15184236 108937047.4342851 16242075.075036038 19978667.85798049 574906.4896405991 8654680327.560698
          6525961453.0824795
        </DataArray>
      </PointData>
      <CellData>
        <DataArray type="UInt8" Name="vtkGhostType" format="ascii" RangeMin="0" RangeMax="1">
          1 1 0 0 0 0
          0 0 0 0 0
        </DataArray>
        <DataArray type="Float64" Name="Gauss Stress" NumberOfComponents="6" format="ascii" RangeMin="1338.0956123725011" RangeMax="47072.32033410631">
          26598.716119689612 -17984.57340368168 0 -7750.9452356801285 0 0
          -40961.04099749036 -17457.679080014896 0 15271.735434384747 0 0
          16965.574075393135 -14786.7439577778 0 -3514.6565495897585 0 0
          9373.74725266763 -10956.078555842843 0 -1423.7031385604591 0 0
          -27582.251486425837 -12406.909131088978 0 9376.068328166713 0 0
          4167.823063966166 -7199.105085819374 0 -201.11716048998505 0 0
          -16809.20532422611 -8937.399251761013 0 5725.941322883741 0 0
          1565.7893747790577 -4250.977663165744 0 320.1647007585344 0 0
          -9101.643576760882 -5328.0654192007505 0 2808.6628343449615 0 0
          513.9266872580963 -1208.9780833684752 0 254.46261397137698 0 0
          -4241.960654845059 -2639.7104614395985 0 976.138325222582 0 0
          <InformationKey name="L2_NORM_RANGE" location="vtkDataArray" length="2">
            <Value index="0">
              1338.0956124
            </Value>
            <Value index="1">
              47072.320334
            </Value>
          </InformationKey>
        </DataArray>
        <DataArray type="Float64" Name="Gauss Strain" NumberOfComponents="6" format="ascii" RangeMin="0.0001344969512481399" RangeMax="0.003485082965195117">
          0.0025422144872521758 -0.002234566533109035 0 -0.0008304584181085853 0 0
          -0.002302300104105922 0.0002159172441950196 0 0.0016362573679697952 0 0
          0.0017399247181630025 -0.001662109356819598 0 -0.00037657034459890237 0 0
          0.0010608418950420753 -0.0011173537272983326 0 -0.00015253962198862075 0 0
          -0.0015270569229200964 0.00009887261515170958 0 0.0010045787494464336 0 0
          0.0005548125433482755 -0.0006630726155573185 0 -0.000021548267195355554 0 0
          -0.0008814646927389721 -0.000038056899260568424 0 0.000613493713166115 0 0
          0.0002636627290258522 -0.0003595623107539481 0 0.00003430336079555725 0 0
          -0.0004598293476543219 -0.00005551740220145079 0 0.0003009281608226745 0 0
          0.00007988683778159528 -0.00010471010192839451 0 0.000027263851496933245 0 0
          -0.00020872181600894716 -0.000037052152429790656 0 0.0001045862491309909 0 0
          <InformationKey name="L2_NORM_RANGE" location="vtkDataArray" length="2">
            <Value index="0">
              0.00013449695125
            </Value>
            <Value index="1">
              0.0034850829652
            </Value>
          </InformationKey>
        </DataArray>
      </CellData>
      <Points>
        <DataArray type="Float32" Name="Points" NumberOfComponents="3" format="ascii" RangeMin="0.4000000059604645" RangeMax="1.0012492197622458">
          0.5 0 0 0.6000000238418579 0.05000000074505806 0
          0.6000000238418579 0 0 0.699999988079071 0.05000000074505806 0
          0.699999988079071 0 0 0.800000011920929 0.05000000074505806 0
          0.800000011920929 0 0 0.8999999761581421 0.05000000074505806 0
          0.8999999761581421 0 0 1 0.05000000074505806 0
          1 0 0 0.5 0.05000000074505806 0
          0.4000000059604645 0 0
          <InformationKey name="L2_NORM_RANGE" location="vtkDataArray" length="2">
            <Value index="0">
              0.40000000596
            </Value>
            <Value index="1">
              1.0012492198
            </Value>
          </InformationKey>
        </DataArray>
      </Points>
      <Cells>
        <DataArray type="Int64" Name="connectivity" format="ascii" RangeMin="0" RangeMax="12">
          0 11 12 1 11 0
          2 1 0 4 3 2
          3 1 2 6 5 4
          5 3 4 8 7 6
          7 5 6 10 9 8
          9 7 8
        </DataArray>
        <DataArray type="Int64" Name="offsets" format="ascii" RangeMin="3" RangeMax="33">
          3 6 9 12 15 18
          21 24 27 30 33
        </DataArray>
        <DataArray type="UInt8" Name="types" format="ascii" RangeMin="5" RangeMax="5">
          5 5 5 5 5 5
          5 5 5 5 5
        </DataArray>
      </Cells>
    </Piece>
  </UnstructuredGrid>
</VTKFile>
