<?xml version="1.0"?>
<VTKFile type="UnstructuredGrid" version="0.1" byte_order="LittleEndian" header_type="UInt32" compressor="vtkZLibDataCompressor">
  <UnstructuredGrid>
    <Piece NumberOfPoints="13" NumberOfCells="11">
      <PointData>
        <DataArray type="Float64" Name="Disp" NumberOfComponents="3" format="ascii" RangeMin="0.0014985743600486512" RangeMax="0.07570269665294281">
          -0.0016993185269429756 -0.0064241113201693135 0 0.002546184794680192 -0.014928703263927208 0
          -0.0025261122287455096 -0.014935300172764093 0 0.0033363936691239255 -0.026679245290986895 0
          -0.0032866240040392456 -0.026718295889417657 0 0.00394447171192215 -0.04128426369506722 0
          -0.003930639575238525 -0.04131860989198683 0 0.004394949978471538 -0.058011473947526315 0
          -0.004284215557348312 -0.05812404478323725 0 0.004395259821401867 -0.07557499567733927 0
          -0.004294643183798279 -0.07555921017168976 0 0.0017253629321486996 -0.006434456621285053 0
          -0.0009210981229824191 -0.0011820758691528598 0
          <InformationKey name="L2_NORM_RANGE" location="vtkDataArray" length="2">
            <Value index="0">
              0.00149857436
            </Value>
            <Value index="1">
              0.075702696653
            </Value>
          </InformationKey>
        </DataArray>
        <DataArray type="Float64" Name="Nodal Stress" NumberOfComponents="6" format="ascii" RangeMin="8384.723367662695" RangeMax="39486.43729740403">
          -36339.83908776296 -3720.9662278094324 0 12618.018588248891 0 0
          35151.09324889735 64.36420115038396 0 -12594.419231453814 0 0
          -32818.65196547483 2332.121761214336 0 11240.019491802641 0 0
          36569.49516615244 6190.609861589424 0 -13547.217547384615 0 0
          -26169.205327808217 7548.623106094065 0 8497.017501363505 0 0
          33133.74764153168 9615.403500197888 0 -12997.303875453485 0 0
          -15311.70600745192 12136.760925759118 0 4994.516012318732 0 0
          29513.86026266454 18548.763219725104 0 -10623.682124272947 0 0
          -3467.682504823259 17968.94079935406 0 574.2902747696957 0 0
          22005.209365601037 14218.97845464845 0 -7345.088193758651 0 0
          -2534.2400980252683 7550.55821107506 0 -2621.1226180697304 0 0
          29874.278154132924 -5664.8679183079375 0 -10001.878919253624 0 0
          -34757.27037909898 -8635.161368230902 0 12484.741315676714 0 0
          <InformationKey name="L2_NORM_RANGE" location="vtkDataArray" length="2">
            <Value index="0">
              8384.7233677
            </Value>
            <Value index="1">
              39486.437297
            </Value>
          </InformationKey>
        </DataArray>
        <DataArray type="Float64" Name="Nodal Strain" NumberOfComponents="6" format="ascii" RangeMin="0.0008238152314799632" RangeMax="0.003110936166111325">
          -0.002462811140989875 0.001032068094005146 0 0.0013519305630266666 0 0
          0.002508493653451583 -0.0012507987445213062 0 -0.0013494020605129087 0 0
          -0.0024274794890058577 0.001338674838853697 0 0.00120428780269314 0 0
          0.002391013588239838 -0.0008638669801061997 0 -0.0014514875943626372 0 0
          -0.0021388226343468037 0.001473801840714155 0 0.0009103947322889467 0 0
          0.002023288992245196 -0.0004965335943262822 0 -0.0013925682723700161 0 0
          -0.0015271490335951056 0.0014137581378203627 0 0.0005351267156055785 0 0
          0.001445677046628714 0.0002708452205994883 0 -0.0011382516561721013 0 0
          -0.0008894394931785923 0.0014073415751261204 0 0.00006153110086818173 0 0
          0.0010639800098769154 0.00022974098370342385 0 -0.0007869737350455696 0 0
          -0.00045067994311162845 0.0006298341614348353 0 -0.00028083456622175686 0 0
          0.0023361937223776354 -0.0014715719282410284 0 -0.0010716298842057455 0 0
          -0.002174263549641681 0.0006245338443798993 0 0.0013376508552510767 0 0
          <InformationKey name="L2_NORM_RANGE" location="vtkDataArray" length="2">
            <Value index="0">
              0.00082381523148
            </Value>
            <Value index="1">
              0.0031109361661
            </Value>
          </InformationKey>
        </DataArray>
        <DataArray type="Float64" Name="Sld_traction" NumberOfComponents="3" format="ascii" RangeMin="6779.650196515955" RangeMax="37558.01832867825">
          -36488.12035762388 4367.493974975946 0 -37083.380168818374 962.8225364344179 0
          -35561.24786306715 -1388.871476124632 0 -36952.06941114902 6719.323404254044 0
          -30365.519737553877 -6982.261083135181 0 -32618.92515842106 10863.386214933627 0
          -21832.83386990054 -10878.893009388381 0 -24051.317200176458 18780.025285309228 0
          -10076.705411054183 -16586.773077018013 0 -2173.93470207544 6979.797521639721 0
          2001.4681708895146 -6477.482686046718 0 -32499.93280222983 -4972.616129391877 0
          -33070.326254235806 9538.129476862632 0
          <InformationKey name="L2_NORM_RANGE" location="vtkDataArray" length="2">
            <Value index="0">
              6779.6501965
            </Value>
            <Value index="1">
              37558.018329
            </Value>
          </InformationKey>
        </DataArray>
        <DataArray type="Float64" Name="Velocity" NumberOfComponents="3" format="ascii" RangeMin="3.581025545304627" RangeMax="14.224428300262886">
          -0.41173905481511486 -5.032282134208102 0 0.3887396382307099 -6.626744170556721 0
          -0.4440150855175874 -6.626566913533864 0 0.427337416993252 -8.368593236141137 0
          -0.48047305454475553 -8.370040554847535 0 0.4570780402843104 -10.251273975855991 0
          -0.5106832636190592 -10.254297263313095 0 0.4713352552293737 -12.2243915173173 0
          -0.5231156315433356 -12.228440697891472 0 0.4695452720804505 -14.21478942926964 0
          -0.5219080807933365 -14.214850418647476 0 0.35317363362006565 -5.033154784414008 0
          -0.3812723597100349 -3.560670631193714 0
          <InformationKey name="L2_NORM_RANGE" location="vtkDataArray" length="2">
            <Value index="0">
              3.5810255453
            </Value>
            <Value index="1">
              14.2244283
            </Value>
          </InformationKey>
        </DataArray>
        <DataArray type="Float64" Name="Acceleration" NumberOfComponents="3" format="ascii" RangeMin="416.623517601096" RangeMax="1681.1175856308257">
          -20.47369068943169 -1677.949698192101 0 -65.80924126488276 -1580.1287167018786 0
          19.401335818370626 -1577.4524175997183 0 -90.72466604769033 -1352.4594265929645 0
          43.02577732308123 -1349.41357061269 0 -102.3215551113517 -1055.4661015023157 0
          53.57438982668373 -1053.6347811996457 0 -105.45542617921183 -734.1252382010898 0
          55.72592862348802 -732.8694365050033 0 -104.65223494227212 -412.93974820015137 0
          54.39296237090002 -413.0575759659041 0 -25.613030220109977 -1680.9224578784592 0
          -74.10739252008176 -1585.179954506123 0
          <InformationKey name="L2_NORM_RANGE" location="vtkDataArray" length="2">
            <Value index="0">
              416.6235176
            </Value>
            <Value index="1">
              1681.1175856
            </Value>
          </InformationKey>
        </DataArray>
        <DataArray type="Float64" Name="Sigma" NumberOfComponents="6" format="ascii" RangeMin="12259.606534722836" RangeMax="109537.92706929946">
          -102979.25455786167 -211.63781336855504 0 37333.44086448834 0 0
          100403.03340593385 -5570.884881366161 0 -37938.92657113802 0 0
          -96027.20840173388 8680.95495394582 0 36289.110824381896 0 0
          101076.10922408946 3968.366443303548 0 -37593.8108916295 0 0
          -79795.83789027978 17160.172087590756 0 30877.603016387002 0 0
          88426.28231925784 9171.68696941666 0 -33398.24632923809 0 0
          -51768.04922032477 19126.345024853883 0 22393.59553539335 0 0
          70020.5952480741 24734.97198580311 0 -24526.754741944485 0 0
          -25780.00376339235 30359.661210421895 0 10545.018061442817 0 0
          57587.74681034108 22906.798780549158 0 -12802.63790404271 0 0
          1943.9095195984264 11384.147665787923 0 -4113.435314839516 0 0
          88756.97922288827 -14284.077045835007 0 -33150.76383672861 0 0
          -95843.29086382885 -7700.731254978333 0 33305.84786340803 0 0
          <InformationKey name="L2_NORM_RANGE" location="vtkDataArray" length="2">
            <Value index="0">
              12259.606535
            </Value>
            <Value index="1">
              109537.92707
            </Value>
          </InformationKey>
        </DataArray>
        <DataArray type="Float64" Name="Press" format="ascii" RangeMin="-13743.786845703222" RangeMax="8788.356820069348">
          -4406.574775868609 6461.502254440227 -7455.642140183671 3741.8195087723534 -9109.981896654397 -587.1077252700621
          -10658.85210355039 -1603.157624863636 -7006.465030241926 -11338.483756598283 -13743.786845703222 8788.356820069348
          -1256.6950516908385
        </DataArray>
        <DataArray type="Float64" Name="Dev strain" NumberOfComponents="6" format="ascii" RangeMin="0.0010771343636292894" RangeMax="0.00307976650575931">
          -0.002448965701412295 0.0010459135335827265 0 0.0013519305630266666 0 0
          0.002426425927191528 -0.0013328664707813612 0 -0.0013494020605129087 0 0
          -0.002314849233091572 0.0014513050947679823 0 0.00120428780269314 0 0
          0.0024053169706561234 -0.0008495635976899142 0 -0.0014514875943626372 0 0
          -0.0019410102472734228 0.0016716142277875359 0 0.0009103947322889467 0 0
          0.0021450796245907947 -0.00037474296198068317 0 -0.0013925682723700161 0 0
          -0.0012758094792841947 0.001665097692131274 0 0.0005351267156055785 0 0
          0.0016149483903746507 0.00044011656434542526 0 -0.0011382516561721013 0 0
          -0.0006146635649237436 0.0016821175033809688 0 0.00006153110086818173 0 0
          0.0013975238025440754 0.0005632847763705839 0 -0.0007869737350455696 0 0
          -0.00004146099241299746 0.0010390531121334662 0 -0.00028083456622175686 0 0
          0.002164264273402708 -0.0016435013772159556 0 -0.0010716298842057455 0 0
          -0.002263509715552416 0.0005352876784691651 0 0.0013376508552510767 0 0
          <InformationKey name="L2_NORM_RANGE" location="vtkDataArray" length="2">
            <Value index="0">
              0.0010771343636
            </Value>
            <Value index="1">
              0.0030797665058
            </Value>
          </InformationKey>
        </DataArray>
        <DataArray type="Float64" Name="J2 Stresses" format="ascii" RangeMin="70918888.6707672" RangeMax="5650832281.624022">
          5650832281.624022 5415742475.079801 4977516757.2773 5469387548.3931 3569280217.3531675 4230524337.802146
          1648242277.2945576 2907741723.5594144 820958162.9050987 1961511890.8577666 70918888.6707672 4315661394.651423
          4899938708.21007
        </DataArray>
      </PointData>
      <CellData>
        <DataArray type="UInt8" Name="vtkGhostType" format="ascii" RangeMin="0" RangeMax="1">
          1 1 0 0 0 0
          0 0 0 0 0
        </DataArray>
        <DataArray type="Float64" Name="Gauss Stress" NumberOfComponents="6" format="ascii" RangeMin="11073.64813053405" RangeMax="38505.08080137361">
          -35646.826402097446 -6357.1197072239975 0 12496.174963722586 0 0
          32341.347456533804 -3074.4384806429184 0 -11252.083181126105 0 0
          -34668.04807175793 -834.094134133649 0 11894.541705910742 0 0
          -29190.247198663317 5661.896318924803 0 9857.634316379801 0 0
          36066.537950439444 3275.37204630404 0 -13081.208879461878 0 0
          -21164.5155056072 8367.420785462149 0 6624.31740751409 0 0
          34583.76117997181 8114.985129052951 0 -13371.484734826861 0 0
          -8931.977498099663 18317.501154140977 0 2803.952951630561 0 0
          31276.57029777436 13394.628842129856 0 -11843.801845263075 0 0
          554.3056446679057 10853.95734140518 0 -2123.6850524798024 0 0
          27293.41062777299 19351.108521690105 0 -8928.12486151479 0 0
          <InformationKey name="L2_NORM_RANGE" location="vtkDataArray" length="2">
            <Value index="0">
              11073.648131
            </Value>
            <Value index="1">
              38505.080801
            </Value>
          </InformationKey>
        </DataArray>
        <DataArray type="Float64" Name="Gauss Strain" NumberOfComponents="6" format="ascii" RangeMin="0.0008623630391347315" RangeMax="0.003032984252413">
          -0.0023191618963203896 0.0008190209638446234 0 0.0013388758889702772 0 0
          0.002419897621203948 -0.0013746508720649873 0 -0.0012055803408349394 0 0
          -0.0024465000717636505 0.001178566421553237 0 0.0012744151827761504 0 0
          -0.0022872282398661223 0.0014469299941611757 0 0.001056175105326407 0 0
          0.0024592037090919597 -0.0010541354949225488 0 -0.0014015580942280585 0 0
          -0.0018105875641670195 0.0013535484670189819 0 0.000709748293662224 0 0
          0.0021804477582460947 -0.0006554925329237821 0 -0.0014326590787314502 0 0
          -0.0012921948625121537 0.0016273921359422011 0 0.00030042353053184596 0 0
          0.0017556611340506748 -0.00016026116476838 0 -0.0012689787691353295 0 0
          -0.0003480480732881916 0.0007554860370765161 0 -0.0002275376841942646 0 0
          0.001258418311923425 0.00040745737198597204 0 -0.0009565848065908707 0 0
          <InformationKey name="L2_NORM_RANGE" location="vtkDataArray" length="2">
            <Value index="0">
              0.00086236303913
            </Value>
            <Value index="1">
              0.0030329842524
            </Value>
          </InformationKey>
        </DataArray>
      </CellData>
      <Points>
        <DataArray type="Float32" Name="Points" NumberOfComponents="3" format="ascii" RangeMin="0.4000000059604645" RangeMax="1.0012492197622458">
          0.5 0 0 0.6000000238418579 0.05000000074505806 0
          0.6000000238418579 0 0 0.699999988079071 0.05000000074505806 0
          0.699999988079071 0 0 0.800000011920929 0.05000000074505806 0
          0.800000011920929 0 0 0.8999999761581421 0.05000000074505806 0
          0.8999999761581421 0 0 1 0.05000000074505806 0
          1 0 0 0.5 0.05000000074505806 0
          0.4000000059604645 0 0
          <InformationKey name="L2_NORM_RANGE" location="vtkDataArray" length="2">
            <Value index="0">
              0.40000000596
            </Value>
            <Value index="1">
              1.0012492198
            </Value>
          </InformationKey>
        </DataArray>
      </Points>
      <Cells>
        <DataArray type="Int64" Name="connectivity" format="ascii" RangeMin="0" RangeMax="12">
          0 11 12 1 11 0
          2 1 0 4 3 2
          3 1 2 6 5 4
          5 3 4 8 7 6
          7 5 6 10 9 8
          9 7 8
        </DataArray>
        <DataArray type="Int64" Name="offsets" format="ascii" RangeMin="3" RangeMax="33">
          3 6 9 12 15 18
          21 24 27 30 33
        </DataArray>
        <DataArray type="UInt8" Name="types" format="ascii" RangeMin="5" RangeMax="5">
          5 5 5 5 5 5
          5 5 5 5 5
        </DataArray>
      </Cells>
    </Piece>
  </UnstructuredGrid>
</VTKFile>
