<?xml version="1.0"?>
<VTKFile type="UnstructuredGrid" version="0.1" byte_order="LittleEndian" header_type="UInt32" compressor="vtkZLibDataCompressor">
  <UnstructuredGrid>
    <Piece NumberOfPoints="13" NumberOfCells="11">
      <PointData>
        <DataArray type="Float64" Name="Disp" NumberOfComponents="3" format="ascii" RangeMin="0" RangeMax="0.0764660360675563">
          0 0 0 0 0 0
          0.0005010530688673547 -0.0016214666622320756 0 -0.0010176865612267656 -0.0015233113090712361 0
          0.0018458411548692856 -0.006954907939528362 0 -0.0021132836137297954 -0.006802165786770794 0
          0.0030852832720794803 -0.017840804091529043 0 -0.0036829970476045504 -0.017929262564470336 0
          0.004185581681438494 -0.03352186372624073 0 -0.0046544673435088895 -0.03355045411464913 0
          0.005117062123491917 -0.053222919538882314 0 -0.0056094699890777725 -0.05327489502683838 0
          0.005842086179111295 -0.07624253865763296 0
          <InformationKey name="L2_NORM_RANGE" location="vtkDataArray" length="2">
            <Value index="0">
              0
            </Value>
            <Value index="1">
              0.076466036068
            </Value>
          </InformationKey>
        </DataArray>
        <DataArray type="Float64" Name="Nodal Stress" NumberOfComponents="6" format="ascii" RangeMin="35399.97270256483" RangeMax="2017557.8105693653">
          -1761630.8417638273 -280790.61461797496 0 -942524.7620505154 0 0
          -118048.83395424682 137641.08225652113 0 -10113.262613399613 0 0
          143883.70153789409 35279.2179665461 0 32259.56310578894 0 0
          -64325.8577554645 -22876.832726464036 0 30705.817223936905 0 0
          -13683.602453447536 -50861.19061422397 0 -40536.76834951684 0 0
          -86815.72563905938 -20757.09533303076 0 21941.473353497877 0 0
          73925.45566397259 9711.168083460529 0 -18272.115311141282 0 0
          -50048.6357083035 11516.958314022602 0 13247.79177437934 0 0
          56096.46975901562 9096.58726039168 0 -21017.19644283477 0 0
          -43074.24752548281 8730.297182245804 0 13287.2903310163 0 0
          50461.919257354515 11551.269225230142 0 -17859.430161481556 0 0
          -31936.657692435194 12184.768098890077 0 9205.399999718975 0 0
          41906.940701894426 12858.442845474936 0 -15180.663956888204 0 0
          <InformationKey name="L2_NORM_RANGE" location="vtkDataArray" length="2">
            <Value index="0">
              35399.972703
            </Value>
            <Value index="1">
              2017557.8106
            </Value>
          </InformationKey>
        </DataArray>
        <DataArray type="Float64" Name="Nodal Strain" NumberOfComponents="6" format="ascii" RangeMin="0.003066205102712088" RangeMax="0.1595150257179028">
          -0.11580253817534572 0.04285891473313847 0 -0.1009847959339838 0 0
          -0.013347812505893387 0.01404753565954604 0 -0.0010835638514356694 0 0
          0.009017435182472937 -0.002618759485885781 0 0.0034563817613345307 0 0
          -0.003777674385159464 0.0006632925822334442 0 0.0032899089882789537 0 0
          0.0008390709181188889 -0.0031442420991071576 0 -0.004343225180305377 0 0
          -0.005459798426610285 0.0016179119633213514 0 0.0023508721450176294 0 0
          0.004933562258731596 -0.0019465399820375545 0 -0.0019577266404794233 0 0
          -0.003986222490379629 0.002610091154869596 0 0.0014194062615406433 0 0
          0.0036820125806299848 -0.001353689115651152 0 -0.002251842476018011 0 0
          -0.0033885282940432646 0.002161958638927657 0 0.0014236382497517465 0 0
          0.0031918774746242462 -0.0009771207431033652 0 -0.001913510374444453 0 0
          -0.0027163601244200174 0.0020109354960791198 0 0.0009862928571127475 0 0
          0.002534122805654069 -0.0005782162503908766 0 -0.0016264997096665933 0 0
          <InformationKey name="L2_NORM_RANGE" location="vtkDataArray" length="2">
            <Value index="0">
              0.0030662051027
            </Value>
            <Value index="1">
              0.15951502572
            </Value>
          </InformationKey>
        </DataArray>
        <DataArray type="Float64" Name="Sld_traction" NumberOfComponents="3" format="ascii" RangeMin="22266.800204172105" RangeMax="225247.734607115">
          -26627.353081481604 107319.59141831222 0 225002.86482191883 -10500.131788060437 0
          -154067.1394239415 -77884.83832253896 0 -18064.843330291373 13018.13453550647 0
          -41250.14029796914 -28913.65165318555 0 -69266.00732069496 23394.113819320024 0
          -69412.97129705577 7282.4921375266895 0 -51104.34076020421 -7868.624993615346 0
          -52297.58015532796 10429.814439454489 0 -43968.91258691032 -8839.820914276546 0
          -47348.71695312941 12019.30211047737 0 -35579.48413157559 -11440.046704653449 0
          -37978.07365416583 13214.851673395664 0
          <InformationKey name="L2_NORM_RANGE" location="vtkDataArray" length="2">
            <Value index="0">
              22266.800204
            </Value>
            <Value index="1">
              225247.73461
            </Value>
          </InformationKey>
        </DataArray>
        <DataArray type="Float64" Name="Velocity" NumberOfComponents="3" format="ascii" RangeMin="0" RangeMax="4.320682484618476">
          0 0 0 0 0 0
          0.017754211725344526 -0.05904753022966924 0 -0.04152857884159572 -0.05274440647517453 0
          0.08507260335774103 -0.28719865023709934 0 -0.09878189811048199 -0.27682670612746607 0
          0.16308822837298464 -0.8247618343010075 0 -0.19044292515187156 -0.8270551799759325 0
          0.24188821444018815 -1.6830208161306075 0 -0.26357786711411313 -1.682961419888132 0
          0.31771569547544054 -2.8508732782963726 0 -0.3401194344607905 -2.8534846033490417 0
          0.3827659232252141 -4.303694619847747 0
          <InformationKey name="L2_NORM_RANGE" location="vtkDataArray" length="2">
            <Value index="0">
              0
            </Value>
            <Value index="1">
              4.3206824846
            </Value>
          </InformationKey>
        </DataArray>
        <DataArray type="Float64" Name="Acceleration" NumberOfComponents="3" format="ascii" RangeMin="0" RangeMax="436.2129185015992">
          0 0 0 0 0 0
          20.22085534740637 -62.478758183088075 0 -30.914382251405186 -63.76479468657362 0
          37.96252436468262 -204.97181385606018 0 -40.893966340591305 -208.01961265783393 0
          24.651011882542207 -362.2795796470182 0 -37.30305523748302 -367.4116207736679 0
          -4.8900096421466515 -433.04288943002757 0 -4.60644097226168 -436.1885956432743 0
          -46.833082586239925 -355.5843539561174 0 36.165544499756834 -356.2523677385907 0
          -90.6780811334038 -101.17096775735263 0
          <InformationKey name="L2_NORM_RANGE" location="vtkDataArray" length="2">
            <Value index="0">
              0
            </Value>
            <Value index="1">
              436.2129185
            </Value>
          </InformationKey>
        </DataArray>
        <DataArray type="Float64" Name="Sigma" NumberOfComponents="6" format="ascii" RangeMin="106381.31808809644" RangeMax="4938244.120892588">
          -4297992.60723089 -891224.9745657244 0 -2262572.1182824555 0 0
          411623.08147397626 430359.1314143796 0 385431.0160529256 0 0
          986438.748829501 77528.34214217713 0 369614.1723099229 0 0
          -539802.3356284181 -158174.02499440536 0 -99286.3914562898 0 0
          -60224.287861498626 -117512.00440772988 0 -140287.407500886 0 0
          -139976.1637597331 -18697.530689096962 0 120103.60975398206 0 0
          234586.5508489839 35278.31147508049 0 -55965.38409419363 0 0
          -161782.75521704086 34812.611237742145 0 34467.99636453125 0 0
          149824.4094360314 -3357.8877912999405 0 -52328.88390467423 0 0
          -125111.07251159097 17806.29715945747 0 48650.44934911822 0 0
          136763.85683222255 12141.81733496352 0 -48504.561219077164 0 0
          -97115.05137791186 26048.574082938332 0 34743.681760457825 0 0
          110793.08247819888 12617.8260397946 0 -37745.172937793584 0 0
          <InformationKey name="L2_NORM_RANGE" location="vtkDataArray" length="2">
            <Value index="0">
              106381.31809
            </Value>
            <Value index="1">
              4938244.1209
            </Value>
          </InformationKey>
        </DataArray>
        <DataArray type="Float64" Name="Press" format="ascii" RangeMin="-23813.273726804844" RangeMax="39775.66161192569">
          39775.66161192569 33396.858987308806 38451.83489183157 23767.68032560201 37731.57929025956 14458.111749583433
          -5618.697958321121 -23813.273726804844 8194.811666892863 -10352.478302001093 1429.7602826323641 -13824.261538041854
          374.75227709316425
        </DataArray>
        <DataArray type="Float64" Name="Dev strain" NumberOfComponents="6" format="ascii" RangeMin="0.003163016373061052" RangeMax="0.16014339323979665">
          -0.11715432404233668 0.041507128866147464 0 -0.1009847959339838 0 0
          -0.01457118057585064 0.012824167589588778 0 -0.0010835638514356694 0 0
          0.007759853846523544 -0.003876340821835176 0 0.0034563817613345307 0 0
          -0.004797995459726983 -0.00035702849233407624 0 0.0032899089882789537 0 0
          -0.00015995942957586998 -0.004143272446801917 0 -0.004343225180305377 0 0
          -0.005908991402086997 0.0011687189878446412 0 0.0023508721450176294 0 0
          0.004952895951431646 -0.001927206289337503 0 -0.0019577266404794233 0 0
          -0.003588538616879321 0.003007775028369904 0 0.0014194062615406433 0 0
          0.0037515113060226737 -0.001284190390258463 0 -0.002251842476018011 0 0
          -0.003148935254823614 0.0024015516781473083 0 0.0014236382497517465 0 0
          0.003284750552125156 -0.0008842476656024554 0 -0.001913510374444453 0 0
          -0.0024154395319432847 0.0023118560885558525 0 0.0009862928571127475 0 0
          0.00267774076312424 -0.00043459829292070534 0 -0.0016264997096665933 0 0
          <InformationKey name="L2_NORM_RANGE" location="vtkDataArray" length="2">
            <Value index="0">
              0.0031630163731
            </Value>
            <Value index="1">
              0.16014339324
            </Value>
          </InformationKey>
        </DataArray>
        <DataArray type="Float64" Name="J2 Stresses" format="ascii" RangeMin="5356711563.512385" RangeMax="10913319351157.82">
          10913319351157.82 214460538630.83313 523689683606.90015 160667238748.51596 13638157190.0034 13577681306.364872
          28920735604.0805 13989799586.749903 11913892559.314487 8576638897.233519 10014061246.673943 5356711563.512385
          6573332849.521734
        </DataArray>
      </PointData>
      <CellData>
        <DataArray type="UInt8" Name="vtkGhostType" format="ascii" RangeMin="0" RangeMax="0">
          0 0 0 0 0 0
          0 0 0 0 0
        </DataArray>
        <DataArray type="Float64" Name="Gauss Stress" NumberOfComponents="6" format="ascii" RangeMin="39485.67432200958" RangeMax="1060456.8291125677">
          317958.6229599337 148443.2742556312 0 218586.26563551952 0 0
          -929435.4738121151 -90571.04850603378 0 -502508.97663986875 0 0
          -221348.47196140158 -72808.72957526239 0 -39823.39640106455 0 0
          162121.07328242573 -32735.53091742167 0 43346.79111758237 0 0
          -27382.076021110894 12139.844029394379 0 32868.74067477323 0 0
          26985.697436424693 -18120.07684674149 0 -25383.060613699192 0 0
          -54346.7862181712 7763.360081328867 0 10263.187269658418 0 0
          67130.34834991378 15165.291634429861 0 -24608.757211445536 0 0
          -36069.74887156363 11083.236339982912 0 11629.856630166298 0 0
          53583.09580139571 8620.773450215063 0 -17394.331924877722 0 0
          46140.712984731086 12929.489493126708 0 -17168.68413213765 0 0
          <InformationKey name="L2_NORM_RANGE" location="vtkDataArray" length="2">
            <Value index="0">
              39485.674322
            </Value>
            <Value index="1">
              1060456.8291
            </Value>
          </InformationKey>
        </DataArray>
        <DataArray type="Float64" Name="Gauss Strain" NumberOfComponents="6" format="ascii" RangeMin="0.003455429030258374" RangeMax="0.08718576926024896">
          0.017409784702294158 -0.0007525740874525424 0 0.023419957032377096 0 0
          -0.06315356782564989 0.02672476345714455 0 -0.05384024749712879 0 0
          -0.013210293369555029 0.0027046790289598846 0 -0.0042667924715426315 0 0
          0.012749202767224044 -0.008128290539902466 0 0.004644299048312395 0 0
          -0.0023894284311291487 0.0018450630028535588 0 0.0035216507865828456 0 0
          0.002574695418556818 -0.0022580661117824175 0 -0.002719613637182057 0 0
          -0.004159176161345401 0.00249548237074389 0 0.001099627207463402 0 0
          0.004253407323764205 -0.001314277324323358 0 -0.002636652558369165 0 0
          -0.0029722405029682223 0.002079865055411767 0 0.0012460560675178175 0 0
          0.003519479219734869 -0.0012979124607487705 0 -0.0018636784205226142 0 0
          0.0028339977312976956 -0.0007243476428027734 0 -0.0018395018713004627 0 0
          <InformationKey name="L2_NORM_RANGE" location="vtkDataArray" length="2">
            <Value index="0">
              0.0034554290303
            </Value>
            <Value index="1">
              0.08718576926
            </Value>
          </InformationKey>
        </DataArray>
      </CellData>
      <Points>
        <DataArray type="Float32" Name="Points" NumberOfComponents="3" format="ascii" RangeMin="0" RangeMax="0.6020797527609908">
          0 0.05000000074505806 0 0 0 0
          0.10000000149011612 0.05000000074505806 0 0.10000000149011612 0 0
          0.20000000298023224 0.05000000074505806 0 0.20000000298023224 0 0
          0.30000001192092896 0.05000000074505806 0 0.30000001192092896 0 0
          0.4000000059604645 0.05000000074505806 0 0.4000000059604645 0 0
          0.5 0.05000000074505806 0 0.5 0 0
          0.6000000238418579 0.05000000074505806 0
          <InformationKey name="L2_NORM_RANGE" location="vtkDataArray" length="2">
            <Value index="0">
              0
            </Value>
            <Value index="1">
              0.60207975276
            </Value>
          </InformationKey>
        </DataArray>
      </Points>
      <Cells>
        <DataArray type="Int64" Name="connectivity" format="ascii" RangeMin="0" RangeMax="12">
          3 2 1 2 0 1
          5 4 3 4 2 3
          7 6 5 6 4 5
          9 8 7 8 6 7
          11 10 9 10 8 9
          12 10 11
        </DataArray>
        <DataArray type="Int64" Name="offsets" format="ascii" RangeMin="3" RangeMax="33">
          3 6 9 12 15 18
          21 24 27 30 33
        </DataArray>
        <DataArray type="UInt8" Name="types" format="ascii" RangeMin="5" RangeMax="5">
          5 5 5 5 5 5
          5 5 5 5 5
        </DataArray>
      </Cells>
    </Piece>
  </UnstructuredGrid>
</VTKFile>
