<?xml version="1.0"?>
<VTKFile type="UnstructuredGrid" version="0.1" byte_order="LittleEndian" header_type="UInt32" compressor="vtkZLibDataCompressor">
  <UnstructuredGrid>
    <Piece NumberOfPoints="13" NumberOfCells="11">
      <PointData>
        <DataArray type="Float64" Name="Disp" NumberOfComponents="3" format="ascii" RangeMin="0" RangeMax="0.05592600216326464">
          0 0 0 0 0 0
          -0.0005799251897911429 0.001844399765786425 0 0.001067213944919649 0.0017879143619219003 0
          -0.0017386326681387927 0.007225035513799569 0 0.0019624335527699886 0.007148557472630301 0
          -0.0024835506027206552 0.016753354659750582 0 0.0030502338527259774 0.01687276366549877 0
          -0.002951695211412812 0.028781645530300146 0 0.0033914702728493162 0.028836460572038914 0
          -0.0031633610534874132 0.04208100329788239 0 0.003632733149938339 0.04212562661377421 0
          -0.003205883599274384 0.05583404005007505 0
          <InformationKey name="L2_NORM_RANGE" location="vtkDataArray" length="2">
            <Value index="0">
              0
            </Value>
            <Value index="1">
              0.055926002163
            </Value>
          </InformationKey>
        </DataArray>
        <DataArray type="Float64" Name="Nodal Stress" NumberOfComponents="6" format="ascii" RangeMin="11858.42631494639" RangeMax="1981654.1135490187">
          1718589.3333497958 321853.33410118055 0 932638.279489967 0 0
          109316.56668458339 -100533.79499459227 0 22876.757081587686 0 0
          -137180.36323641296 -34180.87934082047 0 -24863.78857532609 0 0
          49245.47109652974 6382.297911058892 0 -26640.01736613549 0 0
          16249.345583057246 34646.446058529014 0 40809.32827455344 0 0
          62361.934093794094 7505.141447777272 0 -13495.499436250682 0 0
          -60073.45409915567 -21454.97476828501 0 14803.688596282553 0 0
          21018.99535688998 -22004.05815130168 0 -2888.7186904981186 0 0
          -33346.14890110045 -15959.363617011846 0 13610.871322614608 0 0
          12202.148375369714 -13483.184780929014 0 -2203.8674787545697 0 0
          -21404.15768990864 -12903.152986901576 0 7478.471089300099 0 0
          3258.892244995734 -11375.110910393003 0 780.2229032640042 0 0
          -10697.242514558327 -8179.771418521112 0 3355.119678921327 0 0
          <InformationKey name="L2_NORM_RANGE" location="vtkDataArray" length="2">
            <Value index="0">
              11858.426315
            </Value>
            <Value index="1">
              1981654.1135
            </Value>
          </InformationKey>
        </DataArray>
        <DataArray type="Float64" Name="Nodal Strain" NumberOfComponents="6" format="ascii" RangeMin="0.0006267849545081136" RangeMax="0.15439543104119138">
          0.11126161902137183 -0.03838866661240837 0 0.09992552994535361 0 0
          0.011398818870134251 -0.01108514845263457 0 0.0024510811158843984 0 0
          -0.008577851683285908 0.0024578073055275705 0 -0.002663977347356367 0 0
          0.003289594438642879 -0.0013028884026575701 0 -0.002854287574943087 0 0
          -0.00007670553187194803 0.001894412376214315 0 0.00437242802941644 0 0
          0.004186383097850389 -0.0016911303999371265 0 -0.0014459463681697159 0 0
          -0.003524711908215227 0.0006129823058066302 0 0.0015861094924588448 0 0
          0.002287216030895773 -0.002322396844981905 0 -0.0003095055739819412 0 0
          -0.0018118905066138952 0.000050979345252741314 0 0.001458307641708708 0 0
          0.0013531243404167306 -0.001398875640615277 0 -0.00023612865843798962 0 0
          -0.001068041514032704 -0.00015721958156766108 0 0.0008012647595678677 0 0
          0.0006390319785851598 -0.0009288969309207764 0 0.00008359531106400047 0 0
          -0.0004719540575212694 -0.0002022250115172821 0 0.0003594771084558564 0 0
          <InformationKey name="L2_NORM_RANGE" location="vtkDataArray" length="2">
            <Value index="0">
              0.00062678495451
            </Value>
            <Value index="1">
              0.15439543104
            </Value>
          </InformationKey>
        </DataArray>
        <DataArray type="Float64" Name="Sld_traction" NumberOfComponents="3" format="ascii" RangeMin="9603.837169156799" RangeMax="226266.4285347766">
          34991.49963320523 -82574.39838907855 0 -225439.37890280617 -19328.298471416732 0
          155445.50257095674 71439.98752856266 0 11868.073967564587 -1947.3896412236172 0
          37604.28051980198 15322.459341610222 0 51831.71287728654 -8770.234409007278 0
          52682.81423827404 -18910.131428664543 0 24737.30588814091 18595.84081942602 0
          26706.779546005127 -16476.091212031202 0 13032.122716421794 14411.296087776609 0
          16066.655646902795 -12610.211931210892 0 4464.759603648939 11387.592738251642 0
          5646.80193019224 -7768.353514925468 0
          <InformationKey name="L2_NORM_RANGE" location="vtkDataArray" length="2">
            <Value index="0">
              9603.8371692
            </Value>
            <Value index="1">
              226266.42853
            </Value>
          </InformationKey>
        </DataArray>
        <DataArray type="Float64" Name="Velocity" NumberOfComponents="3" format="ascii" RangeMin="0" RangeMax="7.994582128003758">
          0 0 0 0 0 0
          -0.09918064205564861 0.31388429460972544 0 0.17716953416111159 0.30698333693975677 0
          -0.27810642551786147 1.195775069373831 0 0.3122400825967244 1.1875343493775108 0
          -0.3721852583679559 2.6768383863777263 0 0.46305882608287696 2.698058997737867 0
          -0.41343907246080147 4.438251060101825 0 0.4836784939309988 4.448640905586043 0
          -0.4080332012695196 6.2543415704580525 0 0.483439434641995 6.261191017587429 0
          -0.37721174912613864 7.985678098804026 0
          <InformationKey name="L2_NORM_RANGE" location="vtkDataArray" length="2">
            <Value index="0">
              0
            </Value>
            <Value index="1">
              7.994582128
            </Value>
          </InformationKey>
        </DataArray>
        <DataArray type="Float64" Name="Acceleration" NumberOfComponents="3" format="ascii" RangeMin="0" RangeMax="1414.3651845857446">
          0 0 0 0 0 0
          41.84783488040188 -130.29221010089475 0 -67.72349958720179 -130.93586875433675 0
          92.45073404538425 -452.5244123785501 0 -101.31121040054381 -455.3292712783382 0
          88.94906406034079 -884.7634317113343 0 -119.16897438417641 -894.8135889810837 0
          55.67813503923617 -1243.7133462705096 0 -78.51559432317322 -1249.5162159244082 0
          -1.4619973549745282 -1412.194780082722 0 -23.652851353377173 -1414.1673939074972 0
          -65.27539509812823 -1329.5988891273482 0
          <InformationKey name="L2_NORM_RANGE" location="vtkDataArray" length="2">
            <Value index="0">
              0
            </Value>
            <Value index="1">
              1414.3651846
            </Value>
          </InformationKey>
        </DataArray>
        <DataArray type="Float64" Name="Sigma" NumberOfComponents="6" format="ascii" RangeMin="24463.136001617328" RangeMax="4832903.953891619">
          4188120.459075238 939990.6432747998 0 2221041.4760585823 0 0
          -417204.2457365646 -355042.5858889718 0 -355489.1730418785 0 0
          -950170.1188450364 -103016.144086214 0 -356040.66111541766 0 0
          491135.36238798214 117507.69584699893 0 96010.59499246867 0 0
          73483.52454888281 97615.31193027784 0 135794.18382883002 0 0
          81967.63215311496 4642.369045336201 0 -99761.6507333839 0 0
          -187777.75781258804 -57051.39185659528 0 38489.60891890932 0 0
          82611.7527675512 -47806.82047177033 0 -7954.269322652293 0 0
          -81025.0117740084 -10605.570226711432 0 26344.265925177006 0 0
          38339.19717795456 -20392.35738321689 0 -16845.10730485243 0 0
          -52794.37622757617 -19095.712457301437 0 16374.004656413386 0 0
          13359.330509129393 -20292.977395248574 0 -2858.037756468746 0 0
          -24446.9444302123 -10278.58723197403 0 4559.649330586206 0 0
          <InformationKey name="L2_NORM_RANGE" location="vtkDataArray" length="2">
            <Value index="0">
              24463.136002
            </Value>
            <Value index="1">
              4832903.9539
            </Value>
          </InformationKey>
        </DataArray>
        <DataArray type="Float64" Name="Press" format="ascii" RangeMin="-36309.70630808419" RangeMax="24645.317479638914">
          -36309.70630808419 -29256.174493095197 -32633.633060427463 -16964.39694890166 -30057.215139051048 -10832.466408316743
          14403.537887990804 24645.317479638914 178.1007379153063 7653.4217981669935 4596.89710890319 7942.446200919942
          3040.0465270978134
        </DataArray>
        <DataArray type="Float64" Name="Dev strain" NumberOfComponents="6" format="ascii" RangeMin="0.0007900001717779293" RangeMax="0.1549705488905787">
          0.11246259420145838 -0.03718769143232184 0 0.09992552994535361 0 0
          0.012450453099376316 -0.010033514223392506 0 0.0024510811158843984 0 0
          -0.0075224651871737234 0.003513193801639754 0 -0.002663977347356367 0 0
          0.004085001340410079 -0.000507481500890371 0 -0.002854287574943087 0 0
          0.0006797442083696591 0.002650862116455921 0 0.00437242802941644 0 0
          0.004450136765770878 -0.0014273767320166389 0 -0.0014459463681697159 0 0
          -0.0037752113578266963 0.00036248285619516166 0 0.0015861094924588448 0 0
          0.0017697870501829874 -0.002839825825694691 0 -0.0003095055739819412 0 0
          -0.0020638741910781744 -0.0002010043392115374 0 0.001458307641708708 0 0
          0.0010910460958834035 -0.0016609538851486039 0 -0.00023612865843798962 0 0
          -0.0012525393292606983 -0.00034171739679565564 0 0.0008012647595678677 0 0
          0.0004184873968167086 -0.0011494415126892276 0 0.00008359531106400047 0 0
          -0.0006136648993470126 -0.00034393585334302544 0 0.0003594771084558564 0 0
          <InformationKey name="L2_NORM_RANGE" location="vtkDataArray" length="2">
            <Value index="0">
              0.00079000017178
            </Value>
            <Value index="1">
              0.15497054889
            </Value>
          </InformationKey>
        </DataArray>
        <DataArray type="Float64" Name="J2 Stresses" format="ascii" RangeMin="297180416.5624627" RangeMax="10445224004177.5">
          10445224004177.5 181650448265.1715 488409028436.06683 129815509973.32465 12074303842.12037 5858218894.833149
          19628036319.631523 4570914489.587863 3512270413.190063 1013810549.9754579 1642973204.8774605 297180416.5624627
          356848824.23407274
        </DataArray>
      </PointData>
      <CellData>
        <DataArray type="UInt8" Name="vtkGhostType" format="ascii" RangeMin="0" RangeMax="0">
          0 0 0 0 0 0
          0 0 0 0 0
        </DataArray>
        <DataArray type="Float64" Name="Gauss Stress" NumberOfComponents="6" format="ascii" RangeMin="14693.186176100719" RangeMax="1045526.7590563099">
          -318364.4022320142 -139801.74621020368 0 -205173.07972160913 0 0
          907515.5268773431 127910.79981266899 0 503170.5473004286 0 0
          196244.14686457012 53970.43277544783 0 44014.37602930493 0 0
          -155068.82568551716 10817.206180894209 0 -41411.960764706295 0 0
          1672.6720224637065 -23999.81810790548 0 -23075.43704570895 0 0
          -19604.248256655785 6240.0484865472445 0 24840.714004785157 0 0
          24134.259395739522 -15442.636021992477 0 514.9630992240932 0 0
          -48988.020237833414 -25412.27548317734 0 18959.868507144678 0 0
          6365.6388558326325 -13196.094042592256 0 -1109.713468302596 0 0
          -27683.923726214845 -12555.073474081422 0 8624.387758912655 0 0
          -16100.866770579378 -11362.629082534362 0 6025.205410176948 0 0
          <InformationKey name="L2_NORM_RANGE" location="vtkDataArray" length="2">
            <Value index="0">
              14693.186176
            </Value>
            <Value index="1">
              1045526.7591
            </Value>
          </InformationKey>
        </DataArray>
        <DataArray type="Float64" Name="Gauss Strain" NumberOfComponents="6" format="ascii" RangeMin="0.001013228031339785" RangeMax="0.08413504331832287">
          -0.01774739493763661 0.0013843182075573878 0 -0.021982829970172407 0 0
          0.06025429478364348 -0.02327478311614304 0 0.053911130067903074 0 0
          0.012089923605489016 -0.0031536886183455163 0 0.004715826003139812 0 0
          -0.011462673483997448 0.006310829930260914 0 -0.004436995796218533 0 0
          0.0009766129340297463 -0.0017740110085098099 0 -0.002472368254897388 0 0
          -0.001623162321423529 0.001145869472491081 0 0.0026615050719412665 0 0
          0.002275398386195412 -0.0019649832657044463 0 0.00005517461777400991 0 0
          -0.0025915630354460544 -0.00006559038316147447 0 0.0020314144829083583 0 0
          0.0009259775626520545 -0.0011699223907506125 0 -0.00011889787160384961 0 0
          -0.0015290276420838666 0.00009192059921614231 0 0.0009240415455977843 0 0
          -0.0007442537306651569 -0.00023658540694604835 0 0.0006455577225189588 0 0
          <InformationKey name="L2_NORM_RANGE" location="vtkDataArray" length="2">
            <Value index="0">
              0.0010132280313
            </Value>
            <Value index="1">
              0.084135043318
            </Value>
          </InformationKey>
        </DataArray>
      </CellData>
      <Points>
        <DataArray type="Float32" Name="Points" NumberOfComponents="3" format="ascii" RangeMin="0" RangeMax="0.6020797527609908">
          0 0.05000000074505806 0 0 0 0
          0.10000000149011612 0.05000000074505806 0 0.10000000149011612 0 0
          0.20000000298023224 0.05000000074505806 0 0.20000000298023224 0 0
          0.30000001192092896 0.05000000074505806 0 0.30000001192092896 0 0
          0.4000000059604645 0.05000000074505806 0 0.4000000059604645 0 0
          0.5 0.05000000074505806 0 0.5 0 0
          0.6000000238418579 0.05000000074505806 0
          <InformationKey name="L2_NORM_RANGE" location="vtkDataArray" length="2">
            <Value index="0">
              0
            </Value>
            <Value index="1">
              0.60207975276
            </Value>
          </InformationKey>
        </DataArray>
      </Points>
      <Cells>
        <DataArray type="Int64" Name="connectivity" format="ascii" RangeMin="0" RangeMax="12">
          3 2 1 2 0 1
          5 4 3 4 2 3
          7 6 5 6 4 5
          9 8 7 8 6 7
          11 10 9 10 8 9
          12 10 11
        </DataArray>
        <DataArray type="Int64" Name="offsets" format="ascii" RangeMin="3" RangeMax="33">
          3 6 9 12 15 18
          21 24 27 30 33
        </DataArray>
        <DataArray type="UInt8" Name="types" format="ascii" RangeMin="5" RangeMax="5">
          5 5 5 5 5 5
          5 5 5 5 5
        </DataArray>
      </Cells>
    </Piece>
  </UnstructuredGrid>
</VTKFile>
