<?xml version="1.0"?>
<VTKFile type="UnstructuredGrid" version="0.1" byte_order="LittleEndian" header_type="UInt32" compressor="vtkZLibDataCompressor">
  <UnstructuredGrid>
    <Piece NumberOfPoints="13" NumberOfCells="11">
      <PointData>
        <DataArray type="Float64" Name="Disp" NumberOfComponents="3" format="ascii" RangeMin="0.01868206364783747" RangeMax="0.13307239196673504">
          -0.0038476509306553754 -0.03164106543395208 0 0.004378732259158969 -0.04814447236435578 0
          -0.0046092443555592316 -0.04818590812606052 0 0.004969168332598326 -0.06742116571694828 0
          -0.005188241971904192 -0.06747463491702164 0 0.005321021001896168 -0.08858962971306489 0
          -0.005544280615264349 -0.08863696363242622 0 0.005460545302240927 -0.11071011085475434 0
          -0.005662475572207214 -0.11075618983056863 0 0.005436858454211755 -0.13295339639914955 0
          -0.005637861055011309 -0.13295290905607426 0 0.0036051080779586067 -0.03161274910276425 0
          -0.002949670857582252 -0.018447735470072748 0
          <InformationKey name="L2_NORM_RANGE" location="vtkDataArray" length="2">
            <Value index="0">
              0.018682063648
            </Value>
            <Value index="1">
              0.13307239197
            </Value>
          </InformationKey>
        </DataArray>
        <DataArray type="Float64" Name="Nodal Stress" NumberOfComponents="6" format="ascii" RangeMin="4275.7442563790755" RangeMax="44604.48087978526">
          -33213.76879858002 6042.288739050949 0 10681.010402518423 0 0
          39328.56622514041 8847.36366313511 0 -14582.984621155878 0 0
          -24519.938622952588 10057.067485676955 0 7691.171321696056 0 0
          33686.38003373871 12158.333613686447 0 -12787.484022177188 0 0
          -14868.502095429389 12565.040669470794 0 4076.0018347998957 0 0
          25518.14517299269 12831.389437722488 0 -9609.579565525315 0 0
          -6226.998910086864 12380.212376093295 0 918.358602421212 0 0
          16849.284602290238 11581.325616330765 0 -5492.263182013874 0 0
          -1117.721070845086 9399.6076681996 0 -890.4080557420465 0 0
          9177.865718402832 6345.283926225789 0 -1993.7893997080414 0 0
          -2000.3695908890681 3655.9396057943945 0 -956.3556057183323 0 0
          41829.29316685101 4364.106927670872 0 -14860.165491696775 0 0
          -39694.522192733086 896.6427242268622 0 13238.476120539159 0 0
          <InformationKey name="L2_NORM_RANGE" location="vtkDataArray" length="2">
            <Value index="0">
              4275.7442564
            </Value>
            <Value index="1">
              44604.48088
            </Value>
          </InformationKey>
        </DataArray>
        <DataArray type="Float64" Name="Nodal Strain" NumberOfComponents="6" format="ascii" RangeMin="0.0004425895680949751" RangeMax="0.003525480316728607">
          -0.002588208083436107 0.0016177980813100686 0 0.0011443939716984021 0 0
          0.002493206028112347 -0.0007726371035310781 0 -0.0015624626379809872 0 0
          -0.0021106051689850766 0.0015940740569395178 0 0.0008240540701817204 0 0
          0.001971943801921106 -0.00033463260022735015 0 -0.0013700875738046987 0 0
          -0.0015107873164403422 0.0014285208369418207 0 0.00043671448229998873 0 0
          0.0013644607467236747 0.000005165489373296154 0 -0.001029597810591998 0 0
          -0.0008869360784381078 0.001106693702224052 0 0.00009839556454512986 0 0
          0.0007899015567232041 0.00022547737965611782 0 -0.0005884567695014865 0 0
          -0.00041553749321034903 0.0007113191574015816 0 -0.00009540086311521927 0 0
          0.00042894455394928136 0.0001254536476445981 0 -0.00021362029282586154 0 0
          -0.0002734528138418761 0.0003325803143742092 0 -0.00010246667204124987 0 0
          0.0028319456930725414 -0.0011821814039824738 0 -0.001592160588396083 0 0
          -0.002867345968203323 0.0014817074157566716 0 0.0014184081557720527 0 0
          <InformationKey name="L2_NORM_RANGE" location="vtkDataArray" length="2">
            <Value index="0">
              0.00044258956809
            </Value>
            <Value index="1">
              0.0035254803167
            </Value>
          </InformationKey>
        </DataArray>
        <DataArray type="Float64" Name="Sld_traction" NumberOfComponents="3" format="ascii" RangeMin="3118.4942689585932" RangeMax="42155.31407844259">
          -36405.80325888727 -5214.409996245912 0 -38285.82459403904 9509.471856661501 0
          -29061.027311308197 -9376.520377210856 0 -31328.351806076334 12516.894308669094 0
          -19499.7807216994 -12144.93411228688 0 -21550.68118629803 12970.428423535255 0
          -9525.428869877842 -12174.114563966037 0 -10854.111191874625 11152.87175942787 0
          -1875.287192864257 -9534.773822077801 0 306.0994631226171 4045.2896308991044 0
          1168.5032024547072 -2891.298457679643 0 -41849.5377670753 5068.204192243875 0
          -40082.25596221468 -427.3978797181426 0
          <InformationKey name="L2_NORM_RANGE" location="vtkDataArray" length="2">
            <Value index="0">
              3118.494269
            </Value>
            <Value index="1">
              42155.314078
            </Value>
          </InformationKey>
        </DataArray>
        <DataArray type="Float64" Name="Velocity" NumberOfComponents="3" format="ascii" RangeMin="3.9428652061367866" RangeMax="14.008584259067213">
          0.4718757402222131 5.657083397026334 0 -0.4046618589556483 7.413695622484262 0
          0.4663928155913992 7.416943944022549 0 -0.3903812910177593 9.131369296864946 0
          0.4518866929312013 9.131592096495844 0 -0.3771677336135628 10.786923463669382 0
          0.4379709531214746 10.786007002585912 0 -0.3703116313282142 12.399287708974853 0
          0.4315580829621055 12.39742642782008 0 -0.3710563922429193 14.00195436227419 0
          0.4318964156744758 14.00192481159334 0 -0.40850783874994745 5.651147388946477 0
          0.4492597681161705 3.9171867066194697 0
          <InformationKey name="L2_NORM_RANGE" location="vtkDataArray" length="2">
            <Value index="0">
              3.9428652061
            </Value>
            <Value index="1">
              14.008584259
            </Value>
          </InformationKey>
        </DataArray>
        <DataArray type="Float64" Name="Acceleration" NumberOfComponents="3" format="ascii" RangeMin="358.45031089681004" RangeMax="2889.162726757526">
          22.20888918887249 -1304.3884512767836 0 -138.42261590698854 -981.4613197039143 0
          112.85979825714458 -979.9976708747272 0 -219.3801516754911 -307.97921295613924 0
          192.65589549362903 -302.2752575279155 0 -272.90435022739166 642.459899714464 0
          247.39144901841246 648.7425467604335 0 -296.0005302419495 1746.1628633721557 0
          267.60971799519484 1753.3424181550508 0 -292.5483182601947 2874.313264619588 0
          264.53261110516996 2874.3012505244697 0 -47.819226910634825 -1301.9636834813355 0
          -57.24384623113201 -1272.7265178950693 0
          <InformationKey name="L2_NORM_RANGE" location="vtkDataArray" length="2">
            <Value index="0">
              358.4503109
            </Value>
            <Value index="1">
              2889.1627268
            </Value>
          </InformationKey>
        </DataArray>
        <DataArray type="Float64" Name="Sigma" NumberOfComponents="6" format="ascii" RangeMin="4439.013086658261" RangeMax="124439.53956203099">
          -98676.53535574568 15571.882307527807 0 36518.76192851508 0 0
          106527.33294596335 7199.3182512394915 0 -38729.32671458429 0 0
          -76208.90478134967 19833.171690428328 0 29570.130841251066 0 0
          88087.33501263389 13492.887984507259 0 -31876.858130415018 0 0
          -49624.69203969714 22643.42821561689 0 19566.878574329836 0 0
          63576.346437437904 15514.092806110544 0 -21733.351600213635 0 0
          -24634.050433112094 20231.066060936 0 9161.039191625987 0 0
          38514.06492401878 14974.49141814295 0 -10493.822586518605 0 0
          -9409.1398030568 15622.230685908862 0 941.5378784332494 0 0
          21662.461854772635 7953.674723813794 0 -1416.0252049596957 0 0
          -2144.158088566166 3507.1686257973493 0 -1675.4675481734412 0 0
          116798.94380014822 1006.0599824515333 0 -42920.78257548206 0 0
          -113341.13426656346 6440.7707584302625 0 42789.64099801222 0 0
          <InformationKey name="L2_NORM_RANGE" location="vtkDataArray" length="2">
            <Value index="0">
              4439.0130867
            </Value>
            <Value index="1">
              124439.53956
            </Value>
          </InformationKey>
        </DataArray>
        <DataArray type="Float64" Name="Press" format="ascii" RangeMin="-10327.544730176085" RangeMax="4554.303014542519">
          -10118.159965886583 2397.09885569319 -10327.544730176085 -382.08826926302964 -9860.536135001945 -2452.3429220055805
          -7998.656669926748 -2509.720128595505 -4290.072946764577 -3957.2792095413215 -3859.5660409169377 4554.303014542519
          -6474.827107771927
        </DataArray>
        <DataArray type="Float64" Name="Dev strain" NumberOfComponents="6" format="ascii" RangeMin="0.0005033778070731021" RangeMax="0.0034904729350567526">
          -0.002398896988517071 0.0018071091762291043 0 0.0011443939716984021 0 0
          0.0025596840088048666 -0.000706159122838558 0 -0.0015624626379809872 0 0
          -0.0018787184329461337 0.0018259607929784608 0 0.0008240540701817204 0 0
          0.0020990983716004112 -0.00020747803054804468 0 -0.0013700875738046987 0 0
          -0.0012632924337241168 0.0016760157196580464 0 0.00043671448229998873 0 0
          0.0015231638763062623 0.00016386861895588374 0 -0.001029597810591998 0 0
          -0.0006724519260496283 0.0013211778546125318 0 0.00009839556454512986 0 0
          0.0009269414440342237 0.00036251726696713733 0 -0.0005884567695014865 0 0
          -0.00026514267455646565 0.000861713976055465 0 -0.00009540086311521927 0 0
          0.0005663487901153836 0.0002628578838107003 0 -0.00021362029282586154 0 0
          -0.00013089491885848523 0.0004751382093576001 0 -0.00010246667204124987 0 0
          0.002815017737108646 -0.0011991093599463684 0 -0.001592160588396083 0 0
          -0.00277218334330084 0.0015768700406591544 0 0.0014184081557720527 0 0
          <InformationKey name="L2_NORM_RANGE" location="vtkDataArray" length="2">
            <Value index="0">
              0.00050337780707
            </Value>
            <Value index="1">
              0.0034904729351
            </Value>
          </InformationKey>
        </DataArray>
        <DataArray type="Float64" Name="J2 Stresses" format="ascii" RangeMin="9150620.715516072" RangeMax="7282051108.982187">
          5323176067.404503 6074941610.872633 3319174093.1295915 4224751828.96188 1583383134.9809296 2259404093.9094944
          529047397.1191603 881314373.2211173 166514625.1127413 266762879.45612723 9150620.715516072 7282051108.982187
          6901586466.5816
        </DataArray>
      </PointData>
      <CellData>
        <DataArray type="UInt8" Name="vtkGhostType" format="ascii" RangeMin="0" RangeMax="1">
          1 1 0 0 0 0
          0 0 0 0 0
        </DataArray>
        <DataArray type="Float64" Name="Gauss Stress" NumberOfComponents="6" format="ascii" RangeMin="5087.00492143096" RangeMax="43741.343976598226">
          -35752.46996042565 3660.009663097871 0 12129.206783681751 0 0
          40494.32776490501 6870.167481855987 0 -15043.782453850421 0 0
          -28802.23767716717 8185.255469608715 0 9119.855351727285 0 0
          -19438.810314284663 11799.772918703804 0 5753.383761721961 0 0
          36697.74301116722 10737.614594143051 0 -13678.684667916084 0 0
          -10331.310587435206 12692.350451909719 0 2331.5220552473966 0 0
          29781.340694701375 12985.147226654713 0 -11347.777052099607 0 0
          -3442.525019145648 12009.779473233659 0 -130.41517215312342 0 0
          21498.54706927226 12586.310188220554 0 -7688.711665035419 0 0
          -665.9180780243892 4992.0519460990545 0 -716.6516248999627 0 0
          13336.771563611066 9264.4415143214 0 -3656.1033043483503 0 0
          <InformationKey name="L2_NORM_RANGE" location="vtkDataArray" length="2">
            <Value index="0">
              5087.0049214
            </Value>
            <Value index="1">
              43741.343977
            </Value>
          </InformationKey>
        </DataArray>
        <DataArray type="Float64" Name="Gauss Strain" NumberOfComponents="6" format="ascii" RangeMin="0.0004489739360218843" RangeMax="0.0033558257093409816">
          -0.0026844624851410422 0.001538303188807907 0 0.0012995578696801873 0 0
          0.0026470888588555038 -0.0009554997428997515 0 -0.0016118338343411166 0 0
          -0.0023496332437122516 0.0016133124505851644 0 0.0009771273591136379 0 0
          -0.0018099069124026118 0.0015370841482747239 0 0.0006164339744702104 0 0
          0.002237781122435407 -0.0005436612079600398 0 -0.0014655733572767234 0 0
          -0.0011912489866707189 0.00127557183897338 0 0.00024980593449079255 0 0
          0.0016634833629552877 -0.00013610879433542666 0 -0.0012158332555821008 0 0
          -0.00067481533969732 0.0009807887130576062 0 -0.000013973054159263144 0 0
          0.0010860994267972842 0.00013121690382745903 0 -0.0008237905355395091 0 0
          -0.0002258531465052798 0.0003803579275079465 0 -0.00007678410266785316 0 0
          0.0006217536290321695 0.00018543255232256195 0 -0.00039172535403732316 0 0
          <InformationKey name="L2_NORM_RANGE" location="vtkDataArray" length="2">
            <Value index="0">
              0.00044897393602
            </Value>
            <Value index="1">
              0.0033558257093
            </Value>
          </InformationKey>
        </DataArray>
      </CellData>
      <Points>
        <DataArray type="Float32" Name="Points" NumberOfComponents="3" format="ascii" RangeMin="0.4000000059604645" RangeMax="1.0012492197622458">
          0.5 0 0 0.6000000238418579 0.05000000074505806 0
          0.6000000238418579 0 0 0.699999988079071 0.05000000074505806 0
          0.699999988079071 0 0 0.800000011920929 0.05000000074505806 0
          0.800000011920929 0 0 0.8999999761581421 0.05000000074505806 0
          0.8999999761581421 0 0 1 0.05000000074505806 0
          1 0 0 0.5 0.05000000074505806 0
          0.4000000059604645 0 0
          <InformationKey name="L2_NORM_RANGE" location="vtkDataArray" length="2">
            <Value index="0">
              0.40000000596
            </Value>
            <Value index="1">
              1.0012492198
            </Value>
          </InformationKey>
        </DataArray>
      </Points>
      <Cells>
        <DataArray type="Int64" Name="connectivity" format="ascii" RangeMin="0" RangeMax="12">
          0 11 12 1 11 0
          2 1 0 4 3 2
          3 1 2 6 5 4
          5 3 4 8 7 6
          7 5 6 10 9 8
          9 7 8
        </DataArray>
        <DataArray type="Int64" Name="offsets" format="ascii" RangeMin="3" RangeMax="33">
          3 6 9 12 15 18
          21 24 27 30 33
        </DataArray>
        <DataArray type="UInt8" Name="types" format="ascii" RangeMin="5" RangeMax="5">
          5 5 5 5 5 5
          5 5 5 5 5
        </DataArray>
      </Cells>
    </Piece>
  </UnstructuredGrid>
</VTKFile>
