<?xml version="1.0"?>
<VTKFile type="UnstructuredGrid" version="0.1" byte_order="LittleEndian" header_type="UInt32" compressor="vtkZLibDataCompressor">
  <UnstructuredGrid>
    <Piece NumberOfPoints="13" NumberOfCells="11">
      <PointData>
        <DataArray type="Float64" Name="Disp" NumberOfComponents="3" format="ascii" RangeMin="0" RangeMax="0.07373058209248108">
          0 0 0 0 0 0
          -0.0006864272379699588 0.0021907224643175115 0 0.0012888876060476802 0.0021106933115796916 0
          -0.002149804624865147 0.008742844050998944 0 0.002434711781765868 0.008629151002791538 0
          -0.0031908481019059165 0.020730929046405923 0 0.0038908364662099387 0.02086830702635295 0
          -0.003931259608984441 0.036383298778789555 0 0.004475982602228531 0.036443105677369296 0
          -0.004382562477912382 0.054323190063006795 0 0.004961832292647646 0.05437954333042494 0
          -0.004617857302072528 0.07358582832063378 0
          <InformationKey name="L2_NORM_RANGE" location="vtkDataArray" length="2">
            <Value index="0">
              0
            </Value>
            <Value index="1">
              0.073730582092
            </Value>
          </InformationKey>
        </DataArray>
        <DataArray type="Float64" Name="Nodal Stress" NumberOfComponents="6" format="ascii" RangeMin="18381.884960058436" RangeMax="2427250.3869937565">
          2108320.798051463 381726.6742209766 0 1140531.7180390796 0 0
          135719.50215059434 -132563.5865423768 0 24500.443222664333 0 0
          -169153.38696941358 -41993.30368770309 0 -32312.163017243183 0 0
          64125.63957845978 12195.774734573408 0 -33589.653561680956 0 0
          19146.610579269483 46607.65615462535 0 49716.52171779516 0 0
          82639.44893121926 12704.310702275881 0 -18724.862548289777 0 0
          -76991.90664872051 -23027.716319537307 0 18986.590374014388 0 0
          33432.63318678116 -24030.372324276173 0 -6299.302481845474 0 0
          -46767.214634620046 -17619.703182811518 0 18585.258886694817 0 0
          23181.498220672474 -15160.782963789501 0 -5663.110626880757 0 0
          -33894.368041637186 -15362.183715288069 0 11903.386454519672 0 0
          11692.638468570958 -14077.32651416666 0 -1733.4297048503288 0 0
          -21420.423163863907 -11218.789218280606 0 7266.062620184977 0 0
          <InformationKey name="L2_NORM_RANGE" location="vtkDataArray" length="2">
            <Value index="0">
              18381.88496
            </Value>
            <Value index="1">
              2427250.387
            </Value>
          </InformationKey>
        </DataArray>
        <DataArray type="Float64" Name="Nodal Strain" NumberOfComponents="6" format="ascii" RangeMin="0.0013721678135446887" RangeMax="0.18973180021404554">
          0.1369612472100696 -0.04803098034319677 0 0.12219982693275853 0 0
          0.014428663958698767 -0.014315952686976713 0 0.0026250474881426076 0 0
          -0.010582623937540142 0.003041670699785977 0 -0.003462017466133197 0 0
          0.004144839443655219 -0.0014190746467611767 0 -0.003598891453037246 0 0
          -0.0002969441070030854 0.0026453107760707585 0 0.005326770184049482 0 0
          0.005449092398577239 -0.002043958125952411 0 -0.0020062352730310473 0 0
          -0.004677003463496562 0.0011048740717730674 0 0.0020342775400729704 0 0
          0.0032462728106370884 -0.0029104777798333397 0 -0.0006749252659120151 0 0
          -0.0027112402173724496 0.0004117074381784644 0 0.0019912777378601593 0 0
          0.0021972778358976593 -0.0019108237195804099 0 -0.0006067618528800812 0 0
          -0.0018723768702852252 0.00011321430753789435 0 0.001275362834412822 0 0
          0.0013379501232610206 -0.001423117553460867 0 -0.00018572461123396382 0 0
          -0.0011293591824802574 -0.000036326974024904024 0 0.0007785067093055332 0 0
          <InformationKey name="L2_NORM_RANGE" location="vtkDataArray" length="2">
            <Value index="0">
              0.0013721678135
            </Value>
            <Value index="1">
              0.18973180021
            </Value>
          </InformationKey>
        </DataArray>
        <DataArray type="Float64" Name="Sld_traction" NumberOfComponents="3" format="ascii" RangeMin="16995.816497469506" RangeMax="275383.7439163402">
          40453.9162545915 -107351.46755929278 0 -274940.4428587575 -15619.196330500561 0
          189286.8799275195 88886.58825938728 0 16136.143161752452 -5336.915052639138 0
          46853.24425632081 22330.768743446657 0 67900.79335841324 -14613.613857761487 0
          68748.55603079098 -19953.04931834641 0 37239.50973536286 19808.746610607053 0
          39432.30994758051 -18468.03194034793 0 24194.246391257493 16074.894793967154 0
          27987.121287593363 -15208.90176256047 0 13804.22377587758 13889.67860697492 0
          15571.637311046432 -10923.865206893908 0
          <InformationKey name="L2_NORM_RANGE" location="vtkDataArray" length="2">
            <Value index="0">
              16995.816497
            </Value>
            <Value index="1">
              275383.74392
            </Value>
          </InformationKey>
        </DataArray>
        <DataArray type="Float64" Name="Velocity" NumberOfComponents="3" format="ascii" RangeMin="0" RangeMax="4.011567174004568">
          0 0 0 0 0 0
          0.02230480119444156 -0.0648245418676674 0 -0.020127183112675473 -0.07343752766692235 0
          -0.008272070374013007 -0.1220473588379436 0 0.015884142553850955 -0.13804713593783902 0
          -0.10988042902488915 0.09169087051881597 0 0.1117585998934103 0.08389347853330875 0
          -0.24396061520713608 0.7853471251380384 0 0.2465384291445314 0.7791495507518214 0
          -0.39939397870870597 2.0686713764117464 0 0.4003993848694001 2.069901770780252 0
          -0.5481029971110598 3.9739469417833035 0
          <InformationKey name="L2_NORM_RANGE" location="vtkDataArray" length="2">
            <Value index="0">
              0
            </Value>
            <Value index="1">
              4.011567174
            </Value>
          </InformationKey>
        </DataArray>
        <DataArray type="Float64" Name="Acceleration" NumberOfComponents="3" format="ascii" RangeMin="0" RangeMax="1250.1725086023846">
          0 0 0 0 0 0
          34.68612189211922 -108.29931529097416 0 -56.69269175665272 -108.65825407316606 0
          78.06157993362103 -378.67603094479364 0 -85.98460630441969 -380.6376984062508 0
          77.68941746803966 -748.7279144844979 0 -103.63761624824383 -756.9589229243975 0
          53.38465001183931 -1069.9829583764113 0 -73.23651825430761 -1074.6368334721265 0
          10.006635048068347 -1248.14863241063 0 -31.820631561015944 -1249.7674778422734 0
          -38.71623335620461 -1234.9674627622662 0
          <InformationKey name="L2_NORM_RANGE" location="vtkDataArray" length="2">
            <Value index="0">
              0
            </Value>
            <Value index="1">
              1250.1725086
            </Value>
          </InformationKey>
        </DataArray>
        <DataArray type="Float64" Name="Sigma" NumberOfComponents="6" format="ascii" RangeMin="48394.406777279844" RangeMax="5924556.725545526">
          5139189.432867704 1133842.8252875502 0 2720938.22326998 0 0
          -507520.8090514227 -453291.22781687905 0 -441725.74260950316 0 0
          -1168971.0106071648 -118883.8720033462 0 -438023.8317741371 0 0
          612239.816765493 154229.11265606593 0 118015.95649762209 0 0
          86111.11585684521 124418.13694438039 0 166878.38339168686 0 0
          115536.1478564526 9424.093769127257 0 -127154.94235150017 0 0
          -241623.76159480697 -63774.9634260615 0 51629.76374531422 0 0
          122007.99750291156 -54842.27112359134 0 -16800.947242100723 0 0
          -117276.43419350685 -9181.31491566016 0 39093.89781180224 0 0
          70062.07260991792 -24168.162569611817 0 -29078.32709227412 0 0
          -86921.15728778313 -21409.52608984117 0 28588.504692959807 0 0
          38808.97938316619 -26280.216078273523 0 -12051.222736347743 0 0
          -53005.889776567805 -13145.72304393801 0 14474.81114191871 0 0
          <InformationKey name="L2_NORM_RANGE" location="vtkDataArray" length="2">
            <Value index="0">
              48394.406777
            </Value>
            <Value index="1">
              5924556.7255
            </Value>
          </InformationKey>
        </DataArray>
        <DataArray type="Float64" Name="Press" format="ascii" RangeMin="-45221.125098018834" RangeMax="29846.537610435254">
          -45221.125098018834 -36795.82324762549 -41365.78042730541 -22511.996065290496 -38721.697854981045 -14184.018751889857
          15223.471959795523 29846.537610435254 -2027.4542187536592 10058.541941356421 3987.9024516748195 11265.063340648268
          2787.5761556544076
        </DataArray>
        <DataArray type="Float64" Name="Dev strain" NumberOfComponents="6" format="ascii" RangeMin="0.0015319472864031237" RangeMax="0.19044799333389226">
          0.138466638762489 -0.04652558879077741 0 0.12219982693275853 0 0
          0.015757449561414935 -0.01298716708426054 0 0.0026250474881426076 0 0
          -0.009241096722829835 0.004383197914496285 0 -0.003462017466133197 0 0
          0.005175276273880913 -0.0003886378165354892 0 -0.003598891453037246 0 0
          0.0006907479323771445 0.003633002815450987 0 0.005326770184049482 0 0
          0.005820419847257494 -0.001672630677272157 0 -0.0020062352730310473 0 0
          -0.004920803217669566 0.0008610743176000634 0 0.0020342775400729704 0 0
          0.002647029404880655 -0.0035097211855897735 0 -0.0006749252659120151 0 0
          -0.0029697426227371275 0.0001532050328137866 0 0.0019912777378601593 0 0
          0.0018836357255849674 -0.0022244658298931014 0 -0.0006067618528800812 0 0
          -0.0020727779036511748 -0.00008718672582805521 0 0.001275362834412822 0 0
          0.0010474272866655156 -0.0017136403900563713 0 -0.00018572461123396382 0 0
          -0.0013026345101416483 -0.00020960230168629452 0 0.0007785067093055332 0 0
          <InformationKey name="L2_NORM_RANGE" location="vtkDataArray" length="2">
            <Value index="0">
              0.0015319472864
            </Value>
            <Value index="1">
              0.19044799333
            </Value>
          </InformationKey>
        </DataArray>
        <DataArray type="Float64" Name="J2 Stresses" format="ascii" RangeMin="1134701311.3021486" RangeMax="15699309993390.46">
          15699309993390.46 280305562338.9514 738279518631.7463 202794047708.8731 18409597248.26651 10760802343.54202
          31891052189.709045 9017381035.389948 7301112491.892142 2957784326.815619 4211153345.964408 1134701311.3021486
          1543597232.0753424
        </DataArray>
      </PointData>
      <CellData>
        <DataArray type="UInt8" Name="vtkGhostType" format="ascii" RangeMin="0" RangeMax="0">
          0 0 0 0 0 0
          0 0 0 0 0
        </DataArray>
        <DataArray type="Float64" Name="Gauss Stress" NumberOfComponents="6" format="ascii" RangeMin="22503.04929374965" RangeMax="1279457.058309944">
          -388308.53421110514 -172873.19563479352 0 -253911.20596200603 0 0
          1113104.9614787223 146094.998898125 0 613729.5496287796 0 0
          246156.45593554314 70884.54356580405 0 52579.79917926957 0 0
          -191073.1841108012 19054.63441650774 0 -51043.16396160934 0 0
          8935.45819429939 -26102.383320728222 0 -30775.375282762216 0 0
          -25886.247509528213 10795.007546790252 0 30451.068261833636 0 0
          37557.08708412021 -16771.3744252751 0 -2261.7921741908704 0 0
          -64616.547644641716 -28251.99803794529 0 24640.904771671918 0 0
          15753.800812993497 -15515.465668015666 0 -4180.348378554019 0 0
          -40705.509565698165 -14246.671133611857 0 12868.025137495983 0 0
          -27692.508577735756 -14264.974421358402 0 10337.364366176924 0 0
          <InformationKey name="L2_NORM_RANGE" location="vtkDataArray" length="2">
            <Value index="0">
              22503.049294
            </Value>
            <Value index="1">
              1279457.0583
            </Value>
          </InformationKey>
        </DataArray>
        <DataArray type="Float64" Name="Gauss Strain" NumberOfComponents="6" format="ascii" RangeMin="0.001839652924163542" RangeMax="0.10345285771789972">
          -0.02156228117097917 0.0015200765336256432 0 -0.027204772067357785 0 0
          0.07428981871640426 -0.029318391560088274 0 0.0657567374602264 0 0
          0.015051013153760081 -0.0037281203144262495 0 0.005633549912064597 0 0
          -0.01432860723707536 0.008185087605136306 0 -0.0054689104244581436 0 0
          0.001570474989618821 -0.0021835794584198504 0 -0.0032973616374388087 0 0
          -0.0022345536630659526 0.0016955808072538826 0 0.0032626144566250334 0 0
          0.0032816267354826975 -0.0025392798548096573 0 -0.00024233487580616465 0 0
          -0.0036064677589763647 0.0002897339845982557 0 0.0026400969398219913 0 0
          0.001679395260500095 -0.001670883291036601 0 -0.0004478944691307878 0 0
          -0.0023987267142065887 0.00043614883208837316 0 0.0013787169790174267 0 0
          -0.0014685729547897544 -0.000029908580892180426 0 0.001107574753518956 0 0
          <InformationKey name="L2_NORM_RANGE" location="vtkDataArray" length="2">
            <Value index="0">
              0.0018396529242
            </Value>
            <Value index="1">
              0.10345285772
            </Value>
          </InformationKey>
        </DataArray>
      </CellData>
      <Points>
        <DataArray type="Float32" Name="Points" NumberOfComponents="3" format="ascii" RangeMin="0" RangeMax="0.6020797527609908">
          0 0.05000000074505806 0 0 0 0
          0.10000000149011612 0.05000000074505806 0 0.10000000149011612 0 0
          0.20000000298023224 0.05000000074505806 0 0.20000000298023224 0 0
          0.30000001192092896 0.05000000074505806 0 0.30000001192092896 0 0
          0.4000000059604645 0.05000000074505806 0 0.4000000059604645 0 0
          0.5 0.05000000074505806 0 0.5 0 0
          0.6000000238418579 0.05000000074505806 0
          <InformationKey name="L2_NORM_RANGE" location="vtkDataArray" length="2">
            <Value index="0">
              0
            </Value>
            <Value index="1">
              0.60207975276
            </Value>
          </InformationKey>
        </DataArray>
      </Points>
      <Cells>
        <DataArray type="Int64" Name="connectivity" format="ascii" RangeMin="0" RangeMax="12">
          3 2 1 2 0 1
          5 4 3 4 2 3
          7 6 5 6 4 5
          9 8 7 8 6 7
          11 10 9 10 8 9
          12 10 11
        </DataArray>
        <DataArray type="Int64" Name="offsets" format="ascii" RangeMin="3" RangeMax="33">
          3 6 9 12 15 18
          21 24 27 30 33
        </DataArray>
        <DataArray type="UInt8" Name="types" format="ascii" RangeMin="5" RangeMax="5">
          5 5 5 5 5 5
          5 5 5 5 5
        </DataArray>
      </Cells>
    </Piece>
  </UnstructuredGrid>
</VTKFile>
