<?xml version="1.0"?>
<VTKFile type="UnstructuredGrid" version="0.1" byte_order="LittleEndian" header_type="UInt32" compressor="vtkZLibDataCompressor">
  <UnstructuredGrid>
    <Piece NumberOfPoints="13" NumberOfCells="11">
      <PointData>
        <DataArray type="Float64" Name="Disp" NumberOfComponents="3" format="ascii" RangeMin="0" RangeMax="0.06428231351419829">
          0 0 0 0 0 0
          0.0004098611213589166 -0.0013275936124707134 0 -0.0008379475162539356 -0.0012441093454229179 0
          0.0015312801228288173 -0.005731609472306305 0 -0.0017538581394729352 -0.005601186572731706 0
          0.002582342614471372 -0.014799484325140517 0 -0.003076668477101931 -0.014870869809052136 0
          0.0035255617070231275 -0.027953085733873204 0 -0.003912967184542134 -0.027975292197735695 0
          0.004333578890566268 -0.04457495381141295 0 -0.004739770337482532 -0.04461830918640314 0
          0.004968564256804066 -0.06409000858139816 0
          <InformationKey name="L2_NORM_RANGE" location="vtkDataArray" length="2">
            <Value index="0">
              0
            </Value>
            <Value index="1">
              0.064282313514
            </Value>
          </InformationKey>
        </DataArray>
        <DataArray type="Float64" Name="Nodal Stress" NumberOfComponents="6" format="ascii" RangeMin="30739.052135752034" RangeMax="1668915.1472642221">
          -1457819.466317585 -229686.59503736548 0 -779284.4413008725 0 0
          -97963.32329514982 115805.13102084358 0 -7662.428320117265 0 0
          119286.92594754948 29225.503216125027 0 27056.40533074503 0 0
          -53920.91199896378 -19798.540852147136 0 25590.95417755354 0 0
          -11129.503258802126 -42901.874666501324 0 -33478.91266638351 0 0
          -73007.93807565792 -17862.084736700195 0 18584.77997183255 0 0
          61864.95415267483 7398.76363286503 0 -15287.677453202814 0 0
          -42865.42128756261 8962.605163185157 0 11500.697954121366 0 0
          47607.71001316427 7165.47091330119 0 -17767.784686204275 0 0
          -37188.626356778834 6979.649472588032 0 11565.50957028708 0 0
          43278.22583211933 9494.718399612113 0 -15314.031296018322 0 0
          -27859.384325871 10133.320861955319 0 8127.720436663412 0 0
          36305.98921934557 10892.707847119584 0 -13170.132986828889 0 0
          <InformationKey name="L2_NORM_RANGE" location="vtkDataArray" length="2">
            <Value index="0">
              30739.052136
            </Value>
            <Value index="1">
              1668915.1473
            </Value>
          </InformationKey>
        </DataArray>
        <DataArray type="Float64" Name="Nodal Strain" NumberOfComponents="6" format="ascii" RangeMin="0.0026681193798900743" RangeMax="0.13207910185192542">
          -0.0959268691999216 0.035658795580101925 0 -0.08349476156795065 0 0
          -0.011133277771826548 0.011770485190601324 0 -0.0008209744628697069 0 0
          0.007476726738534783 -0.002172711411260694 0 0.002898900571151256 0 0
          -0.003144402969492159 0.0005115653676667682 0 0.002741887947595022 0 0
          0.0007372452910320381 -0.0026669373597928755 0 -0.0035870263571125193 0 0
          -0.004576921121950559 0.0013315631643663404 0 0.001991226425553487 0 0
          0.004154683738303024 -0.001680979531676599 0 -0.0016379654414145873 0 0
          -0.0033819088477967997 0.00217109398621189 0 0.001232217637941575 0 0
          0.003144641039750978 -0.0011884560066629248 0 -0.0019036912163790294 0 0
          -0.0029056036495052045 0.001826711617926961 0 0.0012391617396736159 0 0
          0.002752204759450948 -0.000867456751174825 0 -0.0016407890674305346 0 0
          -0.0023518603397749047 0.0017187866446350586 0 0.0008708271896425083 0 0
          0.0022042596639846985 -0.0005185919116109427 0 -0.001411085677160238 0 0
          <InformationKey name="L2_NORM_RANGE" location="vtkDataArray" length="2">
            <Value index="0">
              0.0026681193799
            </Value>
            <Value index="1">
              0.13207910185
            </Value>
          </InformationKey>
        </DataArray>
        <DataArray type="Float64" Name="Sld_traction" NumberOfComponents="3" format="ascii" RangeMin="19019.192325388416" RangeMax="186153.2823327227">
          -21560.069332712832 90062.59908558585 0 185865.7071126359 -10343.28007772327 0
          -127219.98686046402 -64693.48632636342 0 -15261.846960338122 11349.260067041008 0
          -34280.688215203016 -24623.049527827257 0 -58172.88382861828 20117.6587047583 0
          -58259.19100221433 5399.157402895026 0 -43642.15254079719 -5934.447273929756 0
          -44589.05284114004 8311.829528634204 0 -37976.85133051749 -7024.971975378269 0
          -40790.19468165133 9921.758298047494 0 -31036.14786554678 -9477.593051422451 0
          -33083.86317529345 11226.595347217819 0
          <InformationKey name="L2_NORM_RANGE" location="vtkDataArray" length="2">
            <Value index="0">
              19019.192325
            </Value>
            <Value index="1">
              186153.28233
            </Value>
          </InformationKey>
        </DataArray>
        <DataArray type="Float64" Name="Velocity" NumberOfComponents="3" format="ascii" RangeMin="0" RangeMax="8.591122985078272">
          0 0 0 0 0 0
          -0.15011304549525561 0.47103235115400843 0 0.25604205010447423 0.46654065873071415 0
          -0.3791520632503709 1.7213564153506047 0 0.4210063707681748 1.7195688588147968 0
          -0.448571402380473 3.637916896417387 0 0.571635126120555 3.6722015939692483 0
          -0.4237969768346086 5.652224209266283 0 0.517721826948105 5.670840083891743 0
          -0.3188722471173624 7.377321197548145 0 0.42074740530481103 7.386596636487891 0
          -0.1801126823041006 8.5892347485916 0
          <InformationKey name="L2_NORM_RANGE" location="vtkDataArray" length="2">
            <Value index="0">
              0
            </Value>
            <Value index="1">
              8.5911229851
            </Value>
          </InformationKey>
        </DataArray>
        <DataArray type="Float64" Name="Acceleration" NumberOfComponents="3" format="ascii" RangeMin="0" RangeMax="452.9019211258572">
          0 0 0 0 0 0
          20.157814387214103 -63.091031439008475 0 -31.64148077227128 -64.51846501321961 0
          38.17523880362478 -207.87946935143736 0 -42.41582654793956 -210.97615875960582 0
          25.266859426946667 -370.17346231807096 0 -40.058886228998745 -375.375667041164 0
          -3.3814938617633743 -449.6656621683651 0 -8.788146274184328 -452.81665014060127 0
          -43.788335377214935 -386.8261751711325 0 29.937300518156007 -387.50978380710876 0
          -85.57846726628122 -155.2899554856558 0
          <InformationKey name="L2_NORM_RANGE" location="vtkDataArray" length="2">
            <Value index="0">
              0
            </Value>
            <Value index="1">
              452.90192113
            </Value>
          </InformationKey>
        </DataArray>
        <DataArray type="Float64" Name="Sigma" NumberOfComponents="6" format="ascii" RangeMin="92531.42982173922" RangeMax="4085882.8913003695">
          -3557115.1424097386 -733626.0526550096 0 -1871674.0314291494 0 0
          339820.6034330049 359757.72856624523 0 320082.9573237703 0 0
          817011.7888018322 62627.96928001249 0 306127.3403310376 0 0
          -448618.25141161535 -132940.56812771855 0 -82211.90508894503 0 0
          -49026.94868691975 -98179.81092209858 0 -116155.2510577858 0 0
          -118756.61534761067 -16218.022908434863 0 100335.74479403872 0 0
          196365.48366012215 27965.46825447938 0 -47190.46539111234 0 0
          -137889.09271589073 28057.664714293507 0 29906.228884499746 0 0
          127499.49759584737 -3512.5337115548077 0 -44638.03339105079 0 0
          -107956.14159511635 14585.132219665436 0 41892.25491274549 0 0
          117490.53167941763 9679.803241184232 0 -41791.718091524686 0 0
          -84626.20778876403 21844.221336034596 0 30385.859447623243 0 0
          96116.51406833524 10567.420935890366 0 -32936.26233275842 0 0
          <InformationKey name="L2_NORM_RANGE" location="vtkDataArray" length="2">
            <Value index="0">
              92531.429822
            </Value>
            <Value index="1">
              4085882.8913
            </Value>
          </InformationKey>
        </DataArray>
        <DataArray type="Float64" Name="Press" format="ascii" RangeMin="-19615.489274796655" RangeMax="33081.056079971466">
          33081.056079971466 27846.748166420843 32111.166987935438 20030.43340294516 31607.344467164072 12158.524672616539
          -4153.035869652786 -19615.489274796655 7230.215044553035 -8687.652098255998 1508.0162138014966 -11726.485408899578
          494.16969945346176
        </DataArray>
        <DataArray type="Float64" Name="Dev strain" NumberOfComponents="6" format="ascii" RangeMin="0.002747124350738649" RangeMax="0.13260149909313618">
          -0.09705294087237071 0.03453272390765282 0 -0.08349476156795065 0 0
          -0.012154352843810792 0.010749410118617079 0 -0.0008209744628697069 0 0
          0.0064258048170660964 -0.003223633332729385 0 0.002898900571151256 0 0
          -0.004000429446179382 -0.00034446110902045673 0 0.002741887947595022 0 0
          -0.00010198123894531496 -0.00350616388977023 0 -0.0035870263571125193 0 0
          -0.004958691090280531 0.0009497931960363688 0 0.001991226425553487 0 0
          0.004157643812441595 -0.001678019457538028 0 -0.0016379654414145873 0 0
          -0.0030602787742116237 0.0024927240597970653 0 0.001232217637941575 0 0
          0.0031918732187231156 -0.0011412238276907868 0 -0.0019036912163790294 0 0
          -0.0027092005996346 0.0020231146677975654 0 0.0012391617396736159 0 0
          0.002823799381437543 -0.0007958621291882306 0 -0.0016407890674305346 0 0
          -0.0020992223502614947 0.0019714246341484692 0 0.0008708271896425083 0 0
          0.0023228229634678567 -0.0004000286121277846 0 -0.001411085677160238 0 0
          <InformationKey name="L2_NORM_RANGE" location="vtkDataArray" length="2">
            <Value index="0">
              0.0027471243507
            </Value>
            <Value index="1">
              0.13260149909
            </Value>
          </InformationKey>
        </DataArray>
        <DataArray type="Float64" Name="J2 Stresses" format="ascii" RangeMin="4050207638.835047" RangeMax="7471428580728.973">
          7471428580728.973 148065107782.6405 359143749913.1927 111155464411.45636 9394469072.19876 9699894398.783054
          20227470299.840443 10123912851.138632 8632368396.389288 6372367550.40358 7385498737.810508 4050207638.835047
          4946226675.05546
        </DataArray>
      </PointData>
      <CellData>
        <DataArray type="UInt8" Name="vtkGhostType" format="ascii" RangeMin="0" RangeMax="0">
          0 0 0 0 0 0
          0 0 0 0 0
        </DataArray>
        <DataArray type="Float64" Name="Gauss Stress" NumberOfComponents="6" format="ascii" RangeMin="34164.69593325286" RangeMax="877000.2921196073">
          262734.16312684095 123144.4927586135 0 181332.79752195423 0 0
          -769081.2596468575 -72733.79452480799 0 -415154.57792478043 0 0
          -184201.83763447328 -61180.69980517539 0 -32677.137117564016 0 0
          134371.84452044722 -28247.821637253324 0 35920.06139476889 0 0
          -23963.408291737403 9398.36986283504 0 27683.8360958087 0 0
          22731.584298573223 -15606.51076864207 0 -21003.323884953148 0 0
          -46472.887681219785 6019.112297968171 0 9053.483468731487 0 0
          56479.19281339413 11990.763052440558 0 -20640.75663255447 0 0
          -31332.64633260563 9067.678501176728 0 10162.132089614686 0 0
          45694.8222800824 6934.326969797799 0 -14845.832189943329 0 0
          39752.17948778142 10789.048672488192 0 -14780.706992219957 0 0
          <InformationKey name="L2_NORM_RANGE" location="vtkDataArray" length="2">
            <Value index="0">
              34164.695933
            </Value>
            <Value index="1">
              877000.29212
            </Value>
          </InformationKey>
        </DataArray>
        <DataArray type="Float64" Name="Gauss Strain" NumberOfComponents="6" format="ascii" RangeMin="0.002991977970188682" RangeMax="0.07220608323559312">
          0.014368708339109589 -0.0005873277717719253 0 0.019428514020209384 0 0
          -0.05233674017031813 0.022271916807044344 0 -0.0444808476347979 0 0
          -0.010972249123706118 0.002208587072290089 0 -0.003501121834024716 0 0
          0.010606839667076713 -0.006816695992676925 0 0.0038485780065823805 0 0
          -0.0020473280873682088 0.0015271481434788385 0 0.002966125295979504 0 0
          0.00218105997734959 -0.0019265930655663341 0 -0.002250356130530695 0 0
          -0.003534460273585992 0.0020896825813270046 0 0.0009700160859355165 0 0
          0.0036059865205124195 -0.0011606309538754653 0 -0.0022115096392022644 0 0
          -0.0025618918273709996 0.0017667144048199672 0 0.0010887998667444305 0 0
          0.003016261342513107 -0.0011366488693031 0 -0.0015906248774939285 0 0
          0.0024541182251098083 -0.0006490743622430363 0 -0.0015836471777378525 0 0
          <InformationKey name="L2_NORM_RANGE" location="vtkDataArray" length="2">
            <Value index="0">
              0.0029919779702
            </Value>
            <Value index="1">
              0.072206083236
            </Value>
          </InformationKey>
        </DataArray>
      </CellData>
      <Points>
        <DataArray type="Float32" Name="Points" NumberOfComponents="3" format="ascii" RangeMin="0" RangeMax="0.6020797527609908">
          0 0.05000000074505806 0 0 0 0
          0.10000000149011612 0.05000000074505806 0 0.10000000149011612 0 0
          0.20000000298023224 0.05000000074505806 0 0.20000000298023224 0 0
          0.30000001192092896 0.05000000074505806 0 0.30000001192092896 0 0
          0.4000000059604645 0.05000000074505806 0 0.4000000059604645 0 0
          0.5 0.05000000074505806 0 0.5 0 0
          0.6000000238418579 0.05000000074505806 0
          <InformationKey name="L2_NORM_RANGE" location="vtkDataArray" length="2">
            <Value index="0">
              0
            </Value>
            <Value index="1">
              0.60207975276
            </Value>
          </InformationKey>
        </DataArray>
      </Points>
      <Cells>
        <DataArray type="Int64" Name="connectivity" format="ascii" RangeMin="0" RangeMax="12">
          3 2 1 2 0 1
          5 4 3 4 2 3
          7 6 5 6 4 5
          9 8 7 8 6 7
          11 10 9 10 8 9
          12 10 11
        </DataArray>
        <DataArray type="Int64" Name="offsets" format="ascii" RangeMin="3" RangeMax="33">
          3 6 9 12 15 18
          21 24 27 30 33
        </DataArray>
        <DataArray type="UInt8" Name="types" format="ascii" RangeMin="5" RangeMax="5">
          5 5 5 5 5 5
          5 5 5 5 5
        </DataArray>
      </Cells>
    </Piece>
  </UnstructuredGrid>
</VTKFile>
