<?xml version="1.0"?>
<VTKFile type="UnstructuredGrid" version="0.1" byte_order="LittleEndian" header_type="UInt32" compressor="vtkZLibDataCompressor">
  <UnstructuredGrid>
    <Piece NumberOfPoints="13" NumberOfCells="11">
      <PointData>
        <DataArray type="Float64" Name="Disp" NumberOfComponents="3" format="ascii" RangeMin="0.01581755754809631" RangeMax="0.05894641995213183">
          -0.0019642306616264767 -0.022903757360331598 0 0.0017237860433179128 -0.030296448711545475 0
          -0.0019743269960230568 -0.030310921811966735 0 0.0016916265407699938 -0.037650101573522096 0
          -0.0019415295816584013 -0.03765331598577023 0 0.001653822740733993 -0.04483748348832525 0
          -0.0019016154603131157 -0.044835910191048906 0 0.0016323038445511847 -0.05189369827075146 0
          -0.0018813079761382768 -0.05188829813964394 0 0.0016342182749394805 -0.058916508080456655 0
          -0.0018816049295440423 -0.0589163813218548 0 0.0017077609981773964 -0.0228794659690009 0
          -0.0018400102625847241 -0.015710171514688228 0
          <InformationKey name="L2_NORM_RANGE" location="vtkDataArray" length="2">
            <Value index="0">
              0.015817557548
            </Value>
            <Value index="1">
              0.058946419952
            </Value>
          </InformationKey>
        </DataArray>
        <DataArray type="Float64" Name="Nodal Stress" NumberOfComponents="6" format="ascii" RangeMin="555.5994807193761" RangeMax="13971.81290466571">
          -1481.5861251998058 6202.726083564686 0 -531.4363005123529 0 0
          5510.743019904824 4415.310908159944 0 -1707.0299301015214 0 0
          431.27547809251377 3228.240069325902 0 -848.7227500296634 0 0
          1290.0439360150017 1845.4971883390833 0 -174.0675421640783 0 0
          952.9759053380635 1019.1481170773791 0 -745.9574956367007 0 0
          -766.3470314361897 -21.266477636262383 0 570.7844515248829 0 0
          494.54788539490806 -543.1789708849736 0 -345.5528244327212 0 0
          -1431.55670278493 -1040.4828749869828 0 597.5758787183505 0 0
          4.08745182815693 -1038.342872993335 0 22.554671797705076 0 0
          -1090.9479819519836 -833.4621632996866 0 272.0181773162186 0 0
          115.82675528727061 -534.3573809847784 0 98.67692294732076 0 0
          11382.179063018719 7061.306699361905 0 -3974.3557110440242 0 0
          -6342.644661776921 7415.993820963189 0 1085.9711818256947 0 0
          <InformationKey name="L2_NORM_RANGE" location="vtkDataArray" length="2">
            <Value index="0">
              555.59948072
            </Value>
            <Value index="1">
              13971.812905
            </Value>
          </InformationKey>
        </DataArray>
        <DataArray type="Float64" Name="Nodal Strain" NumberOfComponents="6" format="ascii" RangeMin="0.00005147747560967923" RangeMax="0.0010491983321602063">
          -0.0003273535119272963 0.0004959656532974707 0 -0.00005693960362632352 0 0
          0.0002359348261303466 0.00011856709987196669 0 -0.00018289606393944875 0 0
          -0.00008448889689788836 0.00021518588073426043 0 -0.00009093458036032109 0 0
          0.00002623538156039003 0.00008574823002368447 0 -0.000018650093803294108 0 0
          0.00003167156048566959 0.000038761440314881965 0 -0.00007992401738964652 0 0
          -0.000053979556615575604 0.000025850502720130886 0 0.0000611554769490946 0 0
          0.00005472409791695679 -0.00005646092239874484 0 -0.00003702351690350584 0 0
          -0.00006509394752081704 -0.00002319318025675128 0 0.00006402598700553755 0 0
          0.000037375634880344606 -0.00007431332849338669 0 0.0000024165719783255424 0 0
          -0.00004815835002158146 -0.000020570583737406785 0 0.000029144804712451996 0 0
          0.000027357531841404273 -0.00004230505418774384 0 0.00001057252745864151 0 0
          0.0005608232652384121 0.00009787265484661059 0 -0.0004258238261832882 0 0
          -0.0007179029694470368 0.0007562368679894035 0 0.00011635405519561016 0 0
          <InformationKey name="L2_NORM_RANGE" location="vtkDataArray" length="2">
            <Value index="0">
              5.147747561e-05
            </Value>
            <Value index="1">
              0.0010491983322
            </Value>
          </InformationKey>
        </DataArray>
        <DataArray type="Float64" Name="Sld_traction" NumberOfComponents="3" format="ascii" RangeMin="424.25121998740934" RangeMax="10900.05084536536">
          -2109.792510353916 -6217.764794914113 0 -2742.458594316644 4182.545304955323 0
          852.7768087492125 -3520.0245316223027 0 431.42126957668336 1672.235881230791 0
          1715.626600914133 -1222.1945988711893 0 1625.7065017173331 -148.3324855670197 0
          1323.9302423723975 377.69178267608993 0 1306.7456919999868 -1031.3497946047692 0
          416.9245754258836 980.5006213827722 0 33.81743790920079 -493.74565652814465 0
          -116.2188757949833 408.02238978977056 0 -8443.787054114602 6893.008676645979 0
          -6789.519502981449 -7932.555184786083 0
          <InformationKey name="L2_NORM_RANGE" location="vtkDataArray" length="2">
            <Value index="0">
              424.25121999
            </Value>
            <Value index="1">
              10900.050845
            </Value>
          </InformationKey>
        </DataArray>
        <DataArray type="Float64" Name="Velocity" NumberOfComponents="3" format="ascii" RangeMin="4.626720751641352" RangeMax="15.884676728495757">
          -0.5417940188034629 -6.6005497542521105 0 0.4540330892988871 -8.596403378519486 0
          -0.5287470131919926 -8.600111704326599 0 0.43124095793367984 -10.52071808996765 0
          -0.5059978569433325 -10.520596602936694 0 0.41175402572132047 -12.351970541577801 0
          -0.4857547229175774 -12.350462875065794 0 0.4019589682483073 -14.121351936141922 0
          -0.47679973975543066 -14.118658243391076 0 0.40307065854092156 -15.877530182852515 0
          -0.4774193067300846 -15.877500608545919 0 0.46545635958960646 -6.593443561050155 0
          -0.5215302437895883 -4.597232985011908 0
          <InformationKey name="L2_NORM_RANGE" location="vtkDataArray" length="2">
            <Value index="0">
              4.6267207516
            </Value>
            <Value index="1">
              15.884676728
            </Value>
          </InformationKey>
        </DataArray>
        <DataArray type="Float64" Name="Acceleration" NumberOfComponents="3" format="ascii" RangeMin="135.16700851782372" RangeMax="791.8694194498933">
          12.668322883011115 791.7680790832899 0 37.67688806365334 740.9583186614277 0
          -23.294163389642392 740.4056516521409 0 69.56352848413997 551.6067350804715 0
          -54.68622118589701 549.333333013813 0 90.42174659764919 253.78109288955875 0
          -75.95375648253378 251.3277816412883 0 99.34233520996838 -103.34743544493358 0
          -83.71500928184196 -106.12218152958667 0 98.00200047847261 -469.76730201419923 0
          -82.48958290895553 -469.7558271575472 0 1.725617844096746 790.687980344188 0
          43.72788665656924 701.8968674002367 0
          <InformationKey name="L2_NORM_RANGE" location="vtkDataArray" length="2">
            <Value index="0">
              135.16700852
            </Value>
            <Value index="1">
              791.86941945
            </Value>
          </InformationKey>
        </DataArray>
        <DataArray type="Float64" Name="Sigma" NumberOfComponents="6" format="ascii" RangeMin="628.1915630196528" RangeMax="31073.2347680506">
          -6417.121040370073 11022.777261206724 0 1223.4455431890542 0 0
          12440.899622451036 5585.615313268145 0 -2139.1846518309508 0 0
          172.00560514703025 5149.815456994116 0 -1099.0646890173005 0 0
          2029.0714845601879 2625.464373928708 0 704.2432669179087 0 0
          2862.5592430585352 1637.15976482862 0 -1943.8476396151277 0 0
          -2365.9619231476145 71.58333047879334 0 1910.739201619413 0 0
          2129.7507696386797 -769.4719579469815 0 -1419.3043580069866 0 0
          -3335.433676617841 -1366.8870305145253 0 1407.0389369084387 0 0
          977.0696368698194 -1667.100594204325 0 -322.5163825913089 0 0
          -2629.9949826637744 -1099.1482620150957 0 301.579202746752 0 0
          178.3528929559216 -565.3536243754436 0 207.82243581691992 0 0
          27949.94339967421 10504.654717616706 0 -8602.25622549397 0 0
          -20027.497170941537 11168.195655405276 0 8864.037578384581 0 0
          <InformationKey name="L2_NORM_RANGE" location="vtkDataArray" length="2">
            <Value index="0">
              628.19156302
            </Value>
            <Value index="1">
              31073.234768
            </Value>
          </InformationKey>
        </DataArray>
        <DataArray type="Float64" Name="Press" format="ascii" RangeMin="-4277.241532605638" RangeMax="487.1844188712448">
          -4277.241532605638 -1696.591171237691 -1840.145793531953 -1014.7913583328203 -501.2269575445426 -369.88424750805046
          249.2386585756455 59.42276963354657 345.9502883490508 439.20745493965364 487.1844188712448 -2576.15247160247
          -4153.419463787102
        </DataArray>
        <DataArray type="Float64" Name="Dev strain" NumberOfComponents="6" format="ascii" RangeMin="0.000060109860225354955" RangeMax="0.0010737712351846544">
          -0.00020770320913374513 0.0006156159560910219 0 -0.00005693960362632352 0 0
          0.0003133314496709318 0.00019596372341255187 0 -0.00018289606393944875 0 0
          -0.00002126833645002252 0.0002784064411821263 0 -0.00009093458036032109 0 0
          0.00006444362284281757 0.00012395647130611202 0 -0.000018650093803294108 0 0
          0.00005359900123538776 0.000060688881064600136 0 -0.00007992401738964652 0 0
          -0.00004303119152127391 0.000036798867814432595 0 0.0000611554769490946 0 0
          0.00005258352551663128 -0.000058601494799070345 0 -0.00003702351690350584 0 0
          -0.00006990417882760954 -0.000028003411563543766 0 0.00006402598700553755 0 0
          0.000026038178759250577 -0.00008565078461448074 0 0.0000024165719783255424 0 0
          -0.00006153039281158819 -0.00003394262652741352 0 0.000029144804712451996 0 0
          0.000011647473082197176 -0.000058015112946950925 0 0.00001057252745864151 0 0
          0.0006626169089772005 0.00019966629858539914 0 -0.0004258238261832882 0 0
          -0.0005744318709081406 0.0008997079665283 0 0.00011635405519561016 0 0
          <InformationKey name="L2_NORM_RANGE" location="vtkDataArray" length="2">
            <Value index="0">
              6.0109860225e-05
            </Value>
            <Value index="1">
              0.0010737712352
            </Value>
          </InformationKey>
        </DataArray>
        <DataArray type="Float64" Name="J2 Stresses" format="ascii" RangeMin="186514.77871731776" RangeMax="464273256.4329318">
          81714735.24775541 94131568.66551623 13577078.382309932 5629086.778861877 6381904.669306103 3714181.071644696
          3067568.932586062 6991688.62514672 1892948.9375046126 4085237.759246058 186514.77871731776 464273256.4329318
          282557409.1124958
        </DataArray>
      </PointData>
      <CellData>
        <DataArray type="UInt8" Name="vtkGhostType" format="ascii" RangeMin="0" RangeMax="1">
          1 1 0 0 0 0
          0 0 0 0 0
        </DataArray>
        <DataArray type="Float64" Name="Gauss Stress" NumberOfComponents="6" format="ascii" RangeMin="692.5296823520968" RangeMax="10962.288404260062">
          -3167.1627598775394 7229.604722077833 0 495.075632026555 0 0
          8474.578935436457 6187.687372215259 0 -3172.665111378622 0 0
          -539.3981033824302 4648.076511364567 0 -671.6012658863992 0 0
          569.1574077854796 2018.7584954473757 0 -779.5563539048401 0 0
          3363.4827963519288 2936.455607029501 0 -844.668691310114 0 0
          668.1585143575514 105.79953029449462 0 -484.1375986675672 0 0
          213.25541369523125 816.1016352835691 0 223.7116096407317 0 0
          141.999482149634 -1049.6159553691964 0 -111.59393456328559 0 0
          -1210.9558831418783 -708.6661590938575 0 632.8245935069551 0 0
          -67.41009689269464 -686.4201061449716 0 62.29508532412102 0 0
          -1381.2595031631813 -1096.1851246038982 0 462.03391902129397 0 0
          <InformationKey name="L2_NORM_RANGE" location="vtkDataArray" length="2">
            <Value index="0">
              692.52968235
            </Value>
            <Value index="1">
              10962.288404
            </Value>
          </InformationKey>
        </DataArray>
        <DataArray type="Float64" Name="Gauss Strain" NumberOfComponents="6" format="ascii" RangeMin="0.00005105189871842587" RangeMax="0.000796096262841871">
          -0.0004844260800654608 0.0006295132930011859 0 0.000053043817717130946 0 0
          0.0003843382320949162 0.00013931413603550223 0 -0.00033992840479056666 0 0
          -0.00020453116850462235 0.00035126968307541305 0 -0.00007195727848782849 0 0
          -0.000031444417138443435 0.00012386998511104545 0 -0.00008352389506123285 0 0
          0.00013537535663122702 0.00008962244348953838 0 -0.00009050021692608364 0 0
          0.000043947053515021724 -0.000016305694777448644 0 -0.00005187188557152506 0 0
          -0.000013913957424753797 0.00005067670917399669 0 0.00002396910103293553 0 0
          0.00004762910427387373 -0.00008004397831742956 0 -0.000011956492988923452 0 0
          -0.00006118734311392496 -0.000007370586965922744 0 0.00006780263501860232 0 0
          0.000019699996869985077 -0.0000466225041213303 0 0.0000066744734275844016 0 0
          -0.0000595119243472309 -0.000028968240930164834 0 0.00004950363418085291 0 0
          <InformationKey name="L2_NORM_RANGE" location="vtkDataArray" length="2">
            <Value index="0">
              5.1051898718e-05
            </Value>
            <Value index="1">
              0.00079609626284
            </Value>
          </InformationKey>
        </DataArray>
      </CellData>
      <Points>
        <DataArray type="Float32" Name="Points" NumberOfComponents="3" format="ascii" RangeMin="0.4000000059604645" RangeMax="1.0012492197622458">
          0.5 0 0 0.6000000238418579 0.05000000074505806 0
          0.6000000238418579 0 0 0.699999988079071 0.05000000074505806 0
          0.699999988079071 0 0 0.800000011920929 0.05000000074505806 0
          0.800000011920929 0 0 0.8999999761581421 0.05000000074505806 0
          0.8999999761581421 0 0 1 0.05000000074505806 0
          1 0 0 0.5 0.05000000074505806 0
          0.4000000059604645 0 0
          <InformationKey name="L2_NORM_RANGE" location="vtkDataArray" length="2">
            <Value index="0">
              0.40000000596
            </Value>
            <Value index="1">
              1.0012492198
            </Value>
          </InformationKey>
        </DataArray>
      </Points>
      <Cells>
        <DataArray type="Int64" Name="connectivity" format="ascii" RangeMin="0" RangeMax="12">
          0 11 12 1 11 0
          2 1 0 4 3 2
          3 1 2 6 5 4
          5 3 4 8 7 6
          7 5 6 10 9 8
          9 7 8
        </DataArray>
        <DataArray type="Int64" Name="offsets" format="ascii" RangeMin="3" RangeMax="33">
          3 6 9 12 15 18
          21 24 27 30 33
        </DataArray>
        <DataArray type="UInt8" Name="types" format="ascii" RangeMin="5" RangeMax="5">
          5 5 5 5 5 5
          5 5 5 5 5
        </DataArray>
      </Cells>
    </Piece>
  </UnstructuredGrid>
</VTKFile>
