<?xml version="1.0"?>
<VTKFile type="UnstructuredGrid" version="0.1" byte_order="LittleEndian" header_type="UInt32" compressor="vtkZLibDataCompressor">
  <UnstructuredGrid>
    <Piece NumberOfPoints="25" NumberOfCells="36">
      <PointData>
        <DataArray type="Float64" Name="nsi_BC" NumberOfComponents="3" format="ascii" RangeMin="0" RangeMax="17.5">
          0 0 0 0 0 0
          0 0 0 17.5 0 0
          0 0 0 0 0 0
          0 0 0 0 0 0
          17.5 0 0 0 0 0
          0 0 0 0 0 0
          0 0 0 0 0 0
          0 0 0 0 0 0
          0 0 0 0 0 0
          0 0 0 17.5 0 0
          0 0 0 0 0 0
          17.5 0 0 0 0 0
          0 0 0
          <InformationKey name="L2_NORM_RANGE" location="vtkDataArray" length="2">
            <Value index="0">
              0
            </Value>
            <Value index="1">
              17.5
            </Value>
          </InformationKey>
        </DataArray>
        <DataArray type="Float64" Name="nsi_FIXNO" NumberOfComponents="3" format="ascii" RangeMin="1.4142135623730951" RangeMax="1.4142135623730951">
          1 1 0 -1 -1 0
          1 1 0 1 1 0
          -1 -1 0 -1 -1 0
          -1 -1 0 1 1 0
          1 1 0 -1 -1 0
          -1 -1 0 -1 -1 0
          -1 -1 0 -1 -1 0
          -1 -1 0 -1 -1 0
          -1 -1 0 1 1 0
          1 1 0 1 1 0
          1 1 0 -1 -1 0
          1 1 0 1 1 0
          1 1 0
          <InformationKey name="L2_NORM_RANGE" location="vtkDataArray" length="2">
            <Value index="0">
              1.4142135624
            </Value>
            <Value index="1">
              1.4142135624
            </Value>
          </InformationKey>
        </DataArray>
      </PointData>
      <CellData>
        <DataArray type="UInt8" Name="vtkGhostType" format="ascii" RangeMin="0" RangeMax="0">
          0 0 0 0 0 0
          0 0 0 0 0 0
          0 0 0 0 0 0
          0 0 0 0 0 0
          0 0 0 0 0 0
          0 0 0 0 0 0
        </DataArray>
      </CellData>
      <Points>
        <DataArray type="Float32" Name="Points" NumberOfComponents="3" format="ascii" RangeMin="0" RangeMax="1.4142135623730951">
          0 1 0 0.16666670143604279 0.8333333134651184 0
          0 0.6666666865348816 0 0.3333333134651184 1 0
          0.3333333134651184 0.6666666865348816 0 0.16666670143604279 0.5 0
          0.5 0.8333333134651184 0 0 0.3333333134651184 0
          0.6666666865348816 1 0 0.5 0.5 0
          0.3333333134651184 0.3333333134651184 0 0.6666666865348816 0.6666666865348816 0
          0.16666670143604279 0.16666670143604279 0 0.8333333134651184 0.8333333134651184 0
          0.6666666865348816 0.3333333134651184 0 0.5 0.16666670143604279 0
          0.8333333134651184 0.5 0 0 0 0
          1 1 0 0.3333333134651184 0 0
          1 0.6666666865348816 0 0.8333333134651184 0.16666670143604279 0
          0.6666666865348816 0 0 1 0.3333333134651184 0
          1 0 0
          <InformationKey name="L2_NORM_RANGE" location="vtkDataArray" length="2">
            <Value index="0">
              0
            </Value>
            <Value index="1">
              1.4142135624
            </Value>
          </InformationKey>
        </DataArray>
      </Points>
      <Cells>
        <DataArray type="Int64" Name="connectivity" format="ascii" RangeMin="0" RangeMax="24">
          19 12 17 10 12 19
          7 12 10 17 12 7
          22 15 19 14 15 22
          10 15 14 19 15 10
          24 21 22 23 21 24
          14 21 23 22 21 14
          10 5 7 4 5 10
          2 5 4 7 5 2
          14 9 10 11 9 14
          4 9 11 10 9 4
          23 16 14 20 16 23
          11 16 20 14 16 11
          4 1 2 3 1 4
          0 1 3 2 1 0
          11 6 4 8 6 11
          3 6 8 4 6 3
          20 13 11 18 13 20
          8 13 18 11 13 8
        </DataArray>
        <DataArray type="Int64" Name="offsets" format="ascii" RangeMin="3" RangeMax="108">
          3 6 9 12 15 18
          21 24 27 30 33 36
          39 42 45 48 51 54
          57 60 63 66 69 72
          75 78 81 84 87 90
          93 96 99 102 105 108
        </DataArray>
        <DataArray type="UInt8" Name="types" format="ascii" RangeMin="5" RangeMax="5">
          5 5 5 5 5 5
          5 5 5 5 5 5
          5 5 5 5 5 5
          5 5 5 5 5 5
          5 5 5 5 5 5
          5 5 5 5 5 5
        </DataArray>
      </Cells>
    </Piece>
  </UnstructuredGrid>
</VTKFile>
