<?xml version="1.0"?>
<VTKFile type="UnstructuredGrid" version="0.1" byte_order="LittleEndian" header_type="UInt32" compressor="vtkZLibDataCompressor">
  <UnstructuredGrid>
    <Piece NumberOfPoints="44" NumberOfCells="60">
      <PointData>
        <DataArray type="Float64" Name="Density" format="ascii" RangeMin="0.9941483681603541" RangeMax="1.7">
          1.7 1.5462075632420222 1.7 1.537799396665216 1.143086551932274 1.1528235833094336
          1.7 1.5272545355842648 1.0075520944132617 1.146291114877005 1.0506263204574768 1.7
          1.5268226009959642 1.0354299168326155 1.147718249467132 1.0377628038712203 1.7 1.52557162296445
          1.147267631509829 1.0373432083232406 1.7 1.5218104984573442 1.1449722565496803 1.0364584982346967
          1.7 1.5102535165594582 1.1374324871968495 1.0334665823928135 1.7 1.4794127762713072
          1.1181687694503126 1.025300650930108 1.7 1.4065493505367117 1.0804142221922866 1.0097310843586167
          1.7 1.2560319085974057 1.0290401787612264 0.9941483681603541 1 1
          1 1
        </DataArray>
        <DataArray type="Float64" Name="Momentum" NumberOfComponents="3" format="ascii" RangeMin="2.882523694629681" RangeMax="4.535233026008696">
          4.4528099999999995 -0.86071 0 4.346255765404028 -0.4973671518581817 0
          4.4528099999999995 -0.86071 0 4.3232320681921985 -0.4888231695309912 0
          3.3097531459202236 -0.10976261933282153 0 3.336861753092166 -0.12202771586582929 0
          4.4528099999999995 -0.86071 0 4.2910845362909225 -0.479409350199058 0
          2.913799669024864 0.014625801501891723 0 3.3168043793391297 -0.11589108685962149 0
          3.049377461010693 0 0 4.4528099999999995 -0.86071 0
          4.289427733276792 -0.47921971424054083 0 3.0025567357423206 0 0
          3.321292079517019 -0.11717710597393732 0 3.0095534661483527 0 0
          4.4528099999999995 -0.86071 0 4.28514780792439 -0.47827890040482196 0
          3.3197950427823586 -0.11689339782591122 0 3.008199482977916 0 0
          4.4528099999999995 -0.86071 0 4.2725356175907985 -0.47500679020042186 0
          3.312321004007104 -0.11522602201349232 0 3.0053583581158394 0 0
          4.4528099999999995 -0.86071 0 4.23523988811069 -0.4636787837029325 0
          3.2884270769989152 -0.10937646220294817 0 2.9959755772253045 0 0
          4.4528099999999995 -0.86071 0 4.1414287274712045 -0.43092871210193684 0
          3.229832881581077 -0.09332882843594151 0 2.971157183980482 0 0
          4.4528099999999995 -0.86071 0 3.935886789909285 -0.3537173374056376 0
          3.1208251027669607 -0.06048428434003798 0 2.925698851217343 0 0
          4.4528099999999995 -0.86071 0 3.5409555517009266 -0.20934485749227738 0
          2.9799399666771937 -0.01716676263174564 0 2.882523694629681 0 0
          2.9 0 0 2.9 0 0
          2.9 0 0 2.9 0 0
          <InformationKey name="L2_NORM_RANGE" location="vtkDataArray" length="2">
            <Value index="0">
              2.8825236946
            </Value>
            <Value index="1">
              4.535233026
            </Value>
          </InformationKey>
        </DataArray>
        <DataArray type="Float64" Name="Energy" format="ascii" RangeMin="4.88905636753061" RangeMax="7.614762764024619">
          7.585636452999999 7.614762764024619 7.585636452999999 7.573981940673234 5.679111731716856 5.734898081676661
          7.585636452999999 7.510430546292536 4.934631575065279 5.695080486220722 5.199420207383177 7.585636452999999
          7.5069770626423455 5.10805716312514 5.704008363664696 5.121361283207088 7.585636452999999 7.498070171981103
          5.700969229195438 5.118733964209984 7.585636452999999 7.471812228948616 5.6859449360419125 5.113221477231166
          7.585636452999999 7.395019292142441 5.638400374941446 5.095238360468161 7.585636452999999 7.206047268952437
          5.523859920527235 5.048471842906959 7.585636452999999 6.806371688862927 5.316708140746325 4.964979308197446
          7.585636452999999 6.071069102239521 5.059738397709276 4.88905636753061 4.923 4.923
          4.923 4.923
        </DataArray>
      </PointData>
      <CellData>
        <DataArray type="UInt8" Name="vtkGhostType" format="ascii" RangeMin="0" RangeMax="0">
          0 0 0 0 0 0
          0 0 0 0 0 0
          0 0 0 0 0 0
          0 0 0 0 0 0
          0 0 0 0 0 0
          0 0 0 0 0 0
          0 0 0 0 0 0
          0 0 0 0 0 0
          0 0 0 0 0 0
          0 0 0 0 0 0
        </DataArray>
      </CellData>
      <Points>
        <DataArray type="Float32" Name="Points" NumberOfComponents="3" format="ascii" RangeMin="0" RangeMax="4.2201894765504395">
          4.099999904632568 1 0 4.099999904632568 0.6666666865348816 0
          3.690000057220459 1 0 3.690000057220459 0.6666666865348816 0
          4.099999904632568 0.3333333134651184 0 3.690000057220459 0.3333333134651184 0
          3.2799999713897705 1 0 3.2799999713897705 0.6666666865348816 0
          4.099999904632568 0 0 3.2799999713897705 0.3333333134651184 0
          3.690000057220459 0 0 2.869999885559082 1 0
          2.869999885559082 0.6666666865348816 0 3.2799999713897705 0 0
          2.869999885559082 0.3333333134651184 0 2.869999885559082 0 0
          2.4600000381469727 1 0 2.4600000381469727 0.6666666865348816 0
          2.4600000381469727 0.3333333134651184 0 2.4600000381469727 0 0
          2.049999952316284 1 0 2.049999952316284 0.6666666865348816 0
          2.049999952316284 0.3333333134651184 0 2.049999952316284 0 0
          1.6399999856948853 1 0 1.6399999856948853 0.6666666865348816 0
          1.6399999856948853 0.3333333134651184 0 1.6399999856948853 0 0
          1.2300000190734863 1 0 1.2300000190734863 0.6666666865348816 0
          1.2300000190734863 0.3333333134651184 0 1.2300000190734863 0 0
          0.8199999928474426 1 0 0.8199999928474426 0.6666666865348816 0
          0.8199999928474426 0.3333333134651184 0 0.8199999928474426 0 0
          0.4099999964237213 1 0 0.4099999964237213 0.6666666865348816 0
          0.4099999964237213 0.3333333134651184 0 0.4099999964237213 0 0
          0 1 0 0 0.6666666865348816 0
          0 0.3333333134651184 0 0 0 0
          <InformationKey name="L2_NORM_RANGE" location="vtkDataArray" length="2">
            <Value index="0">
              0
            </Value>
            <Value index="1">
              4.2201894766
            </Value>
          </InformationKey>
        </DataArray>
      </Points>
      <Cells>
        <DataArray type="Int64" Name="connectivity" format="ascii" RangeMin="0" RangeMax="43">
          39 38 43 38 42 43
          35 34 39 34 38 39
          31 30 35 30 34 35
          27 26 31 26 30 31
          23 22 27 22 26 27
          19 18 23 18 22 23
          15 14 19 14 18 19
          13 9 15 9 14 15
          10 5 13 5 9 13
          8 4 10 4 5 10
          38 37 42 37 41 42
          34 33 38 33 37 38
          30 29 34 29 33 34
          26 25 30 25 29 30
          22 21 26 21 25 26
          18 17 22 17 21 22
          14 12 18 12 17 18
          9 7 14 7 12 14
          5 3 9 3 7 9
          4 1 5 1 3 5
          37 36 41 36 40 41
          33 32 37 32 36 37
          29 28 33 28 32 33
          25 24 29 24 28 29
          21 20 25 20 24 25
          17 16 21 16 20 21
          12 11 17 11 16 17
          7 6 12 6 11 12
          3 2 7 2 6 7
          1 0 3 0 2 3
        </DataArray>
        <DataArray type="Int64" Name="offsets" format="ascii" RangeMin="3" RangeMax="180">
          3 6 9 12 15 18
          21 24 27 30 33 36
          39 42 45 48 51 54
          57 60 63 66 69 72
          75 78 81 84 87 90
          93 96 99 102 105 108
          111 114 117 120 123 126
          129 132 135 138 141 144
          147 150 153 156 159 162
          165 168 171 174 177 180
        </DataArray>
        <DataArray type="UInt8" Name="types" format="ascii" RangeMin="5" RangeMax="5">
          5 5 5 5 5 5
          5 5 5 5 5 5
          5 5 5 5 5 5
          5 5 5 5 5 5
          5 5 5 5 5 5
          5 5 5 5 5 5
          5 5 5 5 5 5
          5 5 5 5 5 5
          5 5 5 5 5 5
          5 5 5 5 5 5
        </DataArray>
      </Cells>
    </Piece>
  </UnstructuredGrid>
</VTKFile>
