<?xml version="1.0"?>
<VTKFile type="UnstructuredGrid" version="0.1" byte_order="LittleEndian" header_type="UInt32" compressor="vtkZLibDataCompressor">
  <UnstructuredGrid>
    <Piece NumberOfPoints="44" NumberOfCells="60">
      <PointData>
        <DataArray type="Float64" Name="Density" format="ascii" RangeMin="0.9912547967563169" RangeMax="1.7">
          1.7 1.3470574274791884 1.7 1.3506019957378006 1.0388521775706634 1.0535514743442738
          1.7 1.3411593769953605 0.9912547967563169 1.0493703570708595 1.0106676165619923 1.7
          1.3411898196078424 1.0048550603372939 1.0502211741369083 1.00537879705137 1.7 1.3410263136713236
          1.050313796356051 1.0053377813972582 1.7 1.3407567034474335 1.0502747516858628 1.0053070683218925
          1.7 1.339108522941071 1.049867763752388 1.0052549207108035 1.7 1.3312777455371412
          1.0476517939514607 1.004906340778788 1.7 1.3016079171875894 1.0392713345327902 1.0033544026252819
          1.7 1.2112672663555673 1.0190850231866748 0.9997907059634612 1 1
          1 1
        </DataArray>
        <DataArray type="Float64" Name="Momentum" NumberOfComponents="3" format="ascii" RangeMin="2.871426736844307" RangeMax="4.535233026008696">
          4.4528099999999995 -0.86071 0 3.8295673651268864 -0.3059492505708806 0
          4.4528099999999995 -0.86071 0 3.8371546385225823 -0.3113038723620506 0
          3.0124540127867965 -0.025923344885091164 0 3.0544260292497336 -0.04013269620214802 0
          4.4528099999999995 -0.86071 0 3.8077866643695297 -0.3037373306498491 0
          2.8714123457430714 0.009090972369201828 0 3.0414992817034854 -0.036500735972871845 0
          2.93203361106202 0 0 4.4528099999999995 -0.86071 0
          3.8078188439856637 -0.30383208330548495 0 2.9140329012840334 0 0
          3.0442967946476225 -0.03707350093034513 0 2.9156234811892525 0 0
          4.4528099999999995 -0.86071 0 3.807263443227084 -0.3037345814322341 0
          3.044596721451204 -0.03714246019876487 0 2.9154929936392686 0 0
          4.4528099999999995 -0.86071 0 3.8063490034523237 -0.30353086213442704 0
          3.044471519766443 -0.03711254800752709 0 2.915390833363046 0 0
          4.4528099999999995 -0.86071 0 3.8008880752808114 -0.30213303172665007 0
          3.0431555822164973 -0.03682601430520591 0 2.9152261214040096 0 0
          4.4528099999999995 -0.86071 0 3.7759966199458446 -0.29470980605089575 0
          3.036176600445149 -0.03516189008588149 0 2.9141453920482148 0 0
          4.4528099999999995 -0.86071 0 3.687656686640056 -0.26481720165358696 0
          3.010838056971701 -0.028498323094385353 0 2.9094560343515483 0 0
          4.4528099999999995 -0.86071 0 3.4397430710533996 -0.17717087280446547 0
          2.9529356688740886 -0.012341438802370975 0 2.899101820976899 0 0
          2.9 0 0 2.9 0 0
          2.9 0 0 2.9 0 0
          <InformationKey name="L2_NORM_RANGE" location="vtkDataArray" length="2">
            <Value index="0">
              2.8714267368
            </Value>
            <Value index="1">
              4.535233026
            </Value>
          </InformationKey>
        </DataArray>
        <DataArray type="Float64" Name="Energy" format="ascii" RangeMin="4.86616561404249" RangeMax="7.585636452999999">
          7.585636452999999 6.649025198450061 7.585636452999999 6.666811992247883 5.124821118614091 5.207468600091896
          7.585636452999999 6.609154336420356 4.86616561404249 5.181684541734037 4.983545841063194 7.585636452999999
          6.609217420996519 4.948150036926524 5.187226164707784 4.951144282089683 7.585636452999999 6.608095055879658
          5.187812890963043 4.950908144487516 7.585636452999999 6.606204386186699 5.187565898048929 4.950707435735953
          7.585636452999999 6.594970293440222 5.184969481996124 4.950395446451734 7.585636452999999 6.544409481141018
          5.171333590574629 4.948364413303977 7.585636452999999 6.369598699819098 5.122743907229209 4.939658732022642
          7.585636452999999 5.89910457780624 5.015290303567931 4.920869208925077 4.923 4.923
          4.923 4.923
        </DataArray>
      </PointData>
      <CellData>
        <DataArray type="UInt8" Name="vtkGhostType" format="ascii" RangeMin="0" RangeMax="0">
          0 0 0 0 0 0
          0 0 0 0 0 0
          0 0 0 0 0 0
          0 0 0 0 0 0
          0 0 0 0 0 0
          0 0 0 0 0 0
          0 0 0 0 0 0
          0 0 0 0 0 0
          0 0 0 0 0 0
          0 0 0 0 0 0
        </DataArray>
      </CellData>
      <Points>
        <DataArray type="Float32" Name="Points" NumberOfComponents="3" format="ascii" RangeMin="0" RangeMax="4.2201894765504395">
          4.099999904632568 1 0 4.099999904632568 0.6666666865348816 0
          3.690000057220459 1 0 3.690000057220459 0.6666666865348816 0
          4.099999904632568 0.3333333134651184 0 3.690000057220459 0.3333333134651184 0
          3.2799999713897705 1 0 3.2799999713897705 0.6666666865348816 0
          4.099999904632568 0 0 3.2799999713897705 0.3333333134651184 0
          3.690000057220459 0 0 2.869999885559082 1 0
          2.869999885559082 0.6666666865348816 0 3.2799999713897705 0 0
          2.869999885559082 0.3333333134651184 0 2.869999885559082 0 0
          2.4600000381469727 1 0 2.4600000381469727 0.6666666865348816 0
          2.4600000381469727 0.3333333134651184 0 2.4600000381469727 0 0
          2.049999952316284 1 0 2.049999952316284 0.6666666865348816 0
          2.049999952316284 0.3333333134651184 0 2.049999952316284 0 0
          1.6399999856948853 1 0 1.6399999856948853 0.6666666865348816 0
          1.6399999856948853 0.3333333134651184 0 1.6399999856948853 0 0
          1.2300000190734863 1 0 1.2300000190734863 0.6666666865348816 0
          1.2300000190734863 0.3333333134651184 0 1.2300000190734863 0 0
          0.8199999928474426 1 0 0.8199999928474426 0.6666666865348816 0
          0.8199999928474426 0.3333333134651184 0 0.8199999928474426 0 0
          0.4099999964237213 1 0 0.4099999964237213 0.6666666865348816 0
          0.4099999964237213 0.3333333134651184 0 0.4099999964237213 0 0
          0 1 0 0 0.6666666865348816 0
          0 0.3333333134651184 0 0 0 0
          <InformationKey name="L2_NORM_RANGE" location="vtkDataArray" length="2">
            <Value index="0">
              0
            </Value>
            <Value index="1">
              4.2201894766
            </Value>
          </InformationKey>
        </DataArray>
      </Points>
      <Cells>
        <DataArray type="Int64" Name="connectivity" format="ascii" RangeMin="0" RangeMax="43">
          39 38 43 38 42 43
          35 34 39 34 38 39
          31 30 35 30 34 35
          27 26 31 26 30 31
          23 22 27 22 26 27
          19 18 23 18 22 23
          15 14 19 14 18 19
          13 9 15 9 14 15
          10 5 13 5 9 13
          8 4 10 4 5 10
          38 37 42 37 41 42
          34 33 38 33 37 38
          30 29 34 29 33 34
          26 25 30 25 29 30
          22 21 26 21 25 26
          18 17 22 17 21 22
          14 12 18 12 17 18
          9 7 14 7 12 14
          5 3 9 3 7 9
          4 1 5 1 3 5
          37 36 41 36 40 41
          33 32 37 32 36 37
          29 28 33 28 32 33
          25 24 29 24 28 29
          21 20 25 20 24 25
          17 16 21 16 20 21
          12 11 17 11 16 17
          7 6 12 6 11 12
          3 2 7 2 6 7
          1 0 3 0 2 3
        </DataArray>
        <DataArray type="Int64" Name="offsets" format="ascii" RangeMin="3" RangeMax="180">
          3 6 9 12 15 18
          21 24 27 30 33 36
          39 42 45 48 51 54
          57 60 63 66 69 72
          75 78 81 84 87 90
          93 96 99 102 105 108
          111 114 117 120 123 126
          129 132 135 138 141 144
          147 150 153 156 159 162
          165 168 171 174 177 180
        </DataArray>
        <DataArray type="UInt8" Name="types" format="ascii" RangeMin="5" RangeMax="5">
          5 5 5 5 5 5
          5 5 5 5 5 5
          5 5 5 5 5 5
          5 5 5 5 5 5
          5 5 5 5 5 5
          5 5 5 5 5 5
          5 5 5 5 5 5
          5 5 5 5 5 5
          5 5 5 5 5 5
          5 5 5 5 5 5
        </DataArray>
      </Cells>
    </Piece>
  </UnstructuredGrid>
</VTKFile>
