<?xml version="1.0"?>
<VTKFile type="UnstructuredGrid" version="0.1" byte_order="LittleEndian" header_type="UInt32" compressor="vtkZLibDataCompressor">
  <UnstructuredGrid>
    <Piece NumberOfPoints="44" NumberOfCells="60">
      <PointData>
        <DataArray type="Float64" Name="Density" format="ascii" RangeMin="0.9964488986515997" RangeMax="1.7">
          1.7 1.1748488328819915 1.7 1.1845978799293693 1.000050618329064 1.0104507120707484
          1.7 1.1785788427914712 0.9964488986515997 1.0092037331465298 1.001028216083311 1.7
          1.1786390006004153 1.0000838374825605 1.0094029601339993 1.0000394327185091 1.7 1.1786004673606856
          1.0094424452952186 1.0000363564011574 1.7 1.1785998906428727 1.0094433223040702 1.000033826505656
          1.7 1.1785717009158918 1.009443123494341 1.0000336110362684 1.7 1.178085663171414
          1.009423007999693 1.0000335587061415 1.7 1.1731961561501223 1.0090760860394998 1.0000297375865588
          1.7 1.1408900352549172 1.006438470013197 0.99996968028882 1 1
          1 1
        </DataArray>
        <DataArray type="Float64" Name="Momentum" NumberOfComponents="3" format="ascii" RangeMin="2.888994888188193" RangeMax="4.535233026008696">
          4.4528099999999995 -0.86071 0 3.371531847349839 -0.14876091505409292 0
          4.4528099999999995 -0.86071 0 3.3969651102234173 -0.16000673135459975 0
          2.9000793635941435 0.00222699187344504 0 2.930536844164913 -0.007265550837768852 0
          4.4528099999999995 -0.86071 0 3.3778515990225033 -0.15572097560421425 0
          2.8889936750956418 0.0026474959655191665 0 2.92651446012593 -0.0062508608929778805 0
          2.9032271234358014 0 0 4.4528099999999995 -0.86071 0
          3.3780407706686684 -0.15577697452107744 0 2.9002680171633664 0 0
          2.927194984386196 -0.006352270164436653 0 2.900112152924013 0 0
          4.4528099999999995 -0.86071 0 3.3779104355955467 -0.15575732923392466 0
          2.927324233148142 -0.006377770475071995 0 2.9001068669942227 0 0
          4.4528099999999995 -0.86071 0 3.377908425991433 -0.1557569844309249 0
          2.9273273085900793 -0.006378060104982463 0 2.9000982315470525 0 0
          4.4528099999999995 -0.86071 0 3.3778130978906615 -0.1557370911819667 0
          2.927326741579884 -0.006377885754173196 0 2.900097520877293 0 0
          4.4528099999999995 -0.86071 0 3.3762112161845526 -0.15534195868858444 0
          2.927263258903421 -0.006364844740364946 0 2.9000974141823117 0 0
          4.4528099999999995 -0.86071 0 3.3609449105052627 -0.15082288033714633 0
          2.9261833009009512 -0.006130606175218069 0 2.9000873190826826 0 0
          4.4528099999999995 -0.86071 0 3.26840241884997 -0.11999371439901681 0
          2.918321997675781 -0.004231646439291581 0 2.899914949905098 0 0
          2.9 0 0 2.9 0 0
          2.9 0 0 2.9 0 0
          <InformationKey name="L2_NORM_RANGE" location="vtkDataArray" length="2">
            <Value index="0">
              2.8889948882
            </Value>
            <Value index="1">
              4.535233026
            </Value>
          </InformationKey>
        </DataArray>
        <DataArray type="Float64" Name="Energy" format="ascii" RangeMin="4.9020168000382816" RangeMax="7.585636452999999">
          7.585636452999999 5.794752044221328 7.585636452999999 5.845835779289951 4.91919454187854 4.979033505084764
          7.585636452999999 5.80849513623974 4.9020168000382816 4.970830465083378 4.929474154204086 7.585636452999999
          5.808874587282721 4.923534623233086 4.972174856328761 4.92319561242886 7.585636452999999 5.8086153578449915
          4.9724270715143915 4.923192462793921 7.585636452999999 5.808611206416882 4.972433212641761 4.923175378360323
          7.585636452999999 5.808416120901024 4.972432202250418 4.9231740001714455 7.585636452999999 5.80515363785531
          4.972311113321021 4.9231738847243225 7.585636452999999 5.774587105322285 4.970254913686389 4.923157803722556
          7.585636452999999 5.596156437664374 4.955583474224021 4.92285957664124 4.923 4.923
          4.923 4.923
        </DataArray>
      </PointData>
      <CellData>
        <DataArray type="UInt8" Name="vtkGhostType" format="ascii" RangeMin="0" RangeMax="0">
          0 0 0 0 0 0
          0 0 0 0 0 0
          0 0 0 0 0 0
          0 0 0 0 0 0
          0 0 0 0 0 0
          0 0 0 0 0 0
          0 0 0 0 0 0
          0 0 0 0 0 0
          0 0 0 0 0 0
          0 0 0 0 0 0
        </DataArray>
      </CellData>
      <Points>
        <DataArray type="Float32" Name="Points" NumberOfComponents="3" format="ascii" RangeMin="0" RangeMax="4.2201894765504395">
          4.099999904632568 1 0 4.099999904632568 0.6666666865348816 0
          3.690000057220459 1 0 3.690000057220459 0.6666666865348816 0
          4.099999904632568 0.3333333134651184 0 3.690000057220459 0.3333333134651184 0
          3.2799999713897705 1 0 3.2799999713897705 0.6666666865348816 0
          4.099999904632568 0 0 3.2799999713897705 0.3333333134651184 0
          3.690000057220459 0 0 2.869999885559082 1 0
          2.869999885559082 0.6666666865348816 0 3.2799999713897705 0 0
          2.869999885559082 0.3333333134651184 0 2.869999885559082 0 0
          2.4600000381469727 1 0 2.4600000381469727 0.6666666865348816 0
          2.4600000381469727 0.3333333134651184 0 2.4600000381469727 0 0
          2.049999952316284 1 0 2.049999952316284 0.6666666865348816 0
          2.049999952316284 0.3333333134651184 0 2.049999952316284 0 0
          1.6399999856948853 1 0 1.6399999856948853 0.6666666865348816 0
          1.6399999856948853 0.3333333134651184 0 1.6399999856948853 0 0
          1.2300000190734863 1 0 1.2300000190734863 0.6666666865348816 0
          1.2300000190734863 0.3333333134651184 0 1.2300000190734863 0 0
          0.8199999928474426 1 0 0.8199999928474426 0.6666666865348816 0
          0.8199999928474426 0.3333333134651184 0 0.8199999928474426 0 0
          0.4099999964237213 1 0 0.4099999964237213 0.6666666865348816 0
          0.4099999964237213 0.3333333134651184 0 0.4099999964237213 0 0
          0 1 0 0 0.6666666865348816 0
          0 0.3333333134651184 0 0 0 0
          <InformationKey name="L2_NORM_RANGE" location="vtkDataArray" length="2">
            <Value index="0">
              0
            </Value>
            <Value index="1">
              4.2201894766
            </Value>
          </InformationKey>
        </DataArray>
      </Points>
      <Cells>
        <DataArray type="Int64" Name="connectivity" format="ascii" RangeMin="0" RangeMax="43">
          39 38 43 38 42 43
          35 34 39 34 38 39
          31 30 35 30 34 35
          27 26 31 26 30 31
          23 22 27 22 26 27
          19 18 23 18 22 23
          15 14 19 14 18 19
          13 9 15 9 14 15
          10 5 13 5 9 13
          8 4 10 4 5 10
          38 37 42 37 41 42
          34 33 38 33 37 38
          30 29 34 29 33 34
          26 25 30 25 29 30
          22 21 26 21 25 26
          18 17 22 17 21 22
          14 12 18 12 17 18
          9 7 14 7 12 14
          5 3 9 3 7 9
          4 1 5 1 3 5
          37 36 41 36 40 41
          33 32 37 32 36 37
          29 28 33 28 32 33
          25 24 29 24 28 29
          21 20 25 20 24 25
          17 16 21 16 20 21
          12 11 17 11 16 17
          7 6 12 6 11 12
          3 2 7 2 6 7
          1 0 3 0 2 3
        </DataArray>
        <DataArray type="Int64" Name="offsets" format="ascii" RangeMin="3" RangeMax="180">
          3 6 9 12 15 18
          21 24 27 30 33 36
          39 42 45 48 51 54
          57 60 63 66 69 72
          75 78 81 84 87 90
          93 96 99 102 105 108
          111 114 117 120 123 126
          129 132 135 138 141 144
          147 150 153 156 159 162
          165 168 171 174 177 180
        </DataArray>
        <DataArray type="UInt8" Name="types" format="ascii" RangeMin="5" RangeMax="5">
          5 5 5 5 5 5
          5 5 5 5 5 5
          5 5 5 5 5 5
          5 5 5 5 5 5
          5 5 5 5 5 5
          5 5 5 5 5 5
          5 5 5 5 5 5
          5 5 5 5 5 5
          5 5 5 5 5 5
          5 5 5 5 5 5
        </DataArray>
      </Cells>
    </Piece>
  </UnstructuredGrid>
</VTKFile>
