<?xml version="1.0"?>
<VTKFile type="UnstructuredGrid" version="0.1" byte_order="LittleEndian" header_type="UInt32" compressor="vtkZLibDataCompressor">
  <UnstructuredGrid>
    <Piece NumberOfPoints="10" NumberOfCells="9">
      <PointData>
        <DataArray type="Float64" Name="Disp" NumberOfComponents="3" format="ascii" RangeMin="0" RangeMax="0.4346465730059244">
          0.19716729797707083 -0.044310686899562045 0 0.05204500736909967 -0.026358421457634756 0
          0 0 0 0.02211545373058743 0.00032727411552023553 0
          0 0 0 0.31085680734403726 -0.007611340045438508 0
          0.4308346369920548 -0.05743830597883876 0 0.121660710768483 -0.0012188917771980565 0
          0.19203345939587302 0.036815622116473816 0 0.05264561411463359 0.026669576948143706 0
          <InformationKey name="L2_NORM_RANGE" location="vtkDataArray" length="2">
            <Value index="0">
              0
            </Value>
            <Value index="1">
              0.43464657301
            </Value>
          </InformationKey>
        </DataArray>
        <DataArray type="Float64" Name="Sld_traction" NumberOfComponents="3" format="ascii" RangeMin="0" RangeMax="50.73919117683368">
          18.332783852518876 11.152801218016625 0 46.83804540733091 19.510587477061893 0
          -11.040882667574941 13.530561208585414 0 0 0 0
          -8.994020359772978 -18.972831653817842 0 0 0 0
          5.360691543691311 5.808712660452663 0 0 0 0
          17.40992609333238 -14.305333914758554 0 45.03750042586021 -23.157461289102685 0
          <InformationKey name="L2_NORM_RANGE" location="vtkDataArray" length="2">
            <Value index="0">
              0
            </Value>
            <Value index="1">
              50.739191177
            </Value>
          </InformationKey>
        </DataArray>
        <DataArray type="Float64" Name="Fld_traction" NumberOfComponents="3" format="ascii" RangeMin="0" RangeMax="2.8465294714160545">
          1.4813660039826102 -0.10667176439746304 0 1.4092114825156696 -0.06969171748588002 0
          0.6870959495333214 0.6677737092577862 0 0 0 0
          1.425744090142702 -1.5028135686694748 0 0 0 0
          1.71273426522001 -0.10338196270407918 0 0 0 0
          0 0 0 2.8430517278460252 -0.140665932022982 0
          <InformationKey name="L2_NORM_RANGE" location="vtkDataArray" length="2">
            <Value index="0">
              0
            </Value>
            <Value index="1">
              2.8465294714
            </Value>
          </InformationKey>
        </DataArray>
        <DataArray type="Float64" Name="Velocity" NumberOfComponents="3" format="ascii" RangeMin="0" RangeMax="0.20143310852941193">
          0.09353061628621717 -0.029045338439464677 0 0.028634571105084633 -0.016856094065554758 0
          0 0 0 0.012507766596094302 -0.0016091355200078677 0
          0 0 0 0.14423193437037624 -0.016611939900719203 0
          0.19638368014948504 -0.04481905156031977 0 0.06050844595318092 -0.00741736780655633 0
          0.09185894475525169 0.006594100644596118 0 0.028233632813392973 0.009113721367053941 0
          <InformationKey name="L2_NORM_RANGE" location="vtkDataArray" length="2">
            <Value index="0">
              0
            </Value>
            <Value index="1">
              0.20143310853
            </Value>
          </InformationKey>
        </DataArray>
      </PointData>
      <CellData>
        <DataArray type="UInt8" Name="vtkGhostType" format="ascii" RangeMin="0" RangeMax="1">
          1 0 0 0 0 0
          0 0 0
        </DataArray>
        <DataArray type="Float64" Name="Gauss Stress" NumberOfComponents="6" format="ascii" RangeMin="16.477899619567946" RangeMax="196.63682760534115">
          7.801727265482258 -12.801328351260315 0 6.839606713167581 0 0
          33.69930147857241 -69.21432426394945 0 10.462890680603142 0 0
          2.557675390912335 9.286325286743518 0 -42.572372006273 0 0
          -2.7799194390341646 3.8750987329547337 0 31.8621664442119 0 0
          4.3928636342521115 4.763992457394497 0 134.17112646137818 0 0
          64.98183000608113 -170.75437530817283 0 19.299297606872628 0 0
          -65.17436650882746 182.50960551929626 0 33.29546236436065 0 0
          -6.573060973017015 12.645287297113564 0 -81.34389806972757 0 0
          3.045262749604636 0.7982469013103916 0 78.69011934331371 0 0
          <InformationKey name="L2_NORM_RANGE" location="vtkDataArray" length="2">
            <Value index="0">
              16.47789962
            </Value>
            <Value index="1">
              196.63682761
            </Value>
          </InformationKey>
        </DataArray>
        <DataArray type="Float64" Name="Gauss Strain" NumberOfComponents="6" format="ascii" RangeMin="0.002015579052569346" RangeMax="0.02682493654608105">
          0.0008493953946689946 -0.0012117532313048462 0 0.0013684810875908035 0 0
          0.0038438644691961 -0.006474516705231358 0 0.002098071920989964 0 0
          0.00005564452137757357 0.0007279912388962195 0 -0.008507916155107306 0 0
          -0.0003112246745794467 0.0003542680285972266 0 0.006372346018609745 0 0
          0 0.000037100000098044816 0 0.026824910890649152 0 0
          0.007859614820498906 -0.015897904652499843 0 0.0038899704701639273 0 0
          -0.008368846923091033 0.016198761583166132 0 0.006605109549111638 0 0
          -0.000858751702723981 0.001062529521438704 0 -0.016264093236823117 0 0
          0.00014344803526433747 -0.00008122294375845218 0 0.015735880248197748 0 0
          <InformationKey name="L2_NORM_RANGE" location="vtkDataArray" length="2">
            <Value index="0">
              0.0020155790526
            </Value>
            <Value index="1">
              0.026824936546
            </Value>
          </InformationKey>
        </DataArray>
        <DataArray type="Float64" Name="Btraction" NumberOfComponents="3" format="ascii" RangeMin="0" RangeMax="1.5247456110182358">
          1.0647000897342065 -0.07001790903384739 0 0.9635258288327598 -0.05878782729444767 0
          0 0 0 0 0 0
          0 0 0 0.6987691440163302 0.19936066392396873 0
          1.4229319393295752 -0.5478265002308188 0 0 0 0
          0 0 0
          <InformationKey name="L2_NORM_RANGE" location="vtkDataArray" length="2">
            <Value index="0">
              0
            </Value>
            <Value index="1">
              1.524745611
            </Value>
          </InformationKey>
        </DataArray>
      </CellData>
      <Points>
        <DataArray type="Float32" Name="Points" NumberOfComponents="3" format="ascii" RangeMin="10" RangeMax="12.72006462895274">
          11 3.7184319496154785 0 11 1.6591010093688965 0
          11 0 0 10.5 0.8241099119186401 0
          10 0 0 10.5 5 0
          11 6.387491226196289 0 10.5 2.6568450927734375 0
          10 3.61250901222229 0 10 1.6373380422592163 0
          <InformationKey name="L2_NORM_RANGE" location="vtkDataArray" length="2">
            <Value index="0">
              10
            </Value>
            <Value index="1">
              12.720064629
            </Value>
          </InformationKey>
        </DataArray>
      </Points>
      <Cells>
        <DataArray type="Int64" Name="connectivity" format="ascii" RangeMin="0" RangeMax="9">
          5 0 6 7 1 0
          8 7 0 8 0 5
          4 2 3 3 2 1
          4 3 9 3 1 9
          9 1 7
        </DataArray>
        <DataArray type="Int64" Name="offsets" format="ascii" RangeMin="3" RangeMax="27">
          3 6 9 12 15 18
          21 24 27
        </DataArray>
        <DataArray type="UInt8" Name="types" format="ascii" RangeMin="5" RangeMax="5">
          5 5 5 5 5 5
          5 5 5
        </DataArray>
      </Cells>
    </Piece>
  </UnstructuredGrid>
</VTKFile>
