<?xml version="1.0"?>
<VTKFile type="UnstructuredGrid" version="0.1" byte_order="LittleEndian" header_type="UInt32" compressor="vtkZLibDataCompressor">
  <UnstructuredGrid>
    <Piece NumberOfPoints="10" NumberOfCells="10">
      <PointData>
        <DataArray type="Float64" Name="Disp" NumberOfComponents="3" format="ascii" RangeMin="0" RangeMax="0.23571612101850037">
          0.16558962726612314 -0.002752617894711342 0 0.0620441334246845 -0.0006366986859660828 0
          0.09864822841709003 0.02041558960705665 0 0.025819161191209746 0.013360825256187788 0
          0.23372685338628146 -0.030558922005790683 0 0.2294952872932528 0.021975599911438506 0
          0.10227928084934813 -0.02372840048600679 0 0.02584712595332026 -0.01382003829008558 0
          0 0 0 0.01083825405027233 -0.000031754856022537734 0
          <InformationKey name="L2_NORM_RANGE" location="vtkDataArray" length="2">
            <Value index="0">
              0
            </Value>
            <Value index="1">
              0.23571612102
            </Value>
          </InformationKey>
        </DataArray>
        <DataArray type="Float64" Name="Sld_traction" NumberOfComponents="3" format="ascii" RangeMin="0" RangeMax="26.876238406005466">
          0 0 0 0 0 0
          11.777702570630987 -6.0480027071797 0 24.385184299695574 -8.916290006068746 0
          6.100991356648541 3.8459988841922943 0 6.477718167964702 -4.572363264466512 0
          12.541073450101436 4.9070104705607935 0 25.671608409786703 7.956174489728829 0
          -3.739906903555654 -6.5188529189478075 0 0 0 0
          <InformationKey name="L2_NORM_RANGE" location="vtkDataArray" length="2">
            <Value index="0">
              0
            </Value>
            <Value index="1">
              26.876238406
            </Value>
          </InformationKey>
        </DataArray>
        <DataArray type="Float64" Name="Fld_traction" NumberOfComponents="3" format="ascii" RangeMin="0" RangeMax="1.2744360775412111">
          0 0 0 0 0 0
          0.8696683096868663 0.008261568906488884 0 1.2741487812386296 -0.027059176017440564 0
          0 0 0 0.004646058744740389 0.11108977198254516 0
          0 0 0 0 0 0
          0.6834495607982162 -0.7412266725413602 0 0 0 0
          <InformationKey name="L2_NORM_RANGE" location="vtkDataArray" length="2">
            <Value index="0">
              0
            </Value>
            <Value index="1">
              1.2744360775
            </Value>
          </InformationKey>
        </DataArray>
        <DataArray type="Float64" Name="Velocity" NumberOfComponents="3" format="ascii" RangeMin="0" RangeMax="0.1929023388246787">
          0.14655191581556776 -0.005451609248581544 0 0.06433291567286051 -0.0019222207549112903 0
          0.09941817772232897 0.014726979442386394 0 0.02770687447073418 0.0133778363428559 0
          0.19152899591287798 -0.022977294197444355 0 0.1899528457067866 0.008138375015898282 0
          0.10204436299410352 -0.021200615458745214 0 0.027993761374133674 -0.015024265881307244 0
          0 0 0 0.011945101250973478 -0.00022248227287928815 0
          <InformationKey name="L2_NORM_RANGE" location="vtkDataArray" length="2">
            <Value index="0">
              0
            </Value>
            <Value index="1">
              0.19290233882
            </Value>
          </InformationKey>
        </DataArray>
      </PointData>
      <CellData>
        <DataArray type="UInt8" Name="vtkGhostType" format="ascii" RangeMin="0" RangeMax="1">
          1 1 1 1 1 1
          1 1 1 0
        </DataArray>
        <DataArray type="Float64" Name="Gauss Stress" NumberOfComponents="6" format="ascii" RangeMin="15.334522772641222" RangeMax="97.3213003211718">
          3.018879872959842 3.0722230147954352 0 -14.717180393154507 0 0
          7.116891174267993 -14.917532345150377 0 3.1541700077767425 0 0
          19.987756251173476 -45.24533537444337 0 4.55095667553542 0 0
          3.743876473910677 0.11771625227770757 0 -29.823513233834362 0 0
          -3.87829875553168 1.0779521886561727 0 23.860367205311967 0 0
          -7.969466719074333 18.88491883895326 0 5.982205366881319 0 0
          -33.63778553458853 90.5094329860381 0 12.164597037247828 0 0
          -2.2514117900239006 1.0650434300736733 0 -44.87658004228808 0 0
          -1.4487148732073423 -0.7061069052817721 0 43.681851104235264 0 0
          -16.206482513314977 46.157663667919245 0 9.092983341667411 0 0
          <InformationKey name="L2_NORM_RANGE" location="vtkDataArray" length="2">
            <Value index="0">
              15.334522773
            </Value>
            <Value index="1">
              97.321300321
            </Value>
          </InformationKey>
        </DataArray>
        <DataArray type="Float64" Name="Gauss Strain" NumberOfComponents="6" format="ascii" RangeMin="0.0017282109897045104" RangeMax="0.009488959917212589">
          0.00021118501934058728 0.00021651729487282 0 -0.002942311165524872 0 0
          0.0008215537693420092 -0.0013832303769805154 0 0.0006312181502568832 0 0
          0.0023472720733496155 -0.004188230420742567 0 0.0009118926594546756 0 0
          0.00030389228208471675 -0.0000586464183762736 0 -0.005963430775325734 0 0
          -0.0003577579510151141 0.00013799508312645203 0 0.004773305295058767 0 0
          -0.0009555458592344079 0.0017279407192311576 0 0.0011955714106332974 0 0
          -0.004218845762552048 0.008146739582715279 0 0.0024232901010163544 0 0
          -0.00024279768347068575 0.00008890204197531393 0 -0.008976782914949914 0 0
          -0.000146817245154085 -0.00007253928905059936 0 0.00873838891846071 0 0
          -0.0020597395269374985 0.004163732791622853 0 0.0018148225730708614 0 0
          <InformationKey name="L2_NORM_RANGE" location="vtkDataArray" length="2">
            <Value index="0">
              0.0017282109897
            </Value>
            <Value index="1">
              0.0094889599172
            </Value>
          </InformationKey>
        </DataArray>
        <DataArray type="Float64" Name="Btraction" NumberOfComponents="3" format="ascii" RangeMin="0" RangeMax="0.7146331669214284">
          0 0 0 0 0 0
          0 0 0 0 0 0
          0 0 0 0.2914381228105355 0.03978378029634466 0
          0.6525327806789484 -0.2560952828529335 0 0 0 0
          0 0 0 0.7146056969751652 -0.006265869036983891 0
          <InformationKey name="L2_NORM_RANGE" location="vtkDataArray" length="2">
            <Value index="0">
              0
            </Value>
            <Value index="1">
              0.71463316692
            </Value>
          </InformationKey>
        </DataArray>
      </CellData>
      <Points>
        <DataArray type="Float32" Name="Points" NumberOfComponents="3" format="ascii" RangeMin="10" RangeMax="12.72006462895274">
          10.5 5 0 10.5 2.6568450927734375 0
          10 3.61250901222229 0 10 1.6373380422592163 0
          11 6.387491226196289 0 10 6.2815680503845215 0
          11 3.7184319496154785 0 11 1.6591010093688965 0
          10 0 0 10.5 0.8241099119186401 0
          <InformationKey name="L2_NORM_RANGE" location="vtkDataArray" length="2">
            <Value index="0">
              10
            </Value>
            <Value index="1">
              12.720064629
            </Value>
          </InformationKey>
        </DataArray>
      </Points>
      <Cells>
        <DataArray type="Int64" Name="connectivity" format="ascii" RangeMin="0" RangeMax="9">
          4 5 0 0 6 4
          1 7 6 2 1 6
          2 6 0 2 0 5
          8 9 3 9 7 3
          3 7 1 3 1 2
        </DataArray>
        <DataArray type="Int64" Name="offsets" format="ascii" RangeMin="3" RangeMax="30">
          3 6 9 12 15 18
          21 24 27 30
        </DataArray>
        <DataArray type="UInt8" Name="types" format="ascii" RangeMin="5" RangeMax="5">
          5 5 5 5 5 5
          5 5 5 5
        </DataArray>
      </Cells>
    </Piece>
  </UnstructuredGrid>
</VTKFile>
