<?xml version="1.0"?>
<VTKFile type="UnstructuredGrid" version="0.1" byte_order="LittleEndian" header_type="UInt32" compressor="vtkZLibDataCompressor">
  <UnstructuredGrid>
    <Piece NumberOfPoints="177" NumberOfCells="282">
      <PointData>
        <DataArray type="Float64" Name="ale_BC" NumberOfComponents="3" format="ascii" RangeMin="0" RangeMax="0">
          0 0 0 0 0 0
          0 0 0 0 0 0
          0 0 0 0 0 0
          0 0 0 0 0 0
          0 0 0 0 0 0
          0 0 0 0 0 0
          0 0 0 0 0 0
          0 0 0 0 0 0
          0 0 0 0 0 0
          0 0 0 0 0 0
          0 0 0 0 0 0
          0 0 0 0 0 0
          0 0 0 0 0 0
          0 0 0 0 0 0
          0 0 0 0 0 0
          0 0 0 0 0 0
          0 0 0 0 0 0
          0 0 0 0 0 0
          0 0 0 0 0 0
          0 0 0 0 0 0
          0 0 0 0 0 0
          0 0 0 0 0 0
          0 0 0 0 0 0
          0 0 0 0 0 0
          0 0 0 0 0 0
          0 0 0 0 0 0
          0 0 0 0 0 0
          0 0 0 0 0 0
          0 0 0 0 0 0
          0 0 0 0 0 0
          0 0 0 0 0 0
          0 0 0 0 0 0
          0 0 0 0 0 0
          0 0 0 0 0 0
          0 0 0 0 0 0
          0 0 0 0 0 0
          0 0 0 0 0 0
          0 0 0 0 0 0
          0 0 0 0 0 0
          0 0 0 0 0 0
          0 0 0 0 0 0
          0 0 0 0 0 0
          0 0 0 0 0 0
          0 0 0 0 0 0
          0 0 0 0 0 0
          0 0 0 0 0 0
          0 0 0 0 0 0
          0 0 0 0 0 0
          0 0 0 0 0 0
          0 0 0 0 0 0
          0 0 0 0 0 0
          0 0 0 0 0 0
          0 0 0 0 0 0
          0 0 0 0 0 0
          0 0 0 0 0 0
          0 0 0 0 0 0
          0 0 0 0 0 0
          0 0 0 0 0 0
          0 0 0 0 0 0
          0 0 0 0 0 0
          0 0 0 0 0 0
          0 0 0 0 0 0
          0 0 0 0 0 0
          0 0 0 0 0 0
          0 0 0 0 0 0
          0 0 0 0 0 0
          0 0 0 0 0 0
          0 0 0 0 0 0
          0 0 0 0 0 0
          0 0 0 0 0 0
          0 0 0 0 0 0
          0 0 0 0 0 0
          0 0 0 0 0 0
          0 0 0 0 0 0
          0 0 0 0 0 0
          0 0 0 0 0 0
          0 0 0 0 0 0
          0 0 0 0 0 0
          0 0 0 0 0 0
          0 0 0 0 0 0
          0 0 0 0 0 0
          0 0 0 0 0 0
          0 0 0 0 0 0
          0 0 0 0 0 0
          0 0 0 0 0 0
          0 0 0 0 0 0
          0 0 0 0 0 0
          0 0 0 0 0 0
          0 0 0
          <InformationKey name="L2_NORM_RANGE" location="vtkDataArray" length="2">
            <Value index="0">
              0
            </Value>
            <Value index="1">
              0
            </Value>
          </InformationKey>
        </DataArray>
        <DataArray type="Float64" Name="ale_FIXNO" NumberOfComponents="3" format="ascii" RangeMin="1.4142135623730951" RangeMax="5.656854249492381">
          1 1 0 1 1 0
          1 1 0 1 1 0
          -1 -1 0 1 1 0
          -1 -1 0 -1 -1 0
          1 1 0 1 1 0
          1 1 0 -1 -1 0
          -1 -1 0 -1 -1 0
          1 1 0 1 1 0
          -1 -1 0 -1 -1 0
          -1 -1 0 1 1 0
          1 1 0 -1 -1 0
          -1 -1 0 -1 -1 0
          1 1 0 1 1 0
          -1 -1 0 -1 -1 0
          -1 -1 0 -1 -1 0
          -1 -1 0 1 1 0
          1 1 0 -1 -1 0
          -1 -1 0 -1 -1 0
          -1 -1 0 -1 -1 0
          1 1 0 1 1 0
          -1 -1 0 -1 -1 0
          -1 -1 0 -1 -1 0
          -1 -1 0 1 1 0
          -1 -1 0 -1 -1 0
          -1 -1 0 -1 -1 0
          -1 -1 0 -1 -1 0
          -1 -1 0 4 4 0
          4 4 0 4 4 0
          1 1 0 -1 -1 0
          -1 -1 0 -1 -1 0
          4 4 0 4 4 0
          -1 -1 0 -1 -1 0
          -1 -1 0 1 1 0
          1 1 0 -1 -1 0
          -1 -1 0 -1 -1 0
          4 4 0 4 4 0
          -1 -1 0 -1 -1 0
          -1 -1 0 1 1 0
          1 1 0 -1 -1 0
          -1 -1 0 -1 -1 0
          4 4 0 4 4 0
          -1 -1 0 -1 -1 0
          -1 -1 0 1 1 0
          1 1 0 -1 -1 0
          -1 -1 0 -1 -1 0
          4 4 0 4 4 0
          -1 -1 0 -1 -1 0
          -1 -1 0 1 1 0
          1 1 0 -1 -1 0
          -1 -1 0 -1 -1 0
          4 4 0 -1 -1 0
          4 4 0 -1 -1 0
          -1 -1 0 -1 -1 0
          -1 -1 0 -1 -1 0
          -1 -1 0 -1 -1 0
          -1 -1 0 -1 -1 0
          -1 -1 0 -1 -1 0
          -1 -1 0 -1 -1 0
          -1 -1 0 4 4 0
          4 4 0 -1 -1 0
          -1 -1 0 -1 -1 0
          -1 -1 0 -1 -1 0
          -1 -1 0 1 1 0
          -1 -1 0 -1 -1 0
          4 4 0 -1 -1 0
          -1 -1 0 4 4 0
          -1 -1 0 -1 -1 0
          1 1 0 -1 -1 0
          -1 -1 0 4 4 0
          1 1 0 1 1 0
          4 4 0 -1 -1 0
          1 1 0 1 1 0
          -1 -1 0 1 1 0
          1 1 0 -1 -1 0
          1 1 0 1 1 0
          -1 -1 0 -1 -1 0
          1 1 0 1 1 0
          -1 -1 0 -1 -1 0
          1 1 0 1 1 0
          -1 -1 0 -1 -1 0
          1 1 0 1 1 0
          1 1 0 -1 -1 0
          1 1 0 -1 -1 0
          1 1 0 -1 -1 0
          -1 -1 0 -1 -1 0
          1 1 0 -1 -1 0
          1 1 0 1 1 0
          1 1 0 1 1 0
          1 1 0
          <InformationKey name="L2_NORM_RANGE" location="vtkDataArray" length="2">
            <Value index="0">
              1.4142135624
            </Value>
            <Value index="1">
              5.6568542495
            </Value>
          </InformationKey>
        </DataArray>
        <DataArray type="Float64" Name="nsi_BC" NumberOfComponents="3" format="ascii" RangeMin="0" RangeMax="1.5">
          0 0 0 1.5 0 0
          1.5 0 0 0 0 0
          1.5 0 0 1.5 0 0
          1.5 0 0 1.5 0 0
          0 0 0 0 0 0
          0 0 0 1.5 0 0
          1.5 0 0 1.5 0 0
          0 0 0 0 0 0
          1.5 0 0 1.5 0 0
          1.5 0 0 0 0 0
          0 0 0 1.5 0 0
          1.5 0 0 1.5 0 0
          0 0 0 0 0 0
          1.5 0 0 1.5 0 0
          1.5 0 0 1.5 0 0
          1.5 0 0 0 0 0
          0 0 0 1.5 0 0
          1.5 0 0 1.5 0 0
          1.5 0 0 1.5 0 0
          0 0 0 0 0 0
          1.5 0 0 1.5 0 0
          1.5 0 0 1.5 0 0
          1.5 0 0 0 0 0
          1.5 0 0 1.5 0 0
          1.5 0 0 1.5 0 0
          1.5 0 0 1.5 0 0
          1.5 0 0 0 0 0
          0 0 0 0 0 0
          0 0 0 1.5 0 0
          1.5 0 0 1.5 0 0
          0 0 0 0 0 0
          1.5 0 0 1.5 0 0
          1.5 0 0 0 0 0
          0 0 0 1.5 0 0
          1.5 0 0 1.5 0 0
          0 0 0 0 0 0
          1.5 0 0 1.5 0 0
          1.5 0 0 0 0 0
          0 0 0 1.5 0 0
          1.5 0 0 1.5 0 0
          0 0 0 0 0 0
          1.5 0 0 1.5 0 0
          1.5 0 0 0 0 0
          0 0 0 1.5 0 0
          1.5 0 0 1.5 0 0
          0 0 0 0 0 0
          1.5 0 0 1.5 0 0
          1.5 0 0 0 0 0
          0 0 0 1.5 0 0
          1.5 0 0 1.5 0 0
          0 0 0 1.5 0 0
          0 0 0 1.5 0 0
          1.5 0 0 1.5 0 0
          1.5 0 0 1.5 0 0
          1.5 0 0 1.5 0 0
          1.5 0 0 1.5 0 0
          1.5 0 0 1.5 0 0
          1.5 0 0 1.5 0 0
          1.5 0 0 0 0 0
          0 0 0 1.5 0 0
          1.5 0 0 1.5 0 0
          1.5 0 0 1.5 0 0
          1.5 0 0 0 0 0
          1.5 0 0 1.5 0 0
          0 0 0 1.5 0 0
          1.5 0 0 0 0 0
          1.5 0 0 1.5 0 0
          0 0 0 1.5 0 0
          1.5 0 0 0 0 0
          0 0 0 0 0 0
          0 0 0 1.5 0 0
          0 0 0 0 0 0
          1.5 0 0 0 0 0
          0 0 0 1.5 0 0
          0 0 0 0 0 0
          1.5 0 0 1.5 0 0
          0 0 0 0 0 0
          1.5 0 0 1.5 0 0
          0 0 0 0 0 0
          1.5 0 0 1.5 0 0
          0 0 0 0 0 0
          0 0 0 1.5 0 0
          0 0 0 1.5 0 0
          0 0 0 1.5 0 0
          1.5 0 0 1.5 0 0
          0 0 0 1.5 0 0
          0 0 0 1.339432 0 0
          1.498641 0 0 1.313156 0 0
          0 0 0
          <InformationKey name="L2_NORM_RANGE" location="vtkDataArray" length="2">
            <Value index="0">
              0
            </Value>
            <Value index="1">
              1.5
            </Value>
          </InformationKey>
        </DataArray>
        <DataArray type="Float64" Name="nsi_FIXNO" NumberOfComponents="3" format="ascii" RangeMin="0" RangeMax="1.4142135623730951">
          1 1 0 0 0 0
          0 0 0 1 1 0
          0 0 0 0 0 0
          0 0 0 0 0 0
          1 1 0 1 1 0
          1 1 0 0 0 0
          0 0 0 0 0 0
          1 1 0 1 1 0
          0 0 0 0 0 0
          0 0 0 1 1 0
          1 1 0 0 0 0
          0 0 0 0 0 0
          1 1 0 1 1 0
          0 0 0 0 0 0
          0 0 0 0 0 0
          0 0 0 1 1 0
          1 1 0 0 0 0
          0 0 0 0 0 0
          0 0 0 0 0 0
          1 1 0 1 1 0
          0 0 0 0 0 0
          0 0 0 0 0 0
          0 0 0 1 1 0
          0 0 0 0 0 0
          0 0 0 0 0 0
          0 0 0 0 0 0
          0 0 0 1 1 0
          1 1 0 1 1 0
          1 1 0 0 0 0
          0 0 0 0 0 0
          1 1 0 1 1 0
          0 0 0 0 0 0
          0 0 0 1 1 0
          1 1 0 0 0 0
          0 0 0 0 0 0
          1 1 0 1 1 0
          0 0 0 0 0 0
          0 0 0 1 1 0
          1 1 0 0 0 0
          0 0 0 0 0 0
          1 1 0 1 1 0
          0 0 0 0 0 0
          0 0 0 1 1 0
          1 1 0 0 0 0
          0 0 0 0 0 0
          1 1 0 1 1 0
          0 0 0 0 0 0
          0 0 0 1 1 0
          1 1 0 0 0 0
          0 0 0 0 0 0
          1 1 0 0 0 0
          1 1 0 0 0 0
          0 0 0 0 0 0
          0 0 0 0 0 0
          0 0 0 0 0 0
          0 0 0 0 0 0
          0 0 0 0 0 0
          0 0 0 0 0 0
          0 0 0 1 1 0
          1 1 0 0 0 0
          0 0 0 0 0 0
          0 0 0 0 0 0
          0 0 0 1 1 0
          0 0 0 0 0 0
          1 1 0 0 0 0
          0 0 0 1 1 0
          0 0 0 0 0 0
          1 1 0 0 0 0
          0 0 0 1 1 0
          1 1 0 1 1 0
          1 1 0 0 0 0
          1 1 0 1 1 0
          0 0 0 1 1 0
          1 1 0 0 0 0
          1 1 0 1 1 0
          0 0 0 0 0 0
          1 1 0 1 1 0
          0 0 0 0 0 0
          1 1 0 1 1 0
          0 0 0 0 0 0
          1 1 0 1 1 0
          1 1 0 0 0 0
          1 1 0 0 0 0
          1 1 0 0 0 0
          0 0 0 0 0 0
          1 1 0 0 0 0
          1 1 0 1 1 0
          1 1 0 1 1 0
          1 1 0
          <InformationKey name="L2_NORM_RANGE" location="vtkDataArray" length="2">
            <Value index="0">
              0
            </Value>
            <Value index="1">
              1.4142135624
            </Value>
          </InformationKey>
        </DataArray>
        <DataArray type="Float64" Name="Velocity" NumberOfComponents="3" format="ascii" RangeMin="0" RangeMax="2.610525906274201">
          0 0 0 1.1751710238093733 0.10872418612076372 0
          1.295565953259744 -0.021676030585435435 0 0 0 0
          1.3449564982222142 0.024728406757148037 0 1.2157271777545728 -0.036220827374148584 0
          1.3919362306517777 -0.004357095364263428 0 1.3027390329257378 -0.012814377620678904 0
          0 0 0 0 0 0
          0 0 0 1.290582674278592 0.010098058490439779 0
          1.364104238396553 -0.001973255088468129 0 1.29438005432904 -0.001988465837968888 0
          0 0 0 0 0 0
          1.2806539173313185 -0.00010914404180908585 0 1.3594898273461196 -0.0003712955002431358 0
          1.2934452309959887 0.012171124336818976 0 0 0 0
          0 0 0 1.2131914300814801 -0.02741827212830309 0
          1.3028771820222806 0.008056062655426724 0 1.2670417723396925 0.025018482743212948 0
          0 0 0 0 0 0
          1.0983437334348671 0.028769282420261656 0 1.2292166390662629 -0.0034968754817940573 0
          1.2054542448781254 -0.015563841256694636 0 1.2248436429788463 0.005994358346996377 0
          1.085622409800342 -0.00005653641913440879 0 0 0 0
          0 0 0 1.1346868381158262 0.02472539489303485 0
          1.2034609340177007 -0.0014268969224463747 0 1.2076157502401323 -0.002611729031891973 0
          1.2419035045940512 -0.02112639797645484 0 1.0754389940041154 0.008407076906942269 0
          0 0 0 0 0 0
          1.1297895847329074 -0.010605747106821026 0 1.246531199902216 0.005843147478598453 0
          1.1728242328360734 -0.015490118862913082 0 1.2550321608449821 0.04541166389641618 0
          1.1623083801213387 0.0070547684031278075 0 0 0 0
          1.3178570730233146 -0.07834234679421732 0 1.4153544865480392 -0.14000695533090815 0
          1.1873192025958148 -0.18517302919918083 0 1.1029679845172533 0.25440975156365375 0
          1.4238625088165646 0.1427124618825507 0 1.4247551010042072 0.14478442791125762 0
          1.2354847286473805 0.06243769315276328 0 -0.01280747182514258 -0.14759682245567074 0
          0.0013004322749754873 -0.15386526479350834 0 0.006433397834938792 -0.15216812935555699 0
          0 0 0 1.4027450546229157 -0.038021863041268804 0
          1.4767225400030317 -0.06812149396199565 0 1.3913791065961811 -0.08016839574314537 0
          0.030822897605941178 -0.07245612054634412 0 -0.03505011546778391 -0.07565791121455072 0
          1.3853016434612866 0.0028444873332414762 0 1.4913405690425998 0.002010794003154441 0
          1.3907948892886348 0.01950807781271275 0 0 0 0
          0 0 0 1.4130757918830616 -0.03524557939315476 0
          1.473679840038589 -0.014621622294698626 0 1.4148006335577492 0.0013504561672803873 0
          -0.01936933459962836 0.04544250895101633 0 0.01993385255432162 0.0441284719651811 0
          1.3251248920880112 0.00023935882495997707 0 1.4816240888499932 -0.018134836582744285 0
          1.4066969847194926 0.016491396923773795 0 0 0 0
          0 0 0 1.437704316039867 -0.03151021642820275 0
          1.4877396744031415 -0.023612204024982958 0 1.341299218467073 0.011142706879058304 0
          0.005675853674757154 -0.00038703087263412985 0 -0.00498476373702801 0.0012260543606367495 0
          1.3120732418377756 0.008021501132557816 0 1.4623536378076452 -0.000687761566909017 0
          1.4178999861200672 0.037028618618160994 0 0 0 0
          0 0 0 1.4530383949670072 -0.05508729899690028 0
          1.43305205904665 -0.07087891597412967 0 1.315776183616771 0.0021785566267050202 0
          -0.0011064200985542046 -0.0006227848185773407 0 0.00009868509543819887 -0.0009049488859325858 0
          1.248554761686861 0.007855956493000683 0 1.4440164484682678 0.059655921960699874 0
          1.4300702321880439 0.06805747956767567 0 0 0 0
          0 0 0 1.5345733143583475 -0.11559002918256549 0
          1.3651933855595224 -0.2104495549350544 0 1.1697702351139874 -0.015676334715160493 0
          0.0000206371389379823 0.00012280999823841292 0 1.2797996203410025 -0.21779059341348853 0
          -0.00010072034804482035 0.000092905078686306 0 1.090824600865556 0.04328993443311545 0
          1.2721503985027836 -0.30129574514593965 0 1.214094397663368 -0.19582199788570373 0
          1.2287035028528792 -0.3084174807898001 0 1.438994242237019 0.20420409689327568 0
          1.1547770644258286 -0.20494884746069453 0 1.1970353635828608 -0.28930821321158906 0
          1.2323861016293904 0.21209132711747622 0 1.2360045460039535 -0.35778201372172297 0
          1.5337154602379488 0.0971874786326542 0 1.2716252211504895 -0.4082003708512833 0
          1.335502778325542 0.33376066540150706 0 1.0294418324566863 -0.4289373860812004 0
          0.742541501949919 -0.14615908167033723 0 -0.000040306673804222944 0.000025493649369959502 0
          0.000019191057652410847 0.00001694780551766154 0 1.2907224129157744 0.3477232816798548 0
          1.437476484638369 -0.6770414976918889 0 0.8577883206742458 0.0206001854810269 0
          0.9523066835099578 0.2909010902371853 0 1.3627048434085667 0.45115394979277434 0
          1.410028685443593 0.458308525084652 0 0 0 0
          1.269815817680336 0.5597923952475087 0 1.439500472633282 0.6250445620979773 0
          0.000005154143007240684 -0.000014540936249346178 0 0.12140239434020582 0.01499882669691808 0
          0.32501138198435375 0.427201134010781 0 -0.000007602378471511473 -0.000011486580677589227 0
          -0.09710860979713634 -0.08938532304779497 0 0.06399346995400394 -0.4192492226850046 0
          0 0 0 1.440380392711382 -0.5778011274012668 0
          1.6269914618040564 0.8013322527025455 0 -6.780990160487048e-21 -9.132461373573859e-21 0
          0 0 0 0 0 0
          -8.685100534520834e-21 2.450252020834789e-20 0 1.2573959558915944 0.42801177988747935 0
          0 0 0 0 0 0
          1.9033329307463356 -0.11509110647423469 0 0 0 0
          0 0 0 2.6047591048963428 -0.17342293039947523 0
          0 0 0 0 0 0
          1.930145764879745 0.09439566965809966 0 2.572563155886667 0.0496886468229421 0
          0 0 0 0 0 0
          1.9628858419656858 0.056479027259739446 0 2.202171348060009 0.9638849107535856 0
          0 0 0 0 0 0
          2.086543810653805 -1.0136821460227616 0 1.9615410232321093 -0.14649351293272622 0
          0 0 0 0 0 0
          0 0 0 0.9431953015272656 0.9728461447790825 0
          0 0 0 0.9869072729237709 -0.9416489820405815 0
          0 0 0 1.4786753481583568 0.2984748427076137 0
          0.6359816730641916 -0.036528627368805515 0 1.502562156017629 -0.45325446008824444 0
          0 0 0 1.2571605760675728 0.06025873791335331 0
          0 0 0 1.3394320000000002 0 0
          1.498641 0 0 1.313156 0 0
          0 0 0
          <InformationKey name="L2_NORM_RANGE" location="vtkDataArray" length="2">
            <Value index="0">
              0
            </Value>
            <Value index="1">
              2.6105259063
            </Value>
          </InformationKey>
        </DataArray>
        <DataArray type="Float64" Name="Pressure" format="ascii" RangeMin="-10198.231830083994" RangeMax="400.52980424879075">
          338.46749404999133 359.19980670871104 381.8911732327569 -793.4832292778763 -756.1120687168838 400.52980424879075
          -749.2501813041813 -746.3285590705085 335.8089938765357 -754.7893823654922 -2387.2919465087894 -2416.559156775238
          -2481.5213536371934 -2481.2218359218136 -2455.86755523623 -3537.973996945721 -3595.512195097214 -3633.026501067345
          -3636.796053440847 -3607.8461269251447 -4384.457584793275 -4501.39093142909 -4526.624478881075 -4480.458564527109
          -4450.080600065012 -5440.693452071114 -5435.795689716751 -5457.603174364701 -5536.96525856244 -5568.2003163284135
          -5582.688698852607 -5598.722305803304 -6807.060750963036 -6793.2643110152385 -6773.355145501785 -6768.311989350738
          -6787.340137543286 -6877.720370222824 -6902.981061208349 -7932.11798649399 -7932.499443909348 -7767.376431234193
          -7678.177989560858 -7752.289282809511 -7966.064946201455 -8024.478842692978 -8107.066762138479 -8082.155355808819
          -8076.918010359599 -8220.720505636558 -8106.28019354908 -8129.67667523715 -8116.121906610819 -8127.691473043461
          -8063.087256740615 -7979.179368452626 -8246.987524048991 -8169.732229161001 -8160.027240097642 -8164.486815668572
          -8191.663418323813 -7801.735759552852 -7863.045514265597 -7970.253926510063 -8059.691375998059 -8207.981313746664
          -8185.591807181443 -8075.271242159395 -7995.88176590854 -7960.119736736636 -7907.859920650046 -8193.114854504724
          -8125.3733377844665 -8051.779134986877 -8051.525157119898 -8162.098487197398 -8099.482408209412 -7972.5591029544075
          -7896.79348393627 -7800.952343132198 -7749.0760869391415 -8204.605894879767 -8196.590919024675 -8105.296583078033
          -8088.245279093203 -8147.124482578841 -7981.063014939975 -7874.152192630704 -7833.996073075626 -7704.014512748912
          -7692.760386996965 -8040.917567678386 -8042.631357554728 -8022.3471196626815 -8054.425331992984 -8096.590475237028
          -7838.213964780202 -7803.719656269905 -7724.221362891047 -7688.927823904892 -7654.441814697187 -7721.008945796799
          -7955.591436989436 -7973.928645000309 -7646.681748761878 -7702.704463991007 -7692.557979720393 -8021.696513473819
          -7698.825695843062 -7784.29731515884 -8008.199962927999 -7832.120836335685 -8069.861594045901 -7732.486956170699
          -7975.518617714198 -7608.0781084384425 -7578.835846787129 -7534.464249070963 -7845.619203591904 -8033.142626100821
          -7800.821007675565 -7877.968020433325 -7968.233930759591 -7970.641540455713 -7983.859773829894 -7991.851261020598
          -7855.920141845229 -7961.734463682727 -7859.208103689567 -7933.279458603665 -8103.893474092756 -7887.775537057588
          -7963.718019482859 -8102.019845306109 -7658.310495175436 -8344.203517503876 -8151.070943641705 -8782.785679176508
          -8904.942182913106 -9127.787885739659 -8486.024462972035 -8517.15927081448 -8589.237024923028 -8818.029463669525
          -7908.589328324072 -9602.103516982957 -9543.251699541943 -9719.654219707429 -7847.750057072835 -9800.195124839041
          -8112.196897294746 -10198.231830083994 -10109.458558407317 -7532.7232600503285 -7937.816307184763 -8444.218043080155
          -8996.258460659197 -8950.174386160696 -8605.940852784754 -8062.286719984939 -7780.193505230506 -6766.224797016884
          -6824.763453828563 -6200.154943633773 -5698.303848955933 -6561.024852087319 -7312.629861793366 -6923.110366874121
          -5840.288714344451 -7066.015513160645 -7697.281549307177 -6368.517968985381 -7317.914117168119 -7154.26412206384
          -6824.966999530609 -7048.97067913516 -7364.428310818584
        </DataArray>
        <DataArray type="Float64" Name="BTraction" NumberOfComponents="3" format="ascii" RangeMin="0" RangeMax="9768.052989603848">
          -112.99510050033199 23.639786314823013 0 -360.7407472501729 -5.83005827214109 0
          -382.2013111019968 -0.06405568516548121 0 -12.225907751383932 926.3687281396958 0
          0 0 0 -387.0647644483006 6.442658271146154 0
          0 0 0 0 0 0
          -111.8114987026906 -15.683584380328156 0 -12.753014203301197 -919.5823373489715 0
          -11.955238603052885 2266.6686087119324 0 0 0 0
          0 0 0 0 0 0
          -13.048123091633522 -2312.1979175263414 0 -11.592888918234118 3473.4263049411043 0
          0 0 0 0 0 0
          0 0 0 -12.815923014116189 -3540.41090918591 0
          -14.03257857812184 4420.823744693181 0 0 0 0
          0 0 0 0 0 0
          -14.54615961638883 -4504.7967510370345 0 -16.997361954936444 5479.898618582808 0
          0 0 0 0 0 0
          0 0 0 0 0 0
          0 0 0 -16.330345372979977 -5614.530747827535 0
          -15.632094031751592 6764.456223183842 0 0 0 0
          0 0 0 0 0 0
          0 0 0 0 0 0
          -16.124442388415865 -6866.346772385236 0 -12.848570621522084 7783.926827736115 0
          0 0 0 0 0 0
          0 0 0 0 0 0
          0 0 0 -13.813370344076922 -7857.928034353934 0
          0 0 0 0 0 0
          0 0 0 0 0 0
          0 0 0 0 0 0
          0 0 0 -1528.695703977778 -6907.125816604673 0
          -8091.925617103621 325.6483906225852 0 -1031.6496171970318 6764.835022887684 0
          -11.82062575411395 8163.801721454497 0 0 0 0
          0 0 0 0 0 0
          -239.66509871230488 -8126.880168476248 0 47.201171081452735 7883.477246782221 0
          0 0 0 0 0 0
          0 0 0 -11.79454369277136 -8159.080354480807 0
          -12.832450782181489 8182.663713094613 0 0 0 0
          0 0 0 0 0 0
          -90.67748898035883 -7928.916090635631 0 -91.66112079761767 8125.480368787195 0
          0 0 0 0 0 0
          0 0 0 -12.792754207336223 -8167.917911065518 0
          -13.030783522160668 8096.108099290498 0 0 0 0
          0 0 0 0 0 0
          -82.7218479960532 -7768.125550152299 0 -93.61590611060983 8178.905855106772 0
          0 0 0 0 0 0
          0 0 0 -12.932367247761158 -8141.962734597171 0
          -13.439616578755414 7982.181697441629 0 0 0 0
          0 0 0 0 0 0
          -81.07360051987497 -7696.539188238398 0 -89.2539235601793 8056.969169033233 0
          0 0 0 0 0 0
          0 0 0 -13.063412003606949 -8091.29598208891 0
          -13.838960381769526 7830.3679549198105 0 0 0 0
          0 0 0 0 0 0
          -76.88911297663171 -7650.167792499447 0 0 0 0
          -77.79909714909645 7963.822197120966 0 0 0 0
          0 0 0 0 0 0
          0 0 0 0 0 0
          0 0 0 0 0 0
          0 0 0 0 0 0
          0 0 0 0 0 0
          0 0 0 0 0 0
          0 0 0 -24.085267734788054 -7605.381113104801 0
          -34.82110742516611 7860.508999385304 0 0 0 0
          0 0 0 0 0 0
          0 0 0 0 0 0
          0 0 0 -13.686820895929035 -7983.73879309312 0
          0 0 0 0 0 0
          -9.682983521928158 7941.227396978824 0 0 0 0
          0 0 0 8.099234440834966 -7909.157465402055 0
          0 0 0 0 0 0
          -15.507571398672049 7669.444171879063 0 0 0 0
          0 0 0 -1860.9769740386002 -7105.518688629978 0
          -8536.100211027951 -2539.4489404900582 0 -7916.186245455223 -4779.559665545139 0
          -1417.0040364955064 7204.366859826487 0 0 0 0
          -8287.328374183371 2335.554920526256 0 -7704.862316976984 4620.300732846323 0
          0 0 0 -6550.441653496703 -6774.313593237684 0
          -6464.009909873798 6742.40476532785 0 0 0 0
          -16.026849150207283 -7862.279719550058 0 -3690.845757446603 -8799.002704756527 0
          0 0 0 0 0 0
          -3797.2727295447044 8999.7543869355 0 -17.482997758466407 7511.591511083669 0
          0 0 0 0 0 0
          1517.1397902827516 -8160.811981228069 0 1727.6214898714763 8125.501569065307 0
          0 0 0 0 0 0
          -18.07352883840235 -7774.305444106142 0 4295.563134873679 -4716.600131291348 0
          4279.850262022266 4805.162519920102 0 0 0 0
          5494.805755205138 -66.14513336458553 0 0 0 0
          -13.105840438675932 7335.492197875803 0 0 0 0
          0 0 0 0 0 0
          -12.674025894070919 -7631.691607492523 0 0 0 0
          -3720.0917275640577 3577.090211513851 0 -7153.943636598829 4.834446095383575 0
          -6916.804801073915 -1.6711228481592988 0 -7092.601421273619 -7.743557924974585 0
          -3614.1803612995845 -3763.655073942761 0
          <InformationKey name="L2_NORM_RANGE" location="vtkDataArray" length="2">
            <Value index="0">
              0
            </Value>
            <Value index="1">
              9768.0529896
            </Value>
          </InformationKey>
        </DataArray>
        <DataArray type="Float64" Name="ALEdispl" NumberOfComponents="3" format="ascii" RangeMin="0" RangeMax="0.0041589217771107675">
          0 0 0 0 0 0
          0 0 0 0 0 0
          -0.00006996292589340586 -0.0003512453011799628 0 0 0 0
          0.00024337909486380426 -0.0014517286249715283 0 -0.0006528909771723298 -0.0009857169128810617 0
          0 0 0 0 0 0
          0 0 0 0.00010154787020022165 0.000022695256941182142 0
          0.000524386375736563 -0.0000024472574446635403 0 -0.0012371250966883966 -0.000025942261374271717 0
          0 0 0 0 0 0
          0.00005498164968487848 0.0002965980139439674 0 0.00005742212907885288 0.0005677702961223531 0
          -0.00042869535535326124 0.0009335077581284607 0 0 0 0
          0 0 0 -0.00035166231879825763 0.0005023949395092747 0
          -0.0004195182047988155 0.0008857388669394218 0 0.00018230409253104928 0.0006917524865700073 0
          0 0 0 0 0 0
          -0.00027666585017990916 0.00006920489408834447 0 -0.0003335576359701378 0.0001749977207354754 0
          -0.000033157452668204666 0.00016848786651444512 0 0.0007185482349518003 -0.00010477070878777595 0
          0.0018338556239730743 -0.00046589045282488685 0 0 0 0
          0 0 0 -0.0009068872560903129 -0.0003226666332712839 0
          -0.0003085082776112572 -0.0005865500620357476 0 0.00005637192051698542 -0.0008312687960557782 0
          0.0010395787407336777 -0.0008366856863970786 0 0.001929240387548437 -0.00013400348135162614 0
          0 0 0 0 0 0
          0.00003977701377559718 -0.0018550773339688251 0 0.000390878616493418 -0.002859593362733025 0
          0.000044259180256600476 -0.0030609005534847585 0 -0.00020854859222435012 -0.002856499257258851 0
          0.00007187594441287146 -0.0018133252714511536 0 0 0 0
          0.001130743040787195 -0.003241024059401256 0 0.0010857203899331275 -0.0036780730390132714 0
          0.0006723378646313072 -0.004027700727789218 0 -0.00015857108467249244 -0.004155897683922449 0
          -0.0007977642476335702 -0.0040704155459039435 0 -0.0010308385259861221 -0.0034977822864509815 0
          -0.00105515544001899 -0.0030875137067608006 0 0.00037738419518520776 -0.0022543501757756154 0
          -0.0000267364348546974 -0.0022466381459176695 0 -0.0004443626012131914 -0.002234142805349911 0
          0 0 0 0.0013498391859295892 -0.00042943142483799673 0
          0.0014285693444934765 -0.00040158584197790904 0 0.0008679940271930251 -0.00027307242983242266 0
          0.00024559379224562496 -0.00004333928594115448 0 -0.000229016414549737 -0.000041690634716852437 0
          -0.0007762404827480487 -0.00021919685975428532 0 -0.0016344961028732469 -0.00047648369647542425 0
          -0.0016971981557798617 -0.0004969489744069947 0 0 0 0
          0 0 0 0.0014095007607319546 -0.00030608422372319365 0
          0.0012395843912269484 -0.0001932960540706446 0 0.00026748570147913057 0.00013152366346844696 0
          -0.00006583779331301012 0.00004604054474729063 0 0.00007666894414748901 0.00004596390889927166 0
          -0.00018925633338621553 0.00003496783572050212 0 -0.0010884306577589918 -0.00016246639184760582 0
          -0.0014576076479646683 -0.00019688387734334762 0 0 0 0
          0 0 0 0.0013098005781193676 -0.0000422131489622999 0
          0.0008956252435910312 0.00012841336331663436 0 0.0003683212284600305 0.00011271016730251908 0
          0.000007763254688622023 0.000006810475370827137 0 -0.000012081365069217639 0.000008155499593246339 0
          -0.00021600895817888214 0.00005358029538149883 0 -0.0008603994503124632 0.00018219733073135576 0
          -0.001216382762942718 0.000060628197778263096 0 0 0 0
          0 0 0 0.0011226942581194202 -0.00007160208998466838 0
          0.0007531968868484462 -0.000010611130842221027 0 0.00033314846920997845 0.00003397105946806088 0
          -0.000001671812591213522 -0.0000013684755304217217 0 -1.0749099291896677e-7 -0.0000019015355080446018 0
          -0.0001794222019634819 0.00002592421350244355 0 -0.0007811050616815934 0.00008905635155552174 0
          -0.000999160821325042 0.00004246196440214227 0 0 0 0
          0 0 0 0.0009758888106955575 -0.00009340429517285399 0
          0.0006628728131963327 -0.000013608982569437916 0 0.0002633381277971444 0.00003840817280740745 0