<?xml version="1.0"?>
<VTKFile type="UnstructuredGrid" version="0.1" byte_order="LittleEndian" header_type="UInt32" compressor="vtkZLibDataCompressor">
  <UnstructuredGrid>
    <Piece NumberOfPoints="177" NumberOfCells="282">
      <PointData>
        <DataArray type="Float64" Name="ale_BC" NumberOfComponents="3" format="ascii" RangeMin="0" RangeMax="0">
          0 0 0 0 0 0
          0 0 0 0 0 0
          0 0 0 0 0 0
          0 0 0 0 0 0
          0 0 0 0 0 0
          0 0 0 0 0 0
          0 0 0 0 0 0
          0 0 0 0 0 0
          0 0 0 0 0 0
          0 0 0 0 0 0
          0 0 0 0 0 0
          0 0 0 0 0 0
          0 0 0 0 0 0
          0 0 0 0 0 0
          0 0 0 0 0 0
          0 0 0 0 0 0
          0 0 0 0 0 0
          0 0 0 0 0 0
          0 0 0 0 0 0
          0 0 0 0 0 0
          0 0 0 0 0 0
          0 0 0 0 0 0
          0 0 0 0 0 0
          0 0 0 0 0 0
          0 0 0 0 0 0
          0 0 0 0 0 0
          0 0 0 0 0 0
          0 0 0 0 0 0
          0 0 0 0 0 0
          0 0 0 0 0 0
          0 0 0 0 0 0
          0 0 0 0 0 0
          0 0 0 0 0 0
          0 0 0 0 0 0
          0 0 0 0 0 0
          0 0 0 0 0 0
          0 0 0 0 0 0
          0 0 0 0 0 0
          0 0 0 0 0 0
          0 0 0 0 0 0
          0 0 0 0 0 0
          0 0 0 0 0 0
          0 0 0 0 0 0
          0 0 0 0 0 0
          0 0 0 0 0 0
          0 0 0 0 0 0
          0 0 0 0 0 0
          0 0 0 0 0 0
          0 0 0 0 0 0
          0 0 0 0 0 0
          0 0 0 0 0 0
          0 0 0 0 0 0
          0 0 0 0 0 0
          0 0 0 0 0 0
          0 0 0 0 0 0
          0 0 0 0 0 0
          0 0 0 0 0 0
          0 0 0 0 0 0
          0 0 0 0 0 0
          0 0 0 0 0 0
          0 0 0 0 0 0
          0 0 0 0 0 0
          0 0 0 0 0 0
          0 0 0 0 0 0
          0 0 0 0 0 0
          0 0 0 0 0 0
          0 0 0 0 0 0
          0 0 0 0 0 0
          0 0 0 0 0 0
          0 0 0 0 0 0
          0 0 0 0 0 0
          0 0 0 0 0 0
          0 0 0 0 0 0
          0 0 0 0 0 0
          0 0 0 0 0 0
          0 0 0 0 0 0
          0 0 0 0 0 0
          0 0 0 0 0 0
          0 0 0 0 0 0
          0 0 0 0 0 0
          0 0 0 0 0 0
          0 0 0 0 0 0
          0 0 0 0 0 0
          0 0 0 0 0 0
          0 0 0 0 0 0
          0 0 0 0 0 0
          0 0 0 0 0 0
          0 0 0 0 0 0
          0 0 0
          <InformationKey name="L2_NORM_RANGE" location="vtkDataArray" length="2">
            <Value index="0">
              0
            </Value>
            <Value index="1">
              0
            </Value>
          </InformationKey>
        </DataArray>
        <DataArray type="Float64" Name="ale_FIXNO" NumberOfComponents="3" format="ascii" RangeMin="1.4142135623730951" RangeMax="5.656854249492381">
          1 1 0 1 1 0
          1 1 0 1 1 0
          -1 -1 0 1 1 0
          -1 -1 0 -1 -1 0
          1 1 0 1 1 0
          1 1 0 -1 -1 0
          -1 -1 0 -1 -1 0
          1 1 0 1 1 0
          -1 -1 0 -1 -1 0
          -1 -1 0 1 1 0
          1 1 0 -1 -1 0
          -1 -1 0 -1 -1 0
          1 1 0 1 1 0
          -1 -1 0 -1 -1 0
          -1 -1 0 -1 -1 0
          -1 -1 0 1 1 0
          1 1 0 -1 -1 0
          -1 -1 0 -1 -1 0
          -1 -1 0 -1 -1 0
          1 1 0 1 1 0
          -1 -1 0 -1 -1 0
          -1 -1 0 -1 -1 0
          -1 -1 0 1 1 0
          -1 -1 0 -1 -1 0
          -1 -1 0 -1 -1 0
          -1 -1 0 -1 -1 0
          -1 -1 0 4 4 0
          4 4 0 4 4 0
          1 1 0 -1 -1 0
          -1 -1 0 -1 -1 0
          4 4 0 4 4 0
          -1 -1 0 -1 -1 0
          -1 -1 0 1 1 0
          1 1 0 -1 -1 0
          -1 -1 0 -1 -1 0
          4 4 0 4 4 0
          -1 -1 0 -1 -1 0
          -1 -1 0 1 1 0
          1 1 0 -1 -1 0
          -1 -1 0 -1 -1 0
          4 4 0 4 4 0
          -1 -1 0 -1 -1 0
          -1 -1 0 1 1 0
          1 1 0 -1 -1 0
          -1 -1 0 -1 -1 0
          4 4 0 4 4 0
          -1 -1 0 -1 -1 0
          -1 -1 0 1 1 0
          1 1 0 -1 -1 0
          -1 -1 0 -1 -1 0
          4 4 0 -1 -1 0
          4 4 0 -1 -1 0
          -1 -1 0 -1 -1 0
          -1 -1 0 -1 -1 0
          -1 -1 0 -1 -1 0
          -1 -1 0 -1 -1 0
          -1 -1 0 -1 -1 0
          -1 -1 0 -1 -1 0
          -1 -1 0 4 4 0
          4 4 0 -1 -1 0
          -1 -1 0 -1 -1 0
          -1 -1 0 -1 -1 0
          -1 -1 0 1 1 0
          -1 -1 0 -1 -1 0
          4 4 0 -1 -1 0
          -1 -1 0 4 4 0
          -1 -1 0 -1 -1 0
          1 1 0 -1 -1 0
          -1 -1 0 4 4 0
          1 1 0 1 1 0
          4 4 0 -1 -1 0
          1 1 0 1 1 0
          -1 -1 0 1 1 0
          1 1 0 -1 -1 0
          1 1 0 1 1 0
          -1 -1 0 -1 -1 0
          1 1 0 1 1 0
          -1 -1 0 -1 -1 0
          1 1 0 1 1 0
          -1 -1 0 -1 -1 0
          1 1 0 1 1 0
          1 1 0 -1 -1 0
          1 1 0 -1 -1 0
          1 1 0 -1 -1 0
          -1 -1 0 -1 -1 0
          1 1 0 -1 -1 0
          1 1 0 1 1 0
          1 1 0 1 1 0
          1 1 0
          <InformationKey name="L2_NORM_RANGE" location="vtkDataArray" length="2">
            <Value index="0">
              1.4142135624
            </Value>
            <Value index="1">
              5.6568542495
            </Value>
          </InformationKey>
        </DataArray>
        <DataArray type="Float64" Name="nsi_BC" NumberOfComponents="3" format="ascii" RangeMin="0" RangeMax="1.5">
          0 0 0 1.5 0 0
          1.5 0 0 0 0 0
          1.5 0 0 1.5 0 0
          1.5 0 0 1.5 0 0
          0 0 0 0 0 0
          0 0 0 1.5 0 0
          1.5 0 0 1.5 0 0
          0 0 0 0 0 0
          1.5 0 0 1.5 0 0
          1.5 0 0 0 0 0
          0 0 0 1.5 0 0
          1.5 0 0 1.5 0 0
          0 0 0 0 0 0
          1.5 0 0 1.5 0 0
          1.5 0 0 1.5 0 0
          1.5 0 0 0 0 0
          0 0 0 1.5 0 0
          1.5 0 0 1.5 0 0
          1.5 0 0 1.5 0 0
          0 0 0 0 0 0
          1.5 0 0 1.5 0 0
          1.5 0 0 1.5 0 0
          1.5 0 0 0 0 0
          1.5 0 0 1.5 0 0
          1.5 0 0 1.5 0 0
          1.5 0 0 1.5 0 0
          1.5 0 0 0 0 0
          0 0 0 0 0 0
          0 0 0 1.5 0 0
          1.5 0 0 1.5 0 0
          0 0 0 0 0 0
          1.5 0 0 1.5 0 0
          1.5 0 0 0 0 0
          0 0 0 1.5 0 0
          1.5 0 0 1.5 0 0
          0 0 0 0 0 0
          1.5 0 0 1.5 0 0
          1.5 0 0 0 0 0
          0 0 0 1.5 0 0
          1.5 0 0 1.5 0 0
          0 0 0 0 0 0
          1.5 0 0 1.5 0 0
          1.5 0 0 0 0 0
          0 0 0 1.5 0 0
          1.5 0 0 1.5 0 0
          0 0 0 0 0 0
          1.5 0 0 1.5 0 0
          1.5 0 0 0 0 0
          0 0 0 1.5 0 0
          1.5 0 0 1.5 0 0
          0 0 0 1.5 0 0
          0 0 0 1.5 0 0
          1.5 0 0 1.5 0 0
          1.5 0 0 1.5 0 0
          1.5 0 0 1.5 0 0
          1.5 0 0 1.5 0 0
          1.5 0 0 1.5 0 0
          1.5 0 0 1.5 0 0
          1.5 0 0 0 0 0
          0 0 0 1.5 0 0
          1.5 0 0 1.5 0 0
          1.5 0 0 1.5 0 0
          1.5 0 0 0 0 0
          1.5 0 0 1.5 0 0
          0 0 0 1.5 0 0
          1.5 0 0 0 0 0
          1.5 0 0 1.5 0 0
          0 0 0 1.5 0 0
          1.5 0 0 0 0 0
          0 0 0 0 0 0
          0 0 0 1.5 0 0
          0 0 0 0 0 0
          1.5 0 0 0 0 0
          0 0 0 1.5 0 0
          0 0 0 0 0 0
          1.5 0 0 1.5 0 0
          0 0 0 0 0 0
          1.5 0 0 1.5 0 0
          0 0 0 0 0 0
          1.5 0 0 1.5 0 0
          0 0 0 0 0 0
          0 0 0 1.5 0 0
          0 0 0 1.5 0 0
          0 0 0 1.5 0 0
          1.5 0 0 1.5 0 0
          0 0 0 1.5 0 0
          0 0 0 1.339432 0 0
          1.498641 0 0 1.313156 0 0
          0 0 0
          <InformationKey name="L2_NORM_RANGE" location="vtkDataArray" length="2">
            <Value index="0">
              0
            </Value>
            <Value index="1">
              1.5
            </Value>
          </InformationKey>
        </DataArray>
        <DataArray type="Float64" Name="nsi_FIXNO" NumberOfComponents="3" format="ascii" RangeMin="0" RangeMax="1.4142135623730951">
          1 1 0 0 0 0
          0 0 0 1 1 0
          0 0 0 0 0 0
          0 0 0 0 0 0
          1 1 0 1 1 0
          1 1 0 0 0 0
          0 0 0 0 0 0
          1 1 0 1 1 0
          0 0 0 0 0 0
          0 0 0 1 1 0
          1 1 0 0 0 0
          0 0 0 0 0 0
          1 1 0 1 1 0
          0 0 0 0 0 0
          0 0 0 0 0 0
          0 0 0 1 1 0
          1 1 0 0 0 0
          0 0 0 0 0 0
          0 0 0 0 0 0
          1 1 0 1 1 0
          0 0 0 0 0 0
          0 0 0 0 0 0
          0 0 0 1 1 0
          0 0 0 0 0 0
          0 0 0 0 0 0
          0 0 0 0 0 0
          0 0 0 1 1 0
          1 1 0 1 1 0
          1 1 0 0 0 0
          0 0 0 0 0 0
          1 1 0 1 1 0
          0 0 0 0 0 0
          0 0 0 1 1 0
          1 1 0 0 0 0
          0 0 0 0 0 0
          1 1 0 1 1 0
          0 0 0 0 0 0
          0 0 0 1 1 0
          1 1 0 0 0 0
          0 0 0 0 0 0
          1 1 0 1 1 0
          0 0 0 0 0 0
          0 0 0 1 1 0
          1 1 0 0 0 0
          0 0 0 0 0 0
          1 1 0 1 1 0
          0 0 0 0 0 0
          0 0 0 1 1 0
          1 1 0 0 0 0
          0 0 0 0 0 0
          1 1 0 0 0 0
          1 1 0 0 0 0
          0 0 0 0 0 0
          0 0 0 0 0 0
          0 0 0 0 0 0
          0 0 0 0 0 0
          0 0 0 0 0 0
          0 0 0 0 0 0
          0 0 0 1 1 0
          1 1 0 0 0 0
          0 0 0 0 0 0
          0 0 0 0 0 0
          0 0 0 1 1 0
          0 0 0 0 0 0
          1 1 0 0 0 0
          0 0 0 1 1 0
          0 0 0 0 0 0
          1 1 0 0 0 0
          0 0 0 1 1 0
          1 1 0 1 1 0
          1 1 0 0 0 0
          1 1 0 1 1 0
          0 0 0 1 1 0
          1 1 0 0 0 0
          1 1 0 1 1 0
          0 0 0 0 0 0
          1 1 0 1 1 0
          0 0 0 0 0 0
          1 1 0 1 1 0
          0 0 0 0 0 0
          1 1 0 1 1 0
          1 1 0 0 0 0
          1 1 0 0 0 0
          1 1 0 0 0 0
          0 0 0 0 0 0
          1 1 0 0 0 0
          1 1 0 1 1 0
          1 1 0 1 1 0
          1 1 0
          <InformationKey name="L2_NORM_RANGE" location="vtkDataArray" length="2">
            <Value index="0">
              0
            </Value>
            <Value index="1">
              1.4142135624
            </Value>
          </InformationKey>
        </DataArray>
        <DataArray type="Float64" Name="Velocity" NumberOfComponents="3" format="ascii" RangeMin="0" RangeMax="2.803241650876499">
          0 0 0 1.1566226437722813 0.10495536105365709 0
          1.2951242201196849 -0.02275268416692838 0 0 0 0
          1.4142420658175265 0.02088324664214088 0 1.2325969536794075 -0.030615111439237643 0
          1.4405335428592188 -0.005052007266841391 0 1.3958264457551492 -0.010157853034600864 0
          0 0 0 0 0 0
          0 0 0 1.3631196407722757 0.011501334543497601 0
          1.410653534878532 0.0016246032593100097 0 1.3637271639747883 -0.0034606386801399737 0
          0 0 0 0 0 0
          1.3482222050564778 0.004068091518826138 0 1.3993359154119225 0.00008274382632240505 0
          1.3503181310575136 0.008020120657646465 0 0 0 0
          0 0 0 1.2912392884399648 -0.01589747541209085 0
          1.3538768715127594 0.007311243808985702 0 1.3238974381842235 0.018977645525377704 0
          0 0 0 0 0 0
          1.197611833342641 0.029388849545352497 0 1.2907285228428562 0.0008024551609415996 0
          1.2766577340602063 -0.013458662249205215 0 1.2899437166838934 0.005155136595048053 0
          1.1893389803949408 0.0014951520192800275 0 0 0 0
          0 0 0 1.2273231430644458 0.012844854791251676 0
          1.272887411603877 0.0009960246254312381 0 1.2728628361432837 -0.009746824584361076 0
          1.3019585560147509 -0.007487361659621525 0 1.1765400513239115 0.01135151722578258 0
          0 0 0 0 0 0
          1.2161808691657052 -0.010648364409574524 0 1.2983248832384915 -0.004168689944343517 0
          1.2480362965766905 -0.024365471294610443 0 1.289311404076434 0.031614282144898455 0
          1.2526356594361105 0.013665145639565973 0 0 0 0
          1.345878199980792 -0.06815443988518088 0 1.4283881534364054 -0.13402017089648044 0
          1.2809007664081247 -0.16613797645441922 0 1.1804517085958965 0.16926222056629242 0
          1.3938108186510185 0.15546346944257808 0 1.4268311371649995 0.14613503417171977 0
          1.290253413050283 0.06109446214526349 0 0.055747914218473305 -0.27863868121511254 0
          -0.0007507083135104859 -0.27809215499663237 0 -0.051632951618668904 -0.27208562781282347 0
          0 0 0 1.4086397645389908 -0.039643992563610564 0
          1.4604791264097379 -0.0692793449853285 0 1.4223845740443462 -0.08131773370784602 0
          0.02243714988572189 0.031201794629937607 0 -0.015362939363600336 0.03017718037352113 0
          1.4374151846851535 0.041438594964457204 0 1.460706725648881 0.07188605732326277 0
          1.3911018967317992 0.04320858818585141 0 0 0 0
          0 0 0 1.405093130454206 -0.039745934895664775 0
          1.4556136062159781 -0.02516698915395612 0 1.4399605260208914 -0.0069587985722768106 0
          -0.001484410857745671 -0.004374152353879864 0 -0.0009140730159808365 -0.0050665476041300995 0
          1.4067591425734018 0.00322020927871642 0 1.4808101047740172 0.014997248379938892 0
          1.4174511400378371 0.0348749316531486 0 0 0 0
          0 0 0 1.4229349405443146 -0.04029016122743146 0
          1.4692974776040617 -0.023462654655994925 0 1.3638187113305447 0.008726238272726271 0
          -0.00013904172881078802 0.00001540044671921105 0 0.00009083686563243025 -0.000004750546037339984 0
          1.36717842812924 0.004411020350566458 0 1.4615323449011466 -0.0002507240904306875 0
          1.4248449481704093 0.04762963090664137 0 0 0 0
          0 0 0 1.4234202411819754 -0.051818463927546375 0
          1.4098051571684225 -0.07068028283034192 0 1.3487499279339008 -0.006716307438823741 0
          0.0000037931467269573785 0.000005173305473156971 0 -0.000004177220655482677 0.000004981209731156404 0
          1.3210159999880098 0.015492152040666287 0 1.4380696163386557 0.03660310722554626 0
          1.4281057585283592 0.07629096867509168 0 0 0 0
          0 0 0 1.5226292448217187 -0.11204838303595957 0
          1.38014233389363 -0.13831274804556307 0 1.2020485252495265 -0.028417062295797286 0
          -5.986044084121825e-8 -2.9803221937582257e-7 0 1.3244245670972583 -0.13446596857703172 0
          5.379119520482346e-8 -3.006940287929323e-7 0 1.1598277085448998 0.020224275531443844 0
          1.3304050644480596 -0.17040173851766072 0 1.2578254831304905 -0.11104867589908064 0
          1.258708190409135 -0.13137041220484885 0 1.4248789991714863 0.14715869549030322 0
          1.2312423547069478 -0.09081829820743192 0 1.2670566785601802 -0.1341173071118083 0
          1.2770620332834164 0.1865832382079391 0 1.3068667178049986 -0.15079584342897734 0
          1.5289474555752738 0.08629470200013055 0 1.366917732037253 -0.1666784476176559 0
          1.357494126503912 0.2344845968029327 0 1.091804346185773 -0.2830638913298166 0
          0.8690616833738224 -0.06072002156651769 0 1.0672488840299117e-7 2.3860328501360944e-8 0
          -1.0714446201761215e-7 2.344537378802716e-8 0 1.2968367614401577 0.19931605062253666 0
          1.3238378686953218 -0.48607277723751446 0 0.8898533202643156 -0.04520156625923255 0
          1.0446894424213502 0.21215709670064922 0 1.3903024407497884 0.2967448658746395 0
          1.4106393288081913 0.30907102521364954 0 0 0 0
          1.3789645400167743 0.3372745636984158 0 1.3792583603993487 0.5097686319044329 0
          5.203568111220767e-9 1.6303453258131262e-8 0 0.36926153172148224 0.048641937791258485 0
          0.7448368929792499 0.42103005506121977 0 -4.717353496917705e-9 1.4559383897869614e-8 0
          0.23326086118351733 -0.1019916959654581 0 0.3823666484454797 -0.4306749649148843 0
          0 0 0 1.4897326651206562 -0.7957301754431378 0
          1.4588469183562447 0.7144874319461659 0 -4.2683107431074226e-24 1.1679000153795584e-23 0
          0 0 0 0 0 0
          -8.768385378653627e-24 -2.7472487745840904e-23 0 1.3938515831379852 0.6893479390887429 0
          0 0 0 0 0 0
          1.8350018259448222 -0.08581987553872966 0 0 0 0
          0 0 0 2.6909069277870517 -0.4202662797301967 0
          0 0 0 0 0 0
          1.8644008085951025 0.07047420218054584 0 2.78815711507071 0.2904197908018239 0
          0 0 0 0 0 0
          1.880834271379604 0.05745077124863202 0 2.147478008951806 0.877829845073314 0
          0 0 0 0 0 0
          2.0840455349833626 -0.9620848769869489 0 1.8912467591842206 -0.11273838045698437 0
          0 0 0 0 0 0
          0 0 0 0.9275693461522032 0.9532367192039448 0
          0 0 0 0.9314489242926938 -0.951935512196268 0
          0 0 0 1.4925852987696648 0.22248900115123246 0
          0.6495589766608415 -0.010527255395251348 0 1.5095185150878272 -0.3527122202248624 0
          0 0 0 1.284250691903629 0.052105503224434 0
          0 0 0 1.339432 0 0
          1.4986410000000001 0 0 1.3131559999999998 0 0
          0 0 0
          <InformationKey name="L2_NORM_RANGE" location="vtkDataArray" length="2">
            <Value index="0">
              0
            </Value>
            <Value index="1">
              2.8032416509
            </Value>
          </InformationKey>
        </DataArray>
        <DataArray type="Float64" Name="Pressure" format="ascii" RangeMin="-20792.437640660777" RangeMax="713.1135736945379">
          384.97805364493973 544.599083742222 713.1135736945379 -1499.60263020128 -1363.3757724069667 687.2401188966641
          -1292.500895174723 -1346.319040265639 542.7191496098761 -1401.9301061496492 -4310.5184049326335 -4327.082665066921
          -4382.770047745127 -4417.7865901284085 -4422.860146279546 -6515.621828436657 -6584.852071812551 -6650.903353722362
          -6677.04044927365 -6657.2029129091525 -8543.021612442213 -8690.414616865091 -8748.618399674791 -8666.678860197442
          -8604.428660655762 -11422.054434969748 -11367.963446790613 -11332.376022208142 -11426.383600908599 -11445.586902114032
          -11430.350631801904 -11450.96407234334 -14664.048760275211 -14642.04316968948 -14584.906410262716 -14563.349478816666
          -14586.609714213282 -14657.599540765657 -14662.436094778734 -17482.39042712027 -17525.81457358146 -17353.7978630622
          -17253.26101849552 -17282.92470924706 -17411.60739191026 -17384.826143067286 -18178.652804092486 -18278.88807302525
          -18339.163856626194 -18393.96365769307 -18052.559652399537 -18061.560058613613 -17938.005473612197 -18483.495092329398
          -18215.26059985641 -17863.41312380758 -18606.352217268373 -18662.54583096272 -18667.900910042295 -18622.486474738773
          -18585.751159087045 -17671.713067003035 -17720.453223362943 -18036.135326581218 -18215.173507657368 -18329.429824887484
          -18688.442211656355 -18710.47848889856 -18632.99658676025 -18526.254794517925 -18509.849521290333 -17891.588813220245
          -17929.049560439384 -18107.344788363367 -18249.08352662222 -18405.170499023407 -18653.993596753182 -18657.257722804214
          -18599.545892084705 -18522.416936042195 -18516.37596881813 -18161.479968608346 -18178.57881193906 -18234.242308370922
          -18310.734432034333 -18442.02132209526 -18530.57460931178 -18521.27013027607 -18513.9864562224 -18522.333053338432
          -18505.34860678575 -18317.605758500486 -18334.323990400062 -18291.716124800765 -18324.201482696855 -18440.143691708407
          -18439.85347181857 -18512.25927312129 -18551.33379612634 -18467.612369167975 -18408.176827268675 -18504.162318044342
          -18366.950759424162 -18365.019498412417 -18478.919825123132 -18471.97865039743 -18433.637910249774 -18343.137438448208
          -18436.963034081342 -18589.15756710804 -18401.724431217735 -18617.343021097728 -18444.942870792125 -18646.277083536857
          -18336.38921119449 -18185.46267608202 -18212.106141450266 -18216.292971555347 -18034.546584091036 -18350.857258427255
          -18653.942869615785 -18013.984370059163 -18177.562341509823 -18316.68968856469 -18379.931844764993 -18376.40812867398
          -18485.143754826382 -18442.206411845982 -18149.938019674588 -18184.065441614257 -18377.042687718727 -18536.043348953848
          -18571.816662556088 -18672.898190466 -18321.31438946022 -18892.649015571747 -18649.041246284763 -19438.03708296515
          -19545.590360443868 -19716.545501287546 -19034.608808435172 -18862.643086031338 -19132.527906169526 -19326.008150348385
          -18706.44364729164 -19874.643967917316 -19950.59905626655 -20233.170058791555 -18336.01487795221 -19849.300000215222
          -18637.01097391772 -20792.437640660777 -20261.591493463297 -18068.822775251898 -18286.851342480735 -18460.018563162044
          -18795.37419645609 -18788.78941376046 -18568.56416188214 -18274.632649809686 -18204.05785648646 -16093.01060007877
          -16233.259359331858 -15586.307426346253 -14944.133013328405 -15961.760411972984 -17492.338167043294 -16664.98802676593
          -15090.478275311665 -16647.80008251073 -17805.101184831583 -15691.590374876949 -17331.966886075657 -16773.418474130645
          -16210.183898220812 -16532.42534824496 -17212.646707149423
        </DataArray>
        <DataArray type="Float64" Name="BTraction" NumberOfComponents="3" format="ascii" RangeMin="0" RangeMax="19743.83767614401">
          -141.60190244969235 166.65734763791164 0 -547.221761312259 -5.827405647892433 0
          -682.0183028810754 -0.23723785648082657 0 -12.903879467172828 1750.541195639149 0
          0 0 0 -668.1727473199957 6.4401126163030336 0
          0 0 0 0 0 0
          -179.31371613689132 -71.0459572221675 0 -13.281048931688854 -1693.890754572379 0
          -12.59785385721631 4124.107386159087 0 0 0 0
          0 0 0 0 0 0
          -13.799008804772278 -4195.851120724736 0 -12.243207782128035 6456.240200577503 0
          0 0 0 0 0 0
          0 0 0 -13.479076518653246 -6576.040251222204 0
          -15.136766084536932 8688.771377489038 0 0 0 0
          0 0 0 0 0 0
          -15.620735749191084 -8762.916174478656 0 -18.47167536720695 11452.419322284464 0
          0 0 0 0 0 0
          0 0 0 0 0 0
          0 0 0 -17.83558980043557 -11486.823095933383 0
          -16.960572677991227 14588.17144512291 0 0 0 0
          0 0 0 0 0 0
          0 0 0 0 0 0
          -17.617577510259235 -14565.709880074579 0 -13.67260843207869 17162.524169396078 0
          0 0 0 0 0 0
          0 0 0 0 0 0
          0 0 0 -14.760004444641206 -17058.607373196275 0
          0 0 0 0 0 0
          0 0 0 0 0 0
          0 0 0 0 0 0
          0 0 0 -3102.2471042050433 -15718.517237137386 0
          -18230.578447837725 630.5586946956419 0 -2465.667012645249 15213.30895910905 0
          -12.101482739398177 18330.702306608884 0 0 0 0
          0 0 0 0 0 0
          -267.7673482782471 -18548.16237763419 0 60.71489314807718 17736.22163906113 0
          0 0 0 0 0 0
          0 0 0 -12.05570163501873 -18099.406367113832 0
          -12.746746713081064 18669.550361520967 0 0 0 0
          0 0 0 0 0 0
          -75.01119991891048 -18524.214562336903 0 -112.70497135647327 17896.27183069683 0
          0 0 0 0 0 0
          0 0 0 -12.8195993694017 -18398.77946639349 0
          -12.835790841732138 18640.94736597994 0 0 0 0
          0 0 0 0 0 0
          -88.66533128221438 -18513.634166345484 0 -94.75618579445398 18139.460681236473 0
          0 0 0 0 0 0
          0 0 0 -13.012042210857253 -18436.169992355506 0
          -13.24732494063904 18540.48657520061 0 0 0 0
          0 0 0 0 0 0
          -83.71477217570953 -18490.56464235109 0 -92.62013500979516 18295.1760671073 0
          0 0 0 0 0 0
          0 0 0 -13.096308723229692 -18432.12930648788 0
          -13.733081513089154 18434.803698770836 0 0 0 0
          0 0 0 0 0 0
          -78.89539842696348 -18409.491210650936 0 0 0 0
          -82.1240816757808 18323.859140690303 0 0 0 0
          0 0 0 0 0 0
          0 0 0 0 0 0
          0 0 0 0 0 0
          0 0 0 0 0 0
          0 0 0 0 0 0
          0 0 0 0 0 0
          0 0 0 -50.72128429119375 -18287.866187380052 0
          -54.861478628148475 18099.465014636844 0 0 0 0
          0 0 0 0 0 0
          0 0 0 0 0 0
          0 0 0 -13.655882638655322 -18380.508293567018 0
          0 0 0 0 0 0
          -29.38517435032546 18242.627327827002 0 0 0 0
          0 0 0 -19.47286212268877 -18563.2066947434 0
          0 0 0 0 0 0
          -15.147297596526323 18300.77406517277 0 0 0 0
          0 0 0 -4107.246657155997 -16004.480697805959 0
          -18738.56193892307 -5570.428741753861 0 -16861.84818646763 -10195.435787840095 0
          -3171.029145843867 16302.016889204857 0 0 0 0
          -18435.9357653448 5191.80941709269 0 -16680.49106258169 10006.16585426668 0
          0 0 0 -13520.222526107196 -14003.13682732766 0
          -13487.49039751077 14029.944616677212 0 0 0 0
          -15.696422857501029 -18322.203800481493 0 -7398.039882092125 -17930.063121860712 0
          0 0 0 0 0 0
          -7570.453682164898 18234.78426601531 0 -16.797132220698675 18001.150808700946 0
          0 0 0 0 0 0
          3479.693223500636 -17345.730730777595 0 3952.773391777488 17321.962989754516 0
          0 0 0 0 0 0
          -17.437510717714414 -18149.772552039474 0 10427.652402259775 -10844.59129391314 0
          10391.680455682419 11044.56676552801 0 0 0 0
          14056.118904634699 -163.5710252700076 0 0 0 0
          -12.915770207426565 17519.780366188133 0 0 0 0
          0 0 0 0 0 0
          -12.45636668731863 -17717.248562010645 0 0 0 0
          -8773.1304283291 8498.768287846138 0 -16832.235299094144 5.408326913601657 0
          -16358.90619284828 -1.3298835890151897 0 -16646.459465717915 -7.715669593859452 0
          -8450.114756089264 -8758.997864823017 0
          <InformationKey name="L2_NORM_RANGE" location="vtkDataArray" length="2">
            <Value index="0">
              0
            </Value>
            <Value index="1">
              19743.837676
            </Value>
          </InformationKey>
        </DataArray>
        <DataArray type="Float64" Name="ALEdispl" NumberOfComponents="3" format="ascii" RangeMin="0" RangeMax="0.0024017947590682614">
          0 0 0 0 0 0
          0 0 0 0 0 0
          0.00001215862412112287 -0.000024545068745738282 0 0 0 0
          0.000055067520327733794 -0.00008242559739923361 0 -0.00014446895674864922 0.000008353177288632816 0
          0 0 0 0 0 0
          0 0 0 0.00001327947955693938 0.000006850243375628474 0
          0.00017411299059634757 3.299061289358776e-7 0 -0.0003208630027157897 -0.000010763176726820173 0
          0 0 0 0 0 0
          -0.00002159256536022796 0.00010687104502043698 0 0.000014652012798464521 0.00022476128532633631 0
          -0.0002140120219100156 0.0003613328144851108 0 0 0 0
          0 0 0 -0.0002073377415817355 0.0002722428318352772 0
          -0.0001955625486795257 0.00046340773683936127 0 0.00014763232401440284 0.0003484821284967888 0
          0 0 0 0 0 0
          -0.00015502400343811242 0.00003025825490931927 0 -0.00018028376769810875 0.0000755207841246323 0
          -0.000010339235834307826 0.00006147274564224605 0 0.0004359702088245742 -0.0000790841680414497 0
          0.001033684034018276 -0.00026126207421366305 0 0 0 0
          0 0 0 -0.00048433311118898596 -0.00020059306005697135 0
          -0.00011524267634534521 -0.00039953184695330903 0 0.000021610241461898546 -0.0005759799762526866 0
          0.000622980100547518 -0.0005563848066080341 0 0.001128897053515399 -0.00007481101951428011 0
          0 0 0 0 0 0
          0.0001873374327838081 -0.001100376332787936 0 0.0004673754877846642 -0.0017190758610128947 0
          0.00009241569366712011 -0.001894787107144862 0 -0.00026534575152854003 -0.0017838506978898056 0
          -0.00006135346053641625 -0.0011080355038345314 0 0 0 0
          0.0008733420854576095 -0.0018982415897638668 0 0.0008647770885910493 -0.002152893731661095 0
          0.0006237548259897806 -0.002319385259447474 0 0.000026034504470848485 -0.0023883575969819142 0
          -0.0005779320159393153 -0.0022242673776881835 0 -0.000747781285516075 -0.0019282689125816896 0
          -0.0007522119690387155 -0.0016975513831502013 0 0.00036478379201109574 -0.001206291377799489 0
          0.000005598195780612887 -0.00115242762639818 0 -0.0003399025060080922 -0.0011367136120639053 0
          0 0 0 0.0009271336164846508 -0.00015813080140399596 0
          0.0009566980302706357 -0.00011377523030630822 0 0.0004883992214567689 -0.000024316040473142764 0
          0.0000449980575494036 0.00009595330368784713 0 -0.00003872502911637128 0.00009809780377158967 0
          -0.0004031313462994224 0.000013328898471453427 0 -0.0010107900757933158 -0.00019219511868188153 0
          -0.0010762484854956876 -0.00021626337838252598 0 0 0 0
          0 0 0 0.0009085858902683709 -0.00005984079374625749 0
          0.0007960086164579534 0.00004974926032493907 0 0.00017018116622760936 0.00027667038880667226 0
          -0.0000010722183629721298 -0.000006674894448877931 0 -0.000002985440531665869 -0.000007979089464577107 0
          -0.0001350853408132931 -0.00001776531278996698 0 -0.0006363850701093306 -0.00009915401377385755 0
          -0.0008859403926641465 -0.00010341855093915434 0 0 0 0
          0 0 0 0.0008031843970734762 -0.000012391470741042753 0
          0.0005896943868260406 0.00008460475495528384 0 0.0004158839617658182 0.000015077268104084696 0
          -2.1728784961397584e-7 -5.444608663132489e-9 0 1.4686933327779081e-7 -3.5171961918105096e-8 0
          -0.00008879730172515723 0.000008061651440294526 0 -0.0005055578120292726 0.00003469476822890231 0
          -0.0007494403377194341 -0.000005926913853271101 0 0 0 0
          0 0 0 0.0006929577815750617 -0.00005515567579579211 0
          0.0004978358344849769 -0.000014788093438499747 0 0.0003057472855552353 0.00002224500170929975 0
          4.472619163733325e-9 7.933980656221093e-9 0 -5.0193598159242325e-9 7.654669649512984e-9 0
          -0.00008877635843330011 0.000014669077158958623 0 -0.000441878028855766 0.00004833891470995474 0
          -0.0006150286005250003 0.000018981714530972456 0 0 0 0