<?xml version="1.0"?>
<VTKFile type="UnstructuredGrid" version="0.1" byte_order="LittleEndian" header_type="UInt32" compressor="vtkZLibDataCompressor">
  <UnstructuredGrid>
    <Piece NumberOfPoints="177" NumberOfCells="282">
      <PointData>
        <DataArray type="Float64" Name="ale_BC" NumberOfComponents="3" format="ascii" RangeMin="0" RangeMax="0">
          0 0 0 0 0 0
          0 0 0 0 0 0
          0 0 0 0 0 0
          0 0 0 0 0 0
          0 0 0 0 0 0
          0 0 0 0 0 0
          0 0 0 0 0 0
          0 0 0 0 0 0
          0 0 0 0 0 0
          0 0 0 0 0 0
          0 0 0 0 0 0
          0 0 0 0 0 0
          0 0 0 0 0 0
          0 0 0 0 0 0
          0 0 0 0 0 0
          0 0 0 0 0 0
          0 0 0 0 0 0
          0 0 0 0 0 0
          0 0 0 0 0 0
          0 0 0 0 0 0
          0 0 0 0 0 0
          0 0 0 0 0 0
          0 0 0 0 0 0
          0 0 0 0 0 0
          0 0 0 0 0 0
          0 0 0 0 0 0
          0 0 0 0 0 0
          0 0 0 0 0 0
          0 0 0 0 0 0
          0 0 0 0 0 0
          0 0 0 0 0 0
          0 0 0 0 0 0
          0 0 0 0 0 0
          0 0 0 0 0 0
          0 0 0 0 0 0
          0 0 0 0 0 0
          0 0 0 0 0 0
          0 0 0 0 0 0
          0 0 0 0 0 0
          0 0 0 0 0 0
          0 0 0 0 0 0
          0 0 0 0 0 0
          0 0 0 0 0 0
          0 0 0 0 0 0
          0 0 0 0 0 0
          0 0 0 0 0 0
          0 0 0 0 0 0
          0 0 0 0 0 0
          0 0 0 0 0 0
          0 0 0 0 0 0
          0 0 0 0 0 0
          0 0 0 0 0 0
          0 0 0 0 0 0
          0 0 0 0 0 0
          0 0 0 0 0 0
          0 0 0 0 0 0
          0 0 0 0 0 0
          0 0 0 0 0 0
          0 0 0 0 0 0
          0 0 0 0 0 0
          0 0 0 0 0 0
          0 0 0 0 0 0
          0 0 0 0 0 0
          0 0 0 0 0 0
          0 0 0 0 0 0
          0 0 0 0 0 0
          0 0 0 0 0 0
          0 0 0 0 0 0
          0 0 0 0 0 0
          0 0 0 0 0 0
          0 0 0 0 0 0
          0 0 0 0 0 0
          0 0 0 0 0 0
          0 0 0 0 0 0
          0 0 0 0 0 0
          0 0 0 0 0 0
          0 0 0 0 0 0
          0 0 0 0 0 0
          0 0 0 0 0 0
          0 0 0 0 0 0
          0 0 0 0 0 0
          0 0 0 0 0 0
          0 0 0 0 0 0
          0 0 0 0 0 0
          0 0 0 0 0 0
          0 0 0 0 0 0
          0 0 0 0 0 0
          0 0 0 0 0 0
          0 0 0
          <InformationKey name="L2_NORM_RANGE" location="vtkDataArray" length="2">
            <Value index="0">
              0
            </Value>
            <Value index="1">
              0
            </Value>
          </InformationKey>
        </DataArray>
        <DataArray type="Float64" Name="ale_FIXNO" NumberOfComponents="3" format="ascii" RangeMin="1.4142135623730951" RangeMax="5.656854249492381">
          1 1 0 1 1 0
          1 1 0 1 1 0
          -1 -1 0 1 1 0
          -1 -1 0 -1 -1 0
          1 1 0 1 1 0
          1 1 0 -1 -1 0
          -1 -1 0 -1 -1 0
          1 1 0 1 1 0
          -1 -1 0 -1 -1 0
          -1 -1 0 1 1 0
          1 1 0 -1 -1 0
          -1 -1 0 -1 -1 0
          1 1 0 1 1 0
          -1 -1 0 -1 -1 0
          -1 -1 0 -1 -1 0
          -1 -1 0 1 1 0
          1 1 0 -1 -1 0
          -1 -1 0 -1 -1 0
          -1 -1 0 -1 -1 0
          1 1 0 1 1 0
          -1 -1 0 -1 -1 0
          -1 -1 0 -1 -1 0
          -1 -1 0 1 1 0
          -1 -1 0 -1 -1 0
          -1 -1 0 -1 -1 0
          -1 -1 0 -1 -1 0
          -1 -1 0 4 4 0
          4 4 0 4 4 0
          1 1 0 -1 -1 0
          -1 -1 0 -1 -1 0
          4 4 0 4 4 0
          -1 -1 0 -1 -1 0
          -1 -1 0 1 1 0
          1 1 0 -1 -1 0
          -1 -1 0 -1 -1 0
          4 4 0 4 4 0
          -1 -1 0 -1 -1 0
          -1 -1 0 1 1 0
          1 1 0 -1 -1 0
          -1 -1 0 -1 -1 0
          4 4 0 4 4 0
          -1 -1 0 -1 -1 0
          -1 -1 0 1 1 0
          1 1 0 -1 -1 0
          -1 -1 0 -1 -1 0
          4 4 0 4 4 0
          -1 -1 0 -1 -1 0
          -1 -1 0 1 1 0
          1 1 0 -1 -1 0
          -1 -1 0 -1 -1 0
          4 4 0 -1 -1 0
          4 4 0 -1 -1 0
          -1 -1 0 -1 -1 0
          -1 -1 0 -1 -1 0
          -1 -1 0 -1 -1 0
          -1 -1 0 -1 -1 0
          -1 -1 0 -1 -1 0
          -1 -1 0 -1 -1 0
          -1 -1 0 4 4 0
          4 4 0 -1 -1 0
          -1 -1 0 -1 -1 0
          -1 -1 0 -1 -1 0
          -1 -1 0 1 1 0
          -1 -1 0 -1 -1 0
          4 4 0 -1 -1 0
          -1 -1 0 4 4 0
          -1 -1 0 -1 -1 0
          1 1 0 -1 -1 0
          -1 -1 0 4 4 0
          1 1 0 1 1 0
          4 4 0 -1 -1 0
          1 1 0 1 1 0
          -1 -1 0 1 1 0
          1 1 0 -1 -1 0
          1 1 0 1 1 0
          -1 -1 0 -1 -1 0
          1 1 0 1 1 0
          -1 -1 0 -1 -1 0
          1 1 0 1 1 0
          -1 -1 0 -1 -1 0
          1 1 0 1 1 0
          1 1 0 -1 -1 0
          1 1 0 -1 -1 0
          1 1 0 -1 -1 0
          -1 -1 0 -1 -1 0
          1 1 0 -1 -1 0
          1 1 0 1 1 0
          1 1 0 1 1 0
          1 1 0
          <InformationKey name="L2_NORM_RANGE" location="vtkDataArray" length="2">
            <Value index="0">
              1.4142135624
            </Value>
            <Value index="1">
              5.6568542495
            </Value>
          </InformationKey>
        </DataArray>
        <DataArray type="Float64" Name="nsi_BC" NumberOfComponents="3" format="ascii" RangeMin="0" RangeMax="1.5">
          0 0 0 1.5 0 0
          1.5 0 0 0 0 0
          1.5 0 0 1.5 0 0
          1.5 0 0 1.5 0 0
          0 0 0 0 0 0
          0 0 0 1.5 0 0
          1.5 0 0 1.5 0 0
          0 0 0 0 0 0
          1.5 0 0 1.5 0 0
          1.5 0 0 0 0 0
          0 0 0 1.5 0 0
          1.5 0 0 1.5 0 0
          0 0 0 0 0 0
          1.5 0 0 1.5 0 0
          1.5 0 0 1.5 0 0
          1.5 0 0 0 0 0
          0 0 0 1.5 0 0
          1.5 0 0 1.5 0 0
          1.5 0 0 1.5 0 0
          0 0 0 0 0 0
          1.5 0 0 1.5 0 0
          1.5 0 0 1.5 0 0
          1.5 0 0 0 0 0
          1.5 0 0 1.5 0 0
          1.5 0 0 1.5 0 0
          1.5 0 0 1.5 0 0
          1.5 0 0 0 0 0
          0 0 0 0 0 0
          0 0 0 1.5 0 0
          1.5 0 0 1.5 0 0
          0 0 0 0 0 0
          1.5 0 0 1.5 0 0
          1.5 0 0 0 0 0
          0 0 0 1.5 0 0
          1.5 0 0 1.5 0 0
          0 0 0 0 0 0
          1.5 0 0 1.5 0 0
          1.5 0 0 0 0 0
          0 0 0 1.5 0 0
          1.5 0 0 1.5 0 0
          0 0 0 0 0 0
          1.5 0 0 1.5 0 0
          1.5 0 0 0 0 0
          0 0 0 1.5 0 0
          1.5 0 0 1.5 0 0
          0 0 0 0 0 0
          1.5 0 0 1.5 0 0
          1.5 0 0 0 0 0
          0 0 0 1.5 0 0
          1.5 0 0 1.5 0 0
          0 0 0 1.5 0 0
          0 0 0 1.5 0 0
          1.5 0 0 1.5 0 0
          1.5 0 0 1.5 0 0
          1.5 0 0 1.5 0 0
          1.5 0 0 1.5 0 0
          1.5 0 0 1.5 0 0
          1.5 0 0 1.5 0 0
          1.5 0 0 0 0 0
          0 0 0 1.5 0 0
          1.5 0 0 1.5 0 0
          1.5 0 0 1.5 0 0
          1.5 0 0 0 0 0
          1.5 0 0 1.5 0 0
          0 0 0 1.5 0 0
          1.5 0 0 0 0 0
          1.5 0 0 1.5 0 0
          0 0 0 1.5 0 0
          1.5 0 0 0 0 0
          0 0 0 0 0 0
          0 0 0 1.5 0 0
          0 0 0 0 0 0
          1.5 0 0 0 0 0
          0 0 0 1.5 0 0
          0 0 0 0 0 0
          1.5 0 0 1.5 0 0
          0 0 0 0 0 0
          1.5 0 0 1.5 0 0
          0 0 0 0 0 0
          1.5 0 0 1.5 0 0
          0 0 0 0 0 0
          0 0 0 1.5 0 0
          0 0 0 1.5 0 0
          0 0 0 1.5 0 0
          1.5 0 0 1.5 0 0
          0 0 0 1.5 0 0
          0 0 0 1.339432 0 0
          1.498641 0 0 1.313156 0 0
          0 0 0
          <InformationKey name="L2_NORM_RANGE" location="vtkDataArray" length="2">
            <Value index="0">
              0
            </Value>
            <Value index="1">
              1.5
            </Value>
          </InformationKey>
        </DataArray>
        <DataArray type="Float64" Name="nsi_FIXNO" NumberOfComponents="3" format="ascii" RangeMin="0" RangeMax="1.4142135623730951">
          1 1 0 0 0 0
          0 0 0 1 1 0
          0 0 0 0 0 0
          0 0 0 0 0 0
          1 1 0 1 1 0
          1 1 0 0 0 0
          0 0 0 0 0 0
          1 1 0 1 1 0
          0 0 0 0 0 0
          0 0 0 1 1 0
          1 1 0 0 0 0
          0 0 0 0 0 0
          1 1 0 1 1 0
          0 0 0 0 0 0
          0 0 0 0 0 0
          0 0 0 1 1 0
          1 1 0 0 0 0
          0 0 0 0 0 0
          0 0 0 0 0 0
          1 1 0 1 1 0
          0 0 0 0 0 0
          0 0 0 0 0 0
          0 0 0 1 1 0
          0 0 0 0 0 0
          0 0 0 0 0 0
          0 0 0 0 0 0
          0 0 0 1 1 0
          1 1 0 1 1 0
          1 1 0 0 0 0
          0 0 0 0 0 0
          1 1 0 1 1 0
          0 0 0 0 0 0
          0 0 0 1 1 0
          1 1 0 0 0 0
          0 0 0 0 0 0
          1 1 0 1 1 0
          0 0 0 0 0 0
          0 0 0 1 1 0
          1 1 0 0 0 0
          0 0 0 0 0 0
          1 1 0 1 1 0
          0 0 0 0 0 0
          0 0 0 1 1 0
          1 1 0 0 0 0
          0 0 0 0 0 0
          1 1 0 1 1 0
          0 0 0 0 0 0
          0 0 0 1 1 0
          1 1 0 0 0 0
          0 0 0 0 0 0
          1 1 0 0 0 0
          1 1 0 0 0 0
          0 0 0 0 0 0
          0 0 0 0 0 0
          0 0 0 0 0 0
          0 0 0 0 0 0
          0 0 0 0 0 0
          0 0 0 0 0 0
          0 0 0 1 1 0
          1 1 0 0 0 0
          0 0 0 0 0 0
          0 0 0 0 0 0
          0 0 0 1 1 0
          0 0 0 0 0 0
          1 1 0 0 0 0
          0 0 0 1 1 0
          0 0 0 0 0 0
          1 1 0 0 0 0
          0 0 0 1 1 0
          1 1 0 1 1 0
          1 1 0 0 0 0
          1 1 0 1 1 0
          0 0 0 1 1 0
          1 1 0 0 0 0
          1 1 0 1 1 0
          0 0 0 0 0 0
          1 1 0 1 1 0
          0 0 0 0 0 0
          1 1 0 1 1 0
          0 0 0 0 0 0
          1 1 0 1 1 0
          1 1 0 0 0 0
          1 1 0 0 0 0
          1 1 0 0 0 0
          0 0 0 0 0 0
          1 1 0 0 0 0
          1 1 0 1 1 0
          1 1 0 1 1 0
          1 1 0
          <InformationKey name="L2_NORM_RANGE" location="vtkDataArray" length="2">
            <Value index="0">
              0
            </Value>
            <Value index="1">
              1.4142135624
            </Value>
          </InformationKey>
        </DataArray>
        <DataArray type="Float64" Name="Velocity" NumberOfComponents="3" format="ascii" RangeMin="0" RangeMax="2.799667129298688">
          0 0 0 1.1506524887197216 0.09992810964126102 0
          1.290615246573036 -0.02401752283288937 0 0 0 0
          1.4398779744937353 0.017749691241679893 0 1.237090564543037 -0.027703335262755098 0
          1.460604339943416 -0.0054892272805091265 0 1.4236033955602287 -0.00829740283569519 0
          0 0 0 0 0 0
          0 0 0 1.3896100401632214 0.011162231551087799 0
          1.4275746725734382 0.003043936550449617 0 1.3895292784281548 -0.0029596003618360613 0
          0 0 0 0 0 0
          1.373541337811225 0.005047433648887338 0 1.4150825429910405 0.0009821516824312221 0
          1.37330788665454 0.007093138167430161 0 0 0 0
          0 0 0 1.3229114911321287 -0.012102602892234544 0
          1.3751198908274465 0.0072238721526179245 0 1.3485558259977204 0.01671629341593941 0
          0 0 0 0 0 0
          1.2401364767463356 0.027447718612332764 0 1.3193169660848656 0.0015370032575609002 0
          1.3076580863368779 -0.011708665328737938 0 1.3185387619450653 0.0046178560778783765 0
          1.233578329139418 0.0017459636723391276 0 0 0 0
          0 0 0 1.265721892573031 0.009600098738041374 0
          1.303306248772137 0.0019078531373812268 0 1.3027441994173168 -0.010765281570081869 0
          1.3284502012542605 -0.004293222753607181 0 1.2209884198324417 0.01104827800348912 0
          0 0 0 0 0 0
          1.2522652119072986 -0.010132177842621014 0 1.3237742586135883 -0.006737225171452752 0
          1.280123718800744 -0.022000959836594818 0 1.3111356739038584 0.030584138861259814 0
          1.2899822086168864 0.01355617584573525 0 0 0 0
          1.3600962950331785 -0.06101084702766999 0 1.436091163760447 -0.1260503599933155 0
          1.3155677805936068 -0.15552741755141647 0 1.2146641821386508 0.12311977016098397 0
          1.3941946744328166 0.15344767016062288 0 1.4316450344933873 0.14009620646838108 0
          1.319254859437573 0.05661353047410477 0 0.06400210146667344 -0.2478788569216904 0
          -0.006902446893725466 -0.23936021688030065 0 -0.07689753474611848 -0.23616963519567524 0
          0 0 0 1.4167830463733315 -0.03814913940318531 0
          1.4609445963636898 -0.06992432816968985 0 1.4311372115538574 -0.08589239113154129 0
          0.012438337430176137 0.0250785661707045 0 -0.009476948983564432 0.02813116878070132 0
          1.4525251934720047 0.052277534413258823 0 1.4556011427535915 0.08993167376855783 0
          1.3985475379398222 0.04615260907825528 0 0 0 0
          0 0 0 1.4100431253899839 -0.03828308394233898 0
          1.4548026283532076 -0.03194151803229827 0 1.4471890765080462 -0.01450866407177815 0
          0.00038978559004583855 -0.000706543274137808 0 -0.000983691529526778 -0.000974877593942747 0
          1.4289889683239652 0.008528593670564497 0 1.4805935320782493 0.03013505120520361 0
          1.4238060936099308 0.038200178056051234 0 0 0 0
          0 0 0 1.4234407782116199 -0.04004086388354358 0
          1.4671116065628265 -0.02638540695556204 0 1.3782667387919247 0.003225737089591689 0
          -0.000023975280725667803 -0.000016106188426938062 0 0.00001957644659636854 -0.0000181679968827225 0
          1.3869230167824895 0.007717335257215212 0 1.4633103630235706 0.007273450723627959 0
          1.429828822655658 0.04927244088449209 0 0 0 0
          0 0 0 1.4202722495706512 -0.049071543661856946 0
          1.409362560514686 -0.06791406863384682 0 1.3625726851289515 -0.011091381622039865 0
          -3.0770011528333387e-7 7.813020270614929e-7 0 2.825414523402673e-7 7.637838021829528e-7 0
          1.3438003056635477 0.01914414246940697 0 1.4393977503355913 0.03080053080380426 0
          1.430335791958946 0.07648312139935537 0 0 0 0
          0 0 0 1.5256322989808169 -0.10637262008947349 0
          1.390310519757085 -0.1288038978911274 0 1.2073318553079402 -0.03872839043037986 0
          3.797851565268745e-8 -1.7292752918460167e-8 0 1.3219477539360578 -0.131972967013348 0
          -3.82439594676269e-8 -1.744069233368828e-8 0 1.179458594740319 0.017071873172566584 0
          1.3603853250570233 -0.1717383115945817 0 1.2603979679533222 -0.11558625171054664 0
          1.265059301981497 -0.12790453256453346 0 1.4212701748275067 0.13984695521956556 0
          1.2348398523556747 -0.08989551413635283 0 1.2633424828595587 -0.133322833760097 0
          1.2711911295888318 0.18089642246767104 0 1.302070202412483 -0.13459860993356326 0
          1.533336068282941 0.08291852499348669 0 1.3914438775584848 -0.14104071541782676 0
          1.3570442523849318 0.2198676675418298 0 1.0977259214114103 -0.24395520286554873 0
          0.8902669406846057 -0.03721980948140018 0 6.000594574126055e-9 1.0220734175061526e-8 0
          -6.001565757261174e-9 1.0160106671688439e-8 0 1.29749625952706 0.19763752608497367 0
          1.3074086204385935 -0.42318392289984513 0 0.873866859137607 -0.06713973366064699 0
          1.0465892761643412 0.24034922422767876 0 1.4005992419774864 0.27054567754697917 0
          1.4435508264064532 0.2771803955146253 0 0 0 0
          1.4548267818451066 0.27218741751790376 0 1.3974600008830413 0.46784418000766015 0
          2.648063373927966e-9 4.5788095162290526e-11 0 0.4634634956464573 0.056373418135453365 0
          0.8785834522272918 0.4092025544527323 0 -2.358566276416002e-9 4.0821950752714275e-11 0
          0.34472652988853536 -0.08876144005528805 0 0.5133370528511425 -0.41686567292345333 0
          0 0 0 1.4837913247875056 -0.8355173797814194 0
          1.412422405746651 0.6622058617101984 0 -2.1351775437942243e-24 8.407648781635076e-26 0
          0 0 0 0 0 0
          -4.462176659056143e-24 -7.71562234905079e-26 0 1.4210572996910038 0.7557448722053755 0
          0 0 0 0 0 0
          1.8032689935145403 -0.076008424211101 0 0 0 0
          0 0 0 2.651451060500276 -0.4995941370873587 0
          0 0 0 0 0 0
          1.831133928331092 0.06149188497184777 0 2.7740817185574542 0.3776329615392162 0
          0 0 0 0 0 0
          1.8335486207917908 0.05433046180539758 0 2.097346534216002 0.8024568599706288 0
          0 0 0 0 0 0
          2.050082042888704 -0.8980247963571297 0 1.8454029977738409 -0.10060248749338623 0
          0 0 0 0 0 0
          0 0 0 0.9473048009505132 0.9054736280143074 0
          0 0 0 0.9355833236422668 -0.918685781404419 0
          0 0 0 1.4929696603000575 0.19116047519264703 0
          0.6765125062885614 0.002596053333923882 0 1.5068505483714965 -0.3088008377682119 0
          0 0 0 1.2981511890047348 0.049033799319644036 0
          0 0 0 1.339432 0 0
          1.4986410000000001 0 0 1.313156 0 0
          0 0 0
          <InformationKey name="L2_NORM_RANGE" location="vtkDataArray" length="2">
            <Value index="0">
              0
            </Value>
            <Value index="1">
              2.7996671293
            </Value>
          </InformationKey>
        </DataArray>
        <DataArray type="Float64" Name="Pressure" format="ascii" RangeMin="-25764.800209715366" RangeMax="498.31940894026326">
          -61.389620361028705 246.1590966945628 498.31940894026326 -2161.729706600179 -2001.8566672226234 389.69683864580855
          -1919.8085309946953 -1998.9947527189677 194.23008833968584 -2071.5984979560553 -5333.015390454234 -5334.311589317474
          -5357.88685566159 -5402.466670530713 -5419.901293720086 -7942.91784250604 -8006.939848674674 -8069.228555102475
          -8095.392672083037 -8079.694170730377 -10496.36604864697 -10648.319724461559 -10714.33446839469 -10613.672526802928
          -10533.664379373195 -14244.900170990468 -14163.522536144415 -14096.189034694793 -14201.047787066582 -14225.354828651129
          -14200.434177746942 -14221.183713392351 -18392.848419789352 -18366.714583533692 -18303.663703949846 -18297.336444984783
          -18352.19233181089 -18412.77140464397 -18401.04480314613 -22046.214199203427 -22118.433190567303 -21988.511068355634
          -21941.545957083443 -21961.62562097652 -22030.659866242415 -21958.407401048236 -23005.406600456026 -23196.282832651654
          -23399.523806476223 -23513.54802586737 -23089.0841002586 -22995.5752339905 -22802.797910422014 -23741.029121085976
          -23531.439257811115 -23122.199322493565 -23583.39710056018 -23728.515917117315 -23766.219834382176 -23792.061397659814
          -23788.163612005043 -23017.39954509711 -22962.25004453313 -23229.773476905648 -23367.362518505204 -23365.28541729335
          -23772.23650259268 -23878.002768289505 -23811.936160907364 -23646.418523742337 -23587.741433327905 -23164.7856267442
          -23179.0499912093 -23368.705599731093 -23504.411095320476 -23558.65274874163 -23816.08637206301 -23914.76565420697
          -23846.21507791603 -23650.04942027045 -23611.71317508244 -23441.232906162426 -23464.147585726838 -23559.06283060994
          -23629.967470084273 -23665.605469966966 -23761.566688630053 -23861.991418732538 -23846.916783215664 -23733.81978714374
          -23686.249546266434 -23617.860663450545 -23651.455550630046 -23674.232960796042 -23698.81941664311 -23706.60292421368
          -23699.577801413227 -23943.53946507736 -23994.792364690988 -23691.04593499082 -23606.44272224869 -23822.065213240905
          -23603.514394798825 -23628.920365004346 -23903.87439854727 -23730.16510134938 -23735.24484800245 -23737.532066260053
          -23622.241429147904 -23818.838855510425 -23718.907049495887 -23853.803953934443 -23864.753327264563 -24010.12401086408
          -23669.813822303222 -23338.607483566877 -23350.406232205813 -23405.04160607594 -23118.975979538627 -23644.768017178372
          -24108.436394986908 -23058.740077888444 -23311.055050956926 -23670.895986345677 -23828.20584827558 -23663.189165767482
          -23992.95825092888 -23890.894768882248 -23257.5211929263 -23261.453322693433 -23472.627975390293 -23818.670513401274
          -23826.869833240195 -23913.090752212738 -23566.937840582796 -24150.153667514365 -24058.150312009242 -24734.85195442552
          -24831.972930891952 -24966.673914635598 -24178.950801111725 -24081.845177487943 -24263.32947883965 -24414.37588581187
          -23985.183409413694 -24947.020980160967 -24983.56089281139 -25220.52776523412 -23607.51157303701 -24604.93452207497
          -23865.85378107048 -25764.800209715366 -24969.19674135074 -23144.039732837562 -23231.117245803605 -23068.206120841478
          -23212.348149752375 -23215.089489325215 -23169.74010851012 -23195.414216693032 -23311.504372900617 -20103.173830116655
          -20284.34650366314 -19755.889483987034 -18784.99756345878 -20136.512062881244 -22313.570471457744 -21243.955914558443
          -19108.588431192242 -21157.16640010929 -22658.914786724177 -20037.72387526744 -22047.78461803967 -21290.328709777903
          -20619.9276841767 -20998.45561475078 -21899.01589534757
        </DataArray>
        <DataArray type="Float64" Name="BTraction" NumberOfComponents="3" format="ascii" RangeMin="0" RangeMax="24884.08502590649">
          -22.457778466035407 529.1592602653391 0 -237.67299331261262 -5.813599812816147 0
          -439.71700548672425 -0.2940968793555747 0 -13.147463186280195 2448.6813248185704 0
          0 0 0 -376.12051296850103 6.415895215757138 0
          0 0 0 0 0 0
          -83.68612918050155 -395.17021815158034 0 -13.4583512678102 -2379.3916430355293 0
          -12.836891464673387 5140.993904455361 0 0 0 0
          0 0 0 0 0 0
          -14.0672145701742 -5195.544785451235 0 -12.499114922968156 7897.1328700179965 0
          0 0 0 0 0 0
          0 0 0 -13.729755366383356 -8004.642627756806 0
          -15.602662071224957 10700.523295927022 0 0 0 0
          0 0 0 0 0 0
          -16.065656882865373 -10750.243359527454 0 -19.096415478308234 14272.868718362948 0
          0 0 0 0 0 0
          0 0 0 0 0 0
          0 0 0 -18.476762838974004 -14270.814957052831 0
          -17.520972103397273 18303.69784865371 0 0 0 0
          0 0 0 0 0 0
          0 0 0 0 0 0
          -18.263430388320035 -18277.40144441342 0 -14.035505554416764 21643.895552941194 0
          0 0 0 0 0 0
          0 0 0 0 0 0
          0 0 0 -15.19992852381586 -21559.190140261435 0
          0 0 0 0 0 0
          0 0 0 0 0 0
          0 0 0 0 0 0
          0 0 0 -3828.7984609806167 -20194.211611829214 0
          -23530.96308592217 648.5512247013431 0 -3299.028150996019 19712.256516509686 0
          -12.255298875747563 23212.124017532617 0 0 0 0
          0 0 0 0 0 0
          -249.18012658901995 -23737.23234515534 0 42.037668835295044 23054.777486637577 0
          0 0 0 0 0 0
          0 0 0 -12.22677714491907 -23028.74714575855 0
          -12.773821770929535 23747.84835059646 0 0 0 0
          0 0 0 0 0 0
          -79.62554395930913 -23625.2502842652 0 -110.67790625524523 23181.92520857931 0
          0 0 0 0 0 0
          0 0 0 -12.877690354110511 -23543.355898071208 0
          -12.826284112019648 23800.55688129653 0 0 0 0
          0 0 0 0 0 0
          -88.76727728704363 -23619.147339736464 0 -97.15689679319432 23421.095527305188 0
          0 0 0 0 0 0
          0 0 0 -13.061990660150085 -23654.78006626316 0
          -13.246802554610365 23763.32900150975 0 0 0 0
          0 0 0 0 0 0
          -84.40719462888515 -23657.521308848973 0 -94.05721234373434 23581.62358884733 0
          0 0 0 0 0 0
          0 0 0 -13.130755035828287 -23693.706048339678 0
          -13.762902093435779 23687.4574014177 0 0 0 0
          0 0 0 0 0 0
          -79.28257020559913 -23601.355117887902 0 0 0 0
          -82.90085762248334 23561.650224226974 0 0 0 0
          0 0 0 0 0 0
          0 0 0 0 0 0
          0 0 0 0 0 0
          0 0 0 0 0 0
          0 0 0 0 0 0
          0 0 0 0 0 0
          0 0 0 -59.57524133035501 -23497.793432060873 0
          -61.63015365326986 23210.32756208079 0 0 0 0
          0 0 0 0 0 0
          0 0 0 0 0 0
          0 0 0 -13.687578806168768 -23661.38583860623 0
          0 0 0 0 0 0
          -36.84707415122617 23349.59148280798 0 0 0 0
          0 0 0 -28.79683453657405 -23830.076818305508 0
          0 0 0 0 0 0
          -15.019984001984204 23520.20708247934 0 0 0 0
          0 0 0 -5223.66689686222 -20425.377604676094 0
          -23803.27170300933 -7075.973822878477 0 -21291.569887022015 -12879.702610021746 0
          -4025.8218871139297 20763.206575085504 0 0 0 0
          -23371.201671917068 6580.967587111912 0 -21021.45808190724 12612.711456500263 0
          0 0 0 -16944.29904849555 -17546.931776591387 0
          -16861.843418574488 17525.41952364034 0 0 0 0
          -15.561522085741835 -23568.791696159755 0 -9164.242043426428 -22255.082665419024 0
          0 0 0 0 0 0
          -9332.261753510229 22535.718584949667 0 -16.433614011879715 23055.324862331276 0
          0 0 0 0 0 0
          4345.53429658738 -21466.067439421557 0 4937.818628541189 21429.123187773836 0
          0 0 0 0 0 0
          -17.063676360328277 -23235.088485602908 0 13053.509531943075 -13497.277032726393 0
          13012.616337597996 13747.861954506356 0 0 0 0
          17651.278225751157 -204.02918921140213 0 0 0 0
          -12.770265304617388 22346.86384706711 0 0 0 0
          0 0 0 0 0 0
          -12.314419802572305 -22562.182961576986 0 0 0 0
          -11150.431964814032 10820.900213859726 0 -21380.065485500283 5.645207297428806 0
          -20796.461017979047 -1.1904633624841794 0 -21155.339480590384 -7.705162892477538 0
          -10743.590636540137 -11143.439296370372 0
          <InformationKey name="L2_NORM_RANGE" location="vtkDataArray" length="2">
            <Value index="0">
              0
            </Value>
            <Value index="1">
              24884.085026
            </Value>
          </InformationKey>
        </DataArray>
        <DataArray type="Float64" Name="ALEdispl" NumberOfComponents="3" format="ascii" RangeMin="0" RangeMax="0.0016748794657936786">
          0 0 0 0 0 0
          0 0 0 0 0 0
          0.000004209958982651496 -0.000015623473833005316 0 0 0 0
          0.00002512695439626109 -0.00005164949732614237 0 -0.00011263281335847816 0.00000993684370972718 0
          0 0 0 0 0 0
          0 0 0 0.00000450856865949504 0.000005078782708542891 0
          0.00010297271180084807 0.0000025291952518067596 0 -0.000235251125229252 -0.000005220046341662555 0
          0 0 0 0 0 0
          -0.000022433314451523126 0.00006924538397417025 0 0.000004132946801120935 0.0001471551825169459 0
          -0.00015255619316107503 0.0002348679627705703 0 0 0 0
          0 0 0 -0.00014851248217730975 0.000187179765665977 0
          -0.00014178837241383662 0.0003219464014793759 0 0.00010138100853520371 0.00024072979472136233 0
          0 0 0 0 0 0
          -0.00010848940549318497 0.000020178741372484242 0 -0.00013192787437006043 0.00005089369312965642 0
          -0.000017573993522681988 0.00004113486643614026 0 0.0003005291374884135 -0.00005556304108342856 0
          0.0007179763361887553 -0.00018096083275044564 0 0 0 0
          0 0 0 -0.00032825457942004736 -0.00014005601566616872 0
          -0.00007750767265386128 -0.0002888815091612659 0 -0.000008089417526188806 -0.0004177087704120873 0
          0.0004335986173918231 -0.0003957441800363051 0 0.0007934364889246645 -0.00005083652154964831 0
          0 0 0 0 0 0
          0.00015321510592617671 -0.0007631874200633048 0 0.00036255811042029944 -0.0012025983715352863 0
          0.00006719507076393879 -0.0013461208737146667 0 -0.00021686822669787103 -0.001279232401858181 0
          -0.000060810575250254795 -0.0007877610697997565 0 0 0 0
          0.0006368060545626078 -0.0013182056763004959 0 0.0006377276981795552 -0.0014938071516928323 0
          0.0004813495780353891 -0.001604220623437584 0 0.00004609146330313776 -0.0016626785538160801 0
          -0.0004323051465574604 -0.0015166338009396517 0 -0.0005518743477965118 -0.0013185994304749568 0
          -0.0005496412026490446 -0.0011609222187539522 0 0.000290453239719798 -0.0008347731361793388 0
          0.0000065991401986268675 -0.0007816380864026703 0 -0.0002710585705165336 -0.0007739327749801407 0
          0 0 0 0.0006686907271508658 -0.00012095904217450365 0
          0.0006855917927872405 -0.00009289148041673127 0 0.0003436308666604499 -0.000029363234788039616 0
          0.000015081857701774418 0.00005435091084793034 0 -0.000018241109964904167 0.00005786156327356149 0
          -0.00028827843589143877 0.0000011686678724381617 0 -0.0007188664160038085 -0.00014313678044228735 0
          -0.0007644823925669649 -0.00016055567066596986 0 0 0 0
          0 0 0 0.000659359018225296 -0.000037053691431975395 0
          0.0005725958304702784 0.0000530844791885517 0 0.00012244332978357596 0.0002335291990216186 0
          9.069961140220983e-7 -8.426913103714465e-7 0 -0.0000017666765103580875 -0.0000012236926590703082 0
          -0.00009878513426344517 -0.000007696283475839492 0 -0.00045686373759721747 -0.0000669351574149712 0
          -0.0006340188320700092 -0.00007328787577585097 0 0 0 0
          0 0 0 0.0005769045693765373 -5.085923984413927e-7 0
          0.0004158579811429036 0.00007241595445569093 0 0.00031844521578597176 0.000010508589521567205 0
          -3.189887786625849e-8 -2.5978537622080563e-8 0 2.575351243455049e-8 -2.8837900534985117e-8 0
          -0.00006560725762387195 0.000006507514852669637 0 -0.00036334429102385625 0.000029775885279234087 0
          -0.0005352886975428833 -0.0000011942732656773024 0 0 0 0
          0 0 0 0.0004949240424165025 -0.00003546156559300108 0
          0.0003560137309788633 -0.000008094112645547098 0 0.0002300140788460743 0.00001561961372721773 0
          -5.849098055431807e-10 1.0362400253451313e-9 0 5.50267724719337e-10 1.013056674637777e-9 0
          -0.00006424193027070596 0.000010447218383390713 0 -0.0003187963170231889 0.000034310451682654775 0
          -0.00043962521821387874 0.000013578020092026634 0 0 0 0