<?xml version="1.0"?>
<VTKFile type="UnstructuredGrid" version="0.1" byte_order="LittleEndian" header_type="UInt32" compressor="vtkZLibDataCompressor">
  <UnstructuredGrid>
    <Piece NumberOfPoints="177" NumberOfCells="282">
      <PointData>
        <DataArray type="Float64" Name="ale_BC" NumberOfComponents="3" format="ascii" RangeMin="0" RangeMax="0">
          0 0 0 0 0 0
          0 0 0 0 0 0
          0 0 0 0 0 0
          0 0 0 0 0 0
          0 0 0 0 0 0
          0 0 0 0 0 0
          0 0 0 0 0 0
          0 0 0 0 0 0
          0 0 0 0 0 0
          0 0 0 0 0 0
          0 0 0 0 0 0
          0 0 0 0 0 0
          0 0 0 0 0 0
          0 0 0 0 0 0
          0 0 0 0 0 0
          0 0 0 0 0 0
          0 0 0 0 0 0
          0 0 0 0 0 0
          0 0 0 0 0 0
          0 0 0 0 0 0
          0 0 0 0 0 0
          0 0 0 0 0 0
          0 0 0 0 0 0
          0 0 0 0 0 0
          0 0 0 0 0 0
          0 0 0 0 0 0
          0 0 0 0 0 0
          0 0 0 0 0 0
          0 0 0 0 0 0
          0 0 0 0 0 0
          0 0 0 0 0 0
          0 0 0 0 0 0
          0 0 0 0 0 0
          0 0 0 0 0 0
          0 0 0 0 0 0
          0 0 0 0 0 0
          0 0 0 0 0 0
          0 0 0 0 0 0
          0 0 0 0 0 0
          0 0 0 0 0 0
          0 0 0 0 0 0
          0 0 0 0 0 0
          0 0 0 0 0 0
          0 0 0 0 0 0
          0 0 0 0 0 0
          0 0 0 0 0 0
          0 0 0 0 0 0
          0 0 0 0 0 0
          0 0 0 0 0 0
          0 0 0 0 0 0
          0 0 0 0 0 0
          0 0 0 0 0 0
          0 0 0 0 0 0
          0 0 0 0 0 0
          0 0 0 0 0 0
          0 0 0 0 0 0
          0 0 0 0 0 0
          0 0 0 0 0 0
          0 0 0 0 0 0
          0 0 0 0 0 0
          0 0 0 0 0 0
          0 0 0 0 0 0
          0 0 0 0 0 0
          0 0 0 0 0 0
          0 0 0 0 0 0
          0 0 0 0 0 0
          0 0 0 0 0 0
          0 0 0 0 0 0
          0 0 0 0 0 0
          0 0 0 0 0 0
          0 0 0 0 0 0
          0 0 0 0 0 0
          0 0 0 0 0 0
          0 0 0 0 0 0
          0 0 0 0 0 0
          0 0 0 0 0 0
          0 0 0 0 0 0
          0 0 0 0 0 0
          0 0 0 0 0 0
          0 0 0 0 0 0
          0 0 0 0 0 0
          0 0 0 0 0 0
          0 0 0 0 0 0
          0 0 0 0 0 0
          0 0 0 0 0 0
          0 0 0 0 0 0
          0 0 0 0 0 0
          0 0 0 0 0 0
          0 0 0
          <InformationKey name="L2_NORM_RANGE" location="vtkDataArray" length="2">
            <Value index="0">
              0
            </Value>
            <Value index="1">
              0
            </Value>
          </InformationKey>
        </DataArray>
        <DataArray type="Float64" Name="ale_FIXNO" NumberOfComponents="3" format="ascii" RangeMin="1.4142135623730951" RangeMax="5.656854249492381">
          1 1 0 1 1 0
          1 1 0 1 1 0
          -1 -1 0 1 1 0
          -1 -1 0 -1 -1 0
          1 1 0 1 1 0
          1 1 0 -1 -1 0
          -1 -1 0 -1 -1 0
          1 1 0 1 1 0
          -1 -1 0 -1 -1 0
          -1 -1 0 1 1 0
          1 1 0 -1 -1 0
          -1 -1 0 -1 -1 0
          1 1 0 1 1 0
          -1 -1 0 -1 -1 0
          -1 -1 0 -1 -1 0
          -1 -1 0 1 1 0
          1 1 0 -1 -1 0
          -1 -1 0 -1 -1 0
          -1 -1 0 -1 -1 0
          1 1 0 1 1 0
          -1 -1 0 -1 -1 0
          -1 -1 0 -1 -1 0
          -1 -1 0 1 1 0
          -1 -1 0 -1 -1 0
          -1 -1 0 -1 -1 0
          -1 -1 0 -1 -1 0
          -1 -1 0 4 4 0
          4 4 0 4 4 0
          1 1 0 -1 -1 0
          -1 -1 0 -1 -1 0
          4 4 0 4 4 0
          -1 -1 0 -1 -1 0
          -1 -1 0 1 1 0
          1 1 0 -1 -1 0
          -1 -1 0 -1 -1 0
          4 4 0 4 4 0
          -1 -1 0 -1 -1 0
          -1 -1 0 1 1 0
          1 1 0 -1 -1 0
          -1 -1 0 -1 -1 0
          4 4 0 4 4 0
          -1 -1 0 -1 -1 0
          -1 -1 0 1 1 0
          1 1 0 -1 -1 0
          -1 -1 0 -1 -1 0
          4 4 0 4 4 0
          -1 -1 0 -1 -1 0
          -1 -1 0 1 1 0
          1 1 0 -1 -1 0
          -1 -1 0 -1 -1 0
          4 4 0 -1 -1 0
          4 4 0 -1 -1 0
          -1 -1 0 -1 -1 0
          -1 -1 0 -1 -1 0
          -1 -1 0 -1 -1 0
          -1 -1 0 -1 -1 0
          -1 -1 0 -1 -1 0
          -1 -1 0 -1 -1 0
          -1 -1 0 4 4 0
          4 4 0 -1 -1 0
          -1 -1 0 -1 -1 0
          -1 -1 0 -1 -1 0
          -1 -1 0 1 1 0
          -1 -1 0 -1 -1 0
          4 4 0 -1 -1 0
          -1 -1 0 4 4 0
          -1 -1 0 -1 -1 0
          1 1 0 -1 -1 0
          -1 -1 0 4 4 0
          1 1 0 1 1 0
          4 4 0 -1 -1 0
          1 1 0 1 1 0
          -1 -1 0 1 1 0
          1 1 0 -1 -1 0
          1 1 0 1 1 0
          -1 -1 0 -1 -1 0
          1 1 0 1 1 0
          -1 -1 0 -1 -1 0
          1 1 0 1 1 0
          -1 -1 0 -1 -1 0
          1 1 0 1 1 0
          1 1 0 -1 -1 0
          1 1 0 -1 -1 0
          1 1 0 -1 -1 0
          -1 -1 0 -1 -1 0
          1 1 0 -1 -1 0
          1 1 0 1 1 0
          1 1 0 1 1 0
          1 1 0
          <InformationKey name="L2_NORM_RANGE" location="vtkDataArray" length="2">
            <Value index="0">
              1.4142135624
            </Value>
            <Value index="1">
              5.6568542495
            </Value>
          </InformationKey>
        </DataArray>
        <DataArray type="Float64" Name="nsi_BC" NumberOfComponents="3" format="ascii" RangeMin="0" RangeMax="1.5">
          0 0 0 1.5 0 0
          1.5 0 0 0 0 0
          1.5 0 0 1.5 0 0
          1.5 0 0 1.5 0 0
          0 0 0 0 0 0
          0 0 0 1.5 0 0
          1.5 0 0 1.5 0 0
          0 0 0 0 0 0
          1.5 0 0 1.5 0 0
          1.5 0 0 0 0 0
          0 0 0 1.5 0 0
          1.5 0 0 1.5 0 0
          0 0 0 0 0 0
          1.5 0 0 1.5 0 0
          1.5 0 0 1.5 0 0
          1.5 0 0 0 0 0
          0 0 0 1.5 0 0
          1.5 0 0 1.5 0 0
          1.5 0 0 1.5 0 0
          0 0 0 0 0 0
          1.5 0 0 1.5 0 0
          1.5 0 0 1.5 0 0
          1.5 0 0 0 0 0
          1.5 0 0 1.5 0 0
          1.5 0 0 1.5 0 0
          1.5 0 0 1.5 0 0
          1.5 0 0 0 0 0
          0 0 0 0 0 0
          0 0 0 1.5 0 0
          1.5 0 0 1.5 0 0
          0 0 0 0 0 0
          1.5 0 0 1.5 0 0
          1.5 0 0 0 0 0
          0 0 0 1.5 0 0
          1.5 0 0 1.5 0 0
          0 0 0 0 0 0
          1.5 0 0 1.5 0 0
          1.5 0 0 0 0 0
          0 0 0 1.5 0 0
          1.5 0 0 1.5 0 0
          0 0 0 0 0 0
          1.5 0 0 1.5 0 0
          1.5 0 0 0 0 0
          0 0 0 1.5 0 0
          1.5 0 0 1.5 0 0
          0 0 0 0 0 0
          1.5 0 0 1.5 0 0
          1.5 0 0 0 0 0
          0 0 0 1.5 0 0
          1.5 0 0 1.5 0 0
          0 0 0 1.5 0 0
          0 0 0 1.5 0 0
          1.5 0 0 1.5 0 0
          1.5 0 0 1.5 0 0
          1.5 0 0 1.5 0 0
          1.5 0 0 1.5 0 0
          1.5 0 0 1.5 0 0
          1.5 0 0 1.5 0 0
          1.5 0 0 0 0 0
          0 0 0 1.5 0 0
          1.5 0 0 1.5 0 0
          1.5 0 0 1.5 0 0
          1.5 0 0 0 0 0
          1.5 0 0 1.5 0 0
          0 0 0 1.5 0 0
          1.5 0 0 0 0 0
          1.5 0 0 1.5 0 0
          0 0 0 1.5 0 0
          1.5 0 0 0 0 0
          0 0 0 0 0 0
          0 0 0 1.5 0 0
          0 0 0 0 0 0
          1.5 0 0 0 0 0
          0 0 0 1.5 0 0
          0 0 0 0 0 0
          1.5 0 0 1.5 0 0
          0 0 0 0 0 0
          1.5 0 0 1.5 0 0
          0 0 0 0 0 0
          1.5 0 0 1.5 0 0
          0 0 0 0 0 0
          0 0 0 1.5 0 0
          0 0 0 1.5 0 0
          0 0 0 1.5 0 0
          1.5 0 0 1.5 0 0
          0 0 0 1.5 0 0
          0 0 0 1.339432 0 0
          1.498641 0 0 1.313156 0 0
          0 0 0
          <InformationKey name="L2_NORM_RANGE" location="vtkDataArray" length="2">
            <Value index="0">
              0
            </Value>
            <Value index="1">
              1.5
            </Value>
          </InformationKey>
        </DataArray>
        <DataArray type="Float64" Name="nsi_FIXNO" NumberOfComponents="3" format="ascii" RangeMin="0" RangeMax="1.4142135623730951">
          1 1 0 0 0 0
          0 0 0 1 1 0
          0 0 0 0 0 0
          0 0 0 0 0 0
          1 1 0 1 1 0
          1 1 0 0 0 0
          0 0 0 0 0 0
          1 1 0 1 1 0
          0 0 0 0 0 0
          0 0 0 1 1 0
          1 1 0 0 0 0
          0 0 0 0 0 0
          1 1 0 1 1 0
          0 0 0 0 0 0
          0 0 0 0 0 0
          0 0 0 1 1 0
          1 1 0 0 0 0
          0 0 0 0 0 0
          0 0 0 0 0 0
          1 1 0 1 1 0
          0 0 0 0 0 0
          0 0 0 0 0 0
          0 0 0 1 1 0
          0 0 0 0 0 0
          0 0 0 0 0 0
          0 0 0 0 0 0
          0 0 0 1 1 0
          1 1 0 1 1 0
          1 1 0 0 0 0
          0 0 0 0 0 0
          1 1 0 1 1 0
          0 0 0 0 0 0
          0 0 0 1 1 0
          1 1 0 0 0 0
          0 0 0 0 0 0
          1 1 0 1 1 0
          0 0 0 0 0 0
          0 0 0 1 1 0
          1 1 0 0 0 0
          0 0 0 0 0 0
          1 1 0 1 1 0
          0 0 0 0 0 0
          0 0 0 1 1 0
          1 1 0 0 0 0
          0 0 0 0 0 0
          1 1 0 1 1 0
          0 0 0 0 0 0
          0 0 0 1 1 0
          1 1 0 0 0 0
          0 0 0 0 0 0
          1 1 0 0 0 0
          1 1 0 0 0 0
          0 0 0 0 0 0
          0 0 0 0 0 0
          0 0 0 0 0 0
          0 0 0 0 0 0
          0 0 0 0 0 0
          0 0 0 0 0 0
          0 0 0 1 1 0
          1 1 0 0 0 0
          0 0 0 0 0 0
          0 0 0 0 0 0
          0 0 0 1 1 0
          0 0 0 0 0 0
          1 1 0 0 0 0
          0 0 0 1 1 0
          0 0 0 0 0 0
          1 1 0 0 0 0
          0 0 0 1 1 0
          1 1 0 1 1 0
          1 1 0 0 0 0
          1 1 0 1 1 0
          0 0 0 1 1 0
          1 1 0 0 0 0
          1 1 0 1 1 0
          0 0 0 0 0 0
          1 1 0 1 1 0
          0 0 0 0 0 0
          1 1 0 1 1 0
          0 0 0 0 0 0
          1 1 0 1 1 0
          1 1 0 0 0 0
          1 1 0 0 0 0
          1 1 0 0 0 0
          0 0 0 0 0 0
          1 1 0 0 0 0
          1 1 0 1 1 0
          1 1 0 1 1 0
          1 1 0
          <InformationKey name="L2_NORM_RANGE" location="vtkDataArray" length="2">
            <Value index="0">
              0
            </Value>
            <Value index="1">
              1.4142135624
            </Value>
          </InformationKey>
        </DataArray>
        <DataArray type="Float64" Name="Velocity" NumberOfComponents="3" format="ascii" RangeMin="0" RangeMax="2.5032889254849136">
          0 0 0 1.147224075081661 0.08099598313646568 0
          1.281561746538746 -0.028114338924552514 0 0 0 0
          1.5011030759817925 0.0073370288276740055 0 1.2514570660088817 -0.019190081572063946 0
          1.5091888352367522 -0.006796236766925668 0 1.4906656425406009 -0.0026006493409131185 0
          0 0 0 0 0 0
          0 0 0 1.4547576117331555 0.008521855374518182 0
          1.4693720955717715 0.0062143571101669955 0 1.4538698561104657 -0.00021694219332479042 0
          0 0 0 0 0 0
          1.4377495496296144 0.006351886441831298 0 1.4564964000561313 0.004197845498014637 0
          1.4343939582931937 0.005721260136028115 0 0 0 0
          0 0 0 1.4071736165608524 -0.0034618741536995767 0
          1.4330220026484721 0.007221055419764612 0 1.4177214354032406 0.011054321281318686 0
          0 0 0 0 0 0
          1.3587801003947169 0.018147224415398688 0 1.4012760982235017 0.0026016060774543583 0
          1.3950942438640515 -0.00488422079667959 0 1.4001791732455786 0.0040802894517803535 0
          1.3557057908703158 0.0021046492648812538 0 0 0 0
          0 0 0 1.3725773407643067 0.0035509888690408832 0
          1.390602594776238 0.003609455864919151 0 1.3902214480614024 -0.0074912704194911185 0
          1.40482314581778 0.0020149317966663854 0 1.34661490813013 0.0076879903036860455 0
          0 0 0 0 0 0
          1.3600612302916832 -0.006421079328418029 0 1.399712263672195 -0.007158585428708917 0
          1.373583923570272 -0.010423889569767234 0 1.3880087554439733 0.025706578800834507 0
          1.3887744899524972 0.01047645758893921 0 0 0 0
          1.4152577828022521 -0.036739269858037014 0 1.4630280110333376 -0.08803336303907382 0
          1.3969579196097508 -0.10435776255502782 0 1.3254434672941602 0.0395756762405374 0
          1.4218322711932188 0.12019205337141817 0 1.455612520305658 0.10203060938512068 0
          1.4016455590467611 0.03598597324276644 0 0.06071124932704898 -0.13456362494706514 0
          0.00785718922497182 -0.11929722832432796 0 -0.03801027777102924 -0.11313442060496133 0
          0 0 0 1.4490167530422784 -0.027036214347409993 0
          1.4730759100929718 -0.05918970118251539 0 1.455160421790252 -0.07441467256497049 0
          -0.0016748073545107109 0.0031765343965120805 0 -0.00030674758710014103 0.0022010228426570535 0
          1.4732043567895274 0.06138552896999318 0 1.4637942941546114 0.0939323067937154 0
          1.4353446152535998 0.03751630096900398 0 0 0 0
          0 0 0 1.4413163947593046 -0.026801133015307982 0
          1.4667561851480189 -0.03924245806941984 0 1.4649776887990915 -0.034492436099715605 0
          0.000026513341029645097 0.000024372148587154472 0 -0.00003182485482321452 0.000020444803841695223 0
          1.4694185799814994 0.025898257514154366 0 1.4846008054857198 0.05314315200657978 0
          1.4506977756982393 0.03260490879764711 0 0 0 0
          0 0 0 1.4449686980368806 -0.029337764768234773 0
          1.472661100418232 -0.038958416336994664 0 1.4206730474810765 -0.016539131613229594 0
          3.163010023616619e-7 -1.2141105059318916e-7 0 -3.288720765530251e-7 -1.3078392738751674e-7 0
          1.4332339487904326 0.03006277615992127 0 1.4739794104901947 0.029705103395308984 0
          1.4527951521610698 0.0399978760520789 0 0 0 0
          0 0 0 1.4391724381359015 -0.03439015348152643 0
          1.4314104106572976 -0.06218082148094387 0 1.4086786139670886 -0.03790766004948178 0
          -6.490220891200081e-9 -3.635285409371669e-9 0 6.321739779696701e-9 -3.764959405475518e-9 0
          1.39657186664768 0.04456941240354241 0 1.4545798570730646 0.029175089492186036 0
          1.449404080412996 0.05947997821922796 0 0 0 0
          0 0 0 1.5273577561327276 -0.07262105600692824 0
          1.4273799109733325 -0.1160124765419557 0 1.2515569942169695 -0.06520379193581308 0
          -3.8432034867936837e-11 2.9809340351611333e-10 0 1.3069409628568989 -0.13270839062064632 0
          3.820074473683468e-11 2.9708086714209804e-10 0 1.2476926275301985 0.04581113214136473 0
          1.4160848989134984 -0.18585152812961567 0 1.2589012850871588 -0.13618872089429332 0
          1.2982044975242462 -0.14972027323147413 0 1.4285600872401854 0.13411339007570314 0
          1.2436227583559423 -0.11383399363784388 0 1.239416880056128 -0.16962359588902792 0
          1.2441865978822466 0.1509750406510964 0 1.2684108606202722 -0.17065712717615897 0
          1.5336811924893174 0.05947191551368311 0 1.4061731029040685 -0.18410616471386146 0
          1.3695362413870922 0.184220319095543 0 1.1708471904680726 -0.18351421093248999 0
          1.0074641988666324 0.012367204526236023 0 -6.473977830268669e-11 -4.3959476500065e-11 0
          6.420420593993637e-11 -4.3907074545295145e-11 0 1.3296712278007201 0.233548309085785 0
          1.3269148215870445 -0.28281928634974135 0 0.9021609807458087 -0.08949596892191955 0
          1.0689548219967169 0.3414821967410305 0 1.4181210171757443 0.2353156681175338 0
          1.5177585681091763 0.2012907514208382 0 0 0 0
          1.5700543544065853 0.19954224994249953 0 1.4700734556183104 0.32438834880145556 0
          -5.369445274459757e-12 -1.8364479744197392e-12 0 0.7786330427013055 0.051185505575534314 0
          1.1809552763172562 0.3649044028190109 0 4.822693634497753e-12 -1.6708349918464875e-12 0
          0.7226868220428204 -0.030020190548731774 0 0.9314867361501782 -0.33421515392194606 0
          0 0 0 1.4680161754552024 -0.7391925564952346 0
          1.3505577182062432 0.48632552076760477 0 4.3661792992025444e-27 -1.131458448888909e-27 0
          0 0 0 0 0 0
          9.047900292595262e-27 3.0945465156566183e-27 0 1.4616205873728296 0.7518328219797793 0
          0 0 0 0 0 0
          1.6823059626835148 -0.04969943575933335 0 0 0 0
          0 0 0 2.32258230815091 -0.537161786194017 0
          0 0 0 0 0 0
          1.6991175781709351 0.04010269647254567 0 2.4568888199501737 0.4797424005226723 0
          0 0 0 0 0 0
          1.682539228740857 0.03390828834682971 0 1.8837052407631574 0.47794149020238846 0
          0 0 0 0 0 0
          1.8686536312274271 -0.5681183199034304 0 1.6922400649291416 -0.058928012667891806 0
          0 0 0 0 0 0
          0 0 0 1.1183196177034738 0.6167670738105119 0
          0 0 0 1.08323551216181 -0.6527529734006787 0
          0 0 0 1.4910798796187619 0.10226400019785077 0
          0.8993433564780613 0.026816746727342577 0 1.496760746663635 -0.17436339088375188 0
          0 0 0 1.3633173510379932 0.03454672242864212 0
          0 0 0 1.339432 0 0
          1.498641 0 0 1.313156 0 0
          0 0 0
          <InformationKey name="L2_NORM_RANGE" location="vtkDataArray" length="2">
            <Value index="0">
              0
            </Value>
            <Value index="1">
              2.5032889255
            </Value>
          </InformationKey>
        </DataArray>
        <DataArray type="Float64" Name="Pressure" format="ascii" RangeMin="-42548.62098087945" RangeMax="5977.695002197361">
          5168.085536269826 4782.569430631816 5260.600537343939 1589.4603118436376 2187.7682599877726 5977.695002197361
          2756.2087173634727 2598.312036082421 5904.68822245398 2417.6670005931724 -4611.573797979445 -4652.361722193365
          -4890.930275869761 -5112.792864812514 -5241.916324527948 -8944.34118891608 -9095.159541941526 -9399.444985329836
          -9697.118842301785 -9780.90007112794 -13166.500048790427 -13393.061337240404 -13689.891070964672 -13731.146849699544
          -13685.93497679451 -19523.61103436697 -19375.61765791828 -19259.71184514821 -19508.76058064463 -19707.216160703138
          -19753.747792124585 -19793.554283775382 -26323.01668447263 -26299.765913777235 -26313.08289761155 -26498.289585918366
          -26778.03143774458 -26877.62831265042 -26826.24649997334 -32483.5650840661 -32655.53274791613 -32790.7380019275
          -33006.54887261878 -33123.52400809744 -33110.17064248723 -32921.49810633026 -34234.20090695423 -34754.56815891006
          -35601.84889770541 -36064.3810448731 -35875.79280482889 -35134.09778791976 -34699.56742667001 -36334.65398995843
          -36400.88105114604 -36400.71903538626 -35290.58092791768 -35742.1145892007 -35929.48341244717 -36316.69978270686
          -36418.02904659154 -36691.16880810416 -36801.8304798901 -36489.817904695854 -36297.59999039716 -35807.068950384746
          -35930.325017095754 -36353.02987318557 -36459.654859567425 -36441.358600517895 -36394.62351134109 -36568.97574323712
          -36642.8023333267 -36858.21113464417 -36851.36997970224 -36418.72885303597 -36398.12931264205 -36903.13556972002
          -36953.27849702224 -36695.325465141155 -36629.1981933674 -36714.42269061326 -36814.78102597846 -37235.9462935293
          -37283.243311200065 -36796.37821681387 -36741.042056625134 -37388.63038526127 -37512.14588439971 -37280.7987952921
          -37194.446465314126 -37113.65820260811 -37252.35901691371 -37723.87418578279 -37691.999519379446 -37027.178750899286
          -36734.924627827684 -37771.5842682092 -38186.9649826011 -37975.07044813416 -37910.58318778178 -38159.43347461191
          -37530.314551913034 -37746.52263003927 -38316.535934728425 -38127.450164112095 -38171.24111531845 -38240.12070597712
          -38093.96934588215 -38172.40897811249 -38125.33222792128 -38175.74378888561 -37961.91232619469 -38395.70209551093
          -38269.196670202844 -38200.5278209456 -38268.15999208412 -38434.0858085944 -37632.9471441488 -38356.613144525385
          -38232.963980744935 -37643.125625552886 -38105.71393655887 -38385.15049526947 -38345.48941189332 -37089.39360648074
          -38822.39714027399 -38422.9087360281 -39646.49877597767 -39529.2078828595 -39803.21066708674 -40916.90910934021
          -40960.25837211481 -41020.83185648132 -36411.652417280064 -39473.89667251838 -38136.7198230412 -42397.98939128762
          -42528.049452065985 -42548.62098087945 -40816.80749941538 -39262.250371332884 -40825.901082427124 -40606.427610189545
          -36777.95056639475 -40955.139160985214 -40293.33437017063 -37983.26308590197 -36797.491804193654 -37560.79512252407
          -36664.76687173005 -38066.70121818043 -37024.34335130524 -35328.883309267585 -34930.39831309921 -33589.25343916436
          -33360.85764473317 -32904.61796496659 -33502.31857124331 -34880.50357348112 -35815.33883301717 -27913.956616168205
          -27830.323677221597 -28478.682702077735 -24978.383523824374 -28548.452295861094 -33809.11293426123 -32028.01659253055
          -26718.36129028182 -31642.49622926774 -34489.84912553343 -30104.477001484087 -33484.999709820884 -32247.26740809725
          -31355.29052840499 -31865.215367524866 -33487.97418024766
        </DataArray>
        <DataArray type="Float64" Name="BTraction" NumberOfComponents="3" format="ascii" RangeMin="0" RangeMax="42510.477330844646">
          -1525.9730300437868 -2783.1635180260473 0 -4929.075514942026 -5.80492187172329 0
          -5300.025115630417 -0.404356276262406 0 -13.738729284329828 -950.8446492415904 0
          0 0 0 -5846.500278934934 6.364954306394221 0
          0 0 0 0 0 0
          -1719.8193887133004 3377.7964924282464 0 -13.902868692377652 1468.862885312208 0
          -13.433871857476703 4120.942915283295 0 0 0 0
          0 0 0 0 0 0
          -14.725475868359435 -4499.48916974358 0 -13.170304511589379 8865.509177870159 0
          0 0 0 0 0 0
          0 0 0 -14.369305039491373 -9607.950226133053 0
          -16.89047592976343 13530.952444444838 0 0 0 0
          0 0 0 0 0 0
          -17.285001841722934 -14070.877140166442 0 -20.831236251670003 19533.630839286063 0
          0 0 0 0 0 0
          0 0 0 0 0 0
          0 0 0 -20.264545220906076 -19893.550356391283 0
          -19.087425895702882 26205.43654074805 0 0 0 0
          0 0 0 0 0 0
          0 0 0 0 0 0
          -20.080150536358374 -26636.078370976815 0 -15.095800612724561 31838.193144335433 0
          0 0 0 0 0 0
          0 0 0 0 0 0
          0 0 0 -16.47802350172772 -32311.964042209795 0
          0 0 0 0 0 0
          0 0 0 0 0 0
          0 0 0 0 0 0
          0 0 0 -5516.0028284084765 -31009.44152494506 0
          -36435.69337971574 297.13439834047915 0 -5434.0030092699235 31076.12711720385 0
          -12.774802162757537 34635.35929810393 0 0 0 0
          0 0 0 0 0 0
          -165.92133424208168 -36393.964890584226 0 -49.103228024479414 36615.65762914742 0
          0 0 0 0 0 0
          0 0 0 -12.795069787062364 -35133.11224527517 0
          -13.014107703279402 35897.75166614828 0 0 0 0
          0 0 0 0 0 0
          -90.86760664794957 -36433.33738625253 0 -103.07002603500374 36607.48658528746 0
          0 0 0 0 0 0
          0 0 0 -13.158356068820122 -36374.87758921861 0
          -13.010465122183579 36372.98196271971 0 0 0 0
          0 0 0 0 0 0
          -91.5066834921892 -36676.68347955678 0 -100.35949739509564 36750.092489128874 0
          0 0 0 0 0 0
          0 0 0 -13.287183602276055 -36769.97034551156 0
          -13.350213706455394 36679.04037175908 0 0 0 0
          0 0 0 0 0 0
          -87.43121061309782 -37192.434040752254 0 -97.4077372605565 37098.268942731425 0
          0 0 0 0 0 0
          0 0 0 -13.326223462763458 -36994.681046554586 0
          -13.783292448124563 36679.54390008425 0 0 0 0
          0 0 0 0 0 0
          -82.27057366954905 -37780.5737684856 0 0 0 0
          -85.98287422481057 37439.85059311251 0 0 0 0
          0 0 0 0 0 0
          0 0 0 0 0 0
          0 0 0 0 0 0
          0 0 0 0 0 0
          0 0 0 0 0 0
          0 0 0 0 0 0
          0 0 0 -90.31684939438956 -38839.894059213904 0
          -86.690073972748 37996.190101030064 0 0 0 0
          0 0 0 0 0 0
          0 0 0 0 0 0
          0 0 0 -13.77132489198016 -37028.61355460513 0
          0 0 0 0 0 0
          -61.79161830389429 39409.384925438455 0 0 0 0
          0 0 0 -60.43977316966516 -40573.46581176382 0
          0 0 0 0 0 0
          -14.48600719028687 36286.17345371891 0 0 0 0
          0 0 0 -8951.323033801267 -35033.78913404121 0
          -40747.91666499112 -12113.95766705479 0 -35904.1070828625 -21726.666955112632 0
          -6788.651099461394 35155.269270557335 0 0 0 0
          -39271.38675440268 11055.510729823245 0 -34667.74540410042 20798.036469741837 0
          0 0 0 -27706.11909919022 -28540.279139027854 0
          -27024.014089101445 27902.828748266016 0 0 0 0
          -14.949397953900961 -36683.37031763167 0 -14136.541462181422 -34127.289413886654 0
          0 0 0 0 0 0
          -14043.965210665798 33761.8212632506 0 -15.19279746467387 35212.79372791937 0
          0 0 0 0 0 0
          6185.434119264673 -30835.67854045519 0 6954.633846919692 30273.026157778433 0
          0 0 0 0 0 0
          -15.729046884531739 -35717.79071391636 0 18048.025029579276 -18791.307023542704 0
          17831.161454808167 18926.117203349033 0 0 0 0
          23790.030768025303 -295.08623276040896 0 0 0 0
          -12.294257399655553 33908.54248353402 0 0 0 0
          0 0 0 0 0 0
          -11.83993268367848 -34414.530671974346 0 0 0 0
          -16916.406238549673 16420.73464256373 0 -32415.920703636857 6.31947741790349 0
          -31592.036318475682 -0.7655400091753158 0 -32168.570903291256 -7.655573250733724 0
          -16385.75765431368 -17011.09821363621 0
          <InformationKey name="L2_NORM_RANGE" location="vtkDataArray" length="2">
            <Value index="0">
              0
            </Value>
            <Value index="1">
              42510.477331
            </Value>
          </InformationKey>
        </DataArray>
        <DataArray type="Float64" Name="ALEdispl" NumberOfComponents="3" format="ascii" RangeMin="0" RangeMax="0.0005114958388140726">
          0 0 0 0 0 0
          0 0 0 0 0 0
          0.000001554760932313609 4.2743908188792936e-7 0 0 0 0
          0.000004386147350021132 -5.708613145301074e-7 0 0.000002700730070910489 -6.752217065026235e-7 0
          0 0 0 0 0 0
          0 0 0 8.883475550574668e-7 7.055158098332467e-8 0
          0.000008229473336015762 -5.604810641041298e-7 0 0.000004052197070524029 -4.076050031507852e-8 0
          0 0 0 0 0 0
          -4.584957627950105e-7 0.0000022405828984615616 0 0.00001720358010039112 0.0000020186702845069997 0
          -2.9530930058801945e-7 -0.0000034649933341521894 0 0 0 0
          0 0 0 -0.0000025763433944322188 0.00004604468982559602 0
          0.000010528312275482733 0.00006548675564859169 0 0.00005992463797351876 0.000043406906508996215 0
          0 0 0 0 0 0
          -0.000016548387458900628 0.00000946475857855064 0 -0.0000017482826640143928 0.000021104304206278308 0
          0.00005307027384591396 0.00002280531398811023 0 0.00013607397696119842 -0.000010214257391791077 0
          0.00020651716776894124 -0.00004434925661754979 0 0 0 0
          0 0 0 -0.00007819605639447001 -0.000043978717103264524 0
          0.000006666484043805898 -0.00009719136255189597 0 0.0000526853419875562 -0.00013194504658782093 0
          0.00022109934994460822 -0.00011416672686086137 0 0.00023736668699687196 -0.000017182508093370118 0
          0 0 0 0 0 0
          0.00006277713979974222 -0.00021657460546535887 0 0.0001472479259940046 -0.00034654869123174005 0
          0.0001129345248869898 -0.00038101917354642855 0 0.000006176989533806525 -0.0003804908307105343 0
          0.000013858751702257088 -0.00023198836251990952 0 0 0 0
          0.0002114341703529352 -0.00039723113719269666 0 0.00021812021591340419 -0.00044961713101193717 0
          0.0001828196290556426 -0.00047770804510293633 0 0.00012735746986054046 -0.0004309842326341608 0
          -0.000051543645322464015 -0.00035608612430360303 0 -0.00010315564232430515 -0.00030799656365574697 0
          -0.00010914445939482513 -0.00027108401735011125 0 0.00010794283800704554 -0.00025296894235578526 0
          0.000014930510069306707 -0.00020040846655629713 0 -0.00005896766076249755 -0.0001826475530072866 0
          0 0 0 0.00021396817320602836 -0.000048370763509236174 0
          0.00021541606524878862 -0.00004375355784610689 0 0.00010268471296818684 -0.00002324910247213682 0
          -0.0000025831341459290443 0.000003937080844974707 0 -2.089068059774543e-7 0.0000028125945086484973 0
          -0.00007505555308805832 -0.000003315954617393134 0 -0.00015414300555631203 -0.000023794529588588816 0
          -0.00016209664972394563 -0.000027313305825402184 0 0 0 0
          0 0 0 0.00021525808696279037 -0.000017151632187160364 0
          0.00018434135535263838 0.000015101225796328844 0 0.000032440693748102166 0.00008171176536008204 0
          3.197885978702728e-8 3.949965212960641e-8 0 -3.7942096209590746e-8 3.5602546385519984e-8 0
          -0.0000259583118303145 -0.0000012414234816066662 0 -0.0001075904391851214 -0.000016023762833273124 0
          -0.00013990655850738685 -0.000017775804353361737 0 0 0 0
          0 0 0 0.00018914599701811224 -6.641622406595973e-7 0
          0.0001299401394007681 0.000024706682973100418 0 0.0001046793511211944 0.000002809632842636129 0
          4.497989079284036e-10 -1.665920024316048e-10 0 -4.6499390971939103e-10 -1.7677079287480992e-10 0
          -0.000016904661811364445 0.0000016587552732290519 0 -0.0000857079844429865 0.000006687252777067665 0
          -0.00011913715856002382 -8.790411670770265e-7 0 0 0 0
          0 0 0 0.00016172237872098333 -0.000010289800017736537 0
          0.0001138131463434458 -0.0000018503616157463138 0 0.00007475504632271503 0.000004620001442301451 0
          -7.789983256009145e-12 -6.3418577905526334e-12 0 7.603592995500814e-12 -6.467791816649456e-12 0
          -0.000015777398075208432 0.0000024593967961609984 0 -0.00007425028973230862 0.000007478652247366862 0
          -0.00009838288767589062 0.0000026496326898255813 0 0 0 0