<?xml version="1.0"?>
<VTKFile type="UnstructuredGrid" version="0.1" byte_order="LittleEndian" header_type="UInt32" compressor="vtkZLibDataCompressor">
  <UnstructuredGrid>
    <Piece NumberOfPoints="21" NumberOfCells="27">
      <PointData>
        <DataArray type="Float64" Name="Velocity" NumberOfComponents="3" format="ascii" RangeMin="0" RangeMax="0.06991902298931474">
          0.012717969661489383 -0.00996501106741382 0 0.018059373506690957 -0.023280585460937198 0
          0 0 0 0.003077780531515417 -0.009806194335429064 0
          0.017108184709314855 -0.011836256559628694 0 0.007152929341046388 -0.020640411031120687 0
          0 0 0 -0.014933267092609892 -0.015611892929703941 0
          0.008565159845436543 -0.01066291438041056 0 -0.006430607030114124 -0.013554735495689418 0
          0 0 0 0 0 0
          0 0 0 0.04048915838585515 -0.011637488805255586 0
          0.040324423978088775 -0.01957949819202449 0 0.03327129637162807 -0.007872528710140436 0
          0.020809237730755076 -0.037090249623599914 0 0 0 0
          -0.0012650247783579406 -0.005022460923826577 0 -0.0006408872631751272 -0.06991608569775787 0
          0.004592700180670761 -0.0638693779858448 0
          <InformationKey name="L2_NORM_RANGE" location="vtkDataArray" length="2">
            <Value index="0">
              0
            </Value>
            <Value index="1">
              0.069919022989
            </Value>
          </InformationKey>
        </DataArray>
        <DataArray type="Float64" Name="Pressure" format="ascii" RangeMin="5.872884115040096" RangeMax="6.984589869166834">
          6.214673186168654 6.19474395076968 6.459597584894004 6.459541119763259 6.174001549097751 6.454141227971681
          6.694145678936428 6.704289427937046 6.445079915538859 6.715505071186548 6.9054117819345215 6.948577480466119
          6.221597538012471 5.973959994072035 5.93449820266916 5.900584113241747 5.872884115040096 6.984589869166834
          6.717384992524878 6.434967287237272 6.1560087710857605
        </DataArray>
        <DataArray type="Float64" Name="Temperature" format="ascii" RangeMin="558.103593461218" RangeMax="959.9999999997517">
          644.6231810032591 591.2690975746796 959.9999999997516 646.8500185767186 597.4945607432877 594.657183258289
          959.9999999997517 643.007446507356 597.5110822236034 597.9225362845292 959.9999999997517 638.6828036189237
          959.9999999997516 641.787286733276 589.6515099790363 598.9278698059454 564.8875360180774 602.6447459534199
          597.7976106344416 558.103593461218 559.9243093931512
        </DataArray>
        <DataArray type="Float64" Name="Density" format="ascii" RangeMin="0.36412720169288604" RangeMax="0.6263391200497097">
          0.5422735699343596 0.5912064659880676 0.3641272016928861 0.540406745901053 0.58504652023982 0.5878380409191964
          0.36412720169288604 0.5436361826349101 0.5850303434108783 0.584627760975941 0.36412720169288604 0.5473172467528182
          0.3641272016928861 0.5446697384804331 0.5928283192855863 0.5836464309773053 0.6188171827779425 0.5800467289763758
          0.584749934436992 0.6263391200497097 0.6243024418852923
        </DataArray>
        <DataArray type="Float64" Name="stream" format="ascii" RangeMin="-0.005451926299811627" RangeMax="0.012825499199190708">
          -0.002680747692827184 0.0007681754666954478 -0.005244654839582698 -0.004646111644899112 0.003910054255148423 -0.0014627980740531095
          -0.005451926299811627 -0.004620195575870491 0.0002826469551879063 -0.0027403029213076005 -0.00488992008913337 -0.003582856034314217
          -0.0035981684440518327 0.002869561588495755 0.006236969967036652 0.008899747365990786 0.012825499199190708 -0.00275539962055795
          -0.001092486254521081 0.007275662083244405 0.009452843660649673
        </DataArray>
      </PointData>
      <CellData>
        <DataArray type="UInt8" Name="vtkGhostType" format="ascii" RangeMin="0" RangeMax="1">
          0 0 1 0 0 0
          1 1 1 1 1 1
          0 0 0 0 0 0
          0 0 0 0 0 0
          0 0 1
        </DataArray>
      </CellData>
      <Points>
        <DataArray type="Float32" Name="Points" NumberOfComponents="3" format="ascii" RangeMin="0" RangeMax="1.1313708667572155">
          0.20000000298023224 0.6000000238418579 0 0.4000000059604645 0.6000000238418579 0
          0 0.4000000059604645 0 0.20000000298023224 0.4000000059604645 0
          0.6000000238418579 0.6000000238418579 0 0.4000000059604645 0.4000000059604645 0
          0 0.20000000298023224 0 0.20000000298023224 0.20000000298023224 0
          0.6000000238418579 0.4000000059604645 0 0.4000000059604645 0.20000000298023224 0
          0 0 0 0.20000000298023224 0 0
          0 0.6000000238418579 0 0.20000000298023224 0.800000011920929 0
          0.4000000059604645 0.800000011920929 0 0.6000000238418579 0.800000011920929 0
          0.800000011920929 0.800000011920929 0 0.4000000059604645 0 0
          0.6000000238418579 0.20000000298023224 0 0.800000011920929 0.4000000059604645 0
          0.800000011920929 0.6000000238418579 0
          <InformationKey name="L2_NORM_RANGE" location="vtkDataArray" length="2">
            <Value index="0">
              0
            </Value>
            <Value index="1">
              1.1313708668
            </Value>
          </InformationKey>
        </DataArray>
      </Points>
      <Cells>
        <DataArray type="Int64" Name="connectivity" format="ascii" RangeMin="0" RangeMax="20">
          3 2 6 3 0 2
          0 12 2 5 1 3
          1 0 3 4 1 5
          0 13 12 1 14 0
          14 13 0 4 15 1
          15 14 1 16 15 4
          11 7 10 7 6 10
          17 9 11 9 7 11
          18 9 17 7 3 6
          9 5 7 5 3 7
          18 8 9 8 5 9
          19 8 18 8 4 5
          19 20 8 20 4 8
          20 16 4
        </DataArray>
        <DataArray type="Int64" Name="offsets" format="ascii" RangeMin="3" RangeMax="81">
          3 6 9 12 15 18
          21 24 27 30 33 36
          39 42 45 48 51 54
          57 60 63 66 69 72
          75 78 81
        </DataArray>
        <DataArray type="UInt8" Name="types" format="ascii" RangeMin="5" RangeMax="5">
          5 5 5 5 5 5
          5 5 5 5 5 5
          5 5 5 5 5 5
          5 5 5 5 5 5
          5 5 5
        </DataArray>
      </Cells>
    </Piece>
  </UnstructuredGrid>
</VTKFile>
