<?xml version="1.0"?>
<VTKFile type="UnstructuredGrid" version="0.1" byte_order="LittleEndian" header_type="UInt32" compressor="vtkZLibDataCompressor">
  <UnstructuredGrid>
    <Piece NumberOfPoints="18" NumberOfCells="20">
      <PointData>
        <DataArray type="Float64" Name="Velocity" NumberOfComponents="3" format="ascii" RangeMin="0" RangeMax="0.16107935152920702">
          0 0 0 0 0 0
          0 0 0 0.12534650541704934 0.044445371301664094 0
          0 0 0 0 0 0
          0.15896150065837666 -0.026034569278303152 0 0 0 0
          0.15266445707855003 0.01499274080496621 0 0 0 0
          0.0977261153110705 -0.019866307087458186 0 0 0 0
          0.05800899786658931 0.0509084970866078 0 0 0 0
          0.10023990062519295 -0.02809015358614321 0 0.10188678437279086 0.010234294345168954 0
          0.05342288520564825 -0.06822759605987974 0 0 0 0
          <InformationKey name="L2_NORM_RANGE" location="vtkDataArray" length="2">
            <Value index="0">
              0
            </Value>
            <Value index="1">
              0.16107935153
            </Value>
          </InformationKey>
        </DataArray>
        <DataArray type="Float64" Name="Pressure" format="ascii" RangeMin="-3.9035046341098156" RangeMax="-2.4272797240818056">
          -3.2529289640285994 -3.323964665179981 -3.008294316335644 -3.042171925179421 -3.4567452906100846 -2.7181182037422134
          -3.164196426811805 -3.6238302418446366 -3.320217158015381 -3.7978272981627974 -3.4627129423453127 -3.9035046341098156
          -2.7424520074656042 -2.4272797240818056 -2.853696653927102 -2.999156837356962 -3.1288624320332397 -3.508757590303902
        </DataArray>
        <DataArray type="Float64" Name="Temperature" format="ascii" RangeMin="239.99999999351252" RangeMax="959.9999999740504">
          959.9999999740501 689.0653010748637 959.9999999740503 659.9297384214188 569.4793696866781 959.9999999740503
          585.4865651529881 600.1881212412418 600.7257079621353 556.2975552982059 568.98374667914 239.99999999351257
          661.4103605082402 959.9999999740504 586.351588250082 599.0317821022303 562.306707242919 239.99999999351252
        </DataArray>
        <DataArray type="Float64" Name="Density" format="ascii" RangeMin="0.3653208570475806" RangeMax="1.461283428190323">
          0.36532085704758077 0.5089619549977814 0.36532085704758066 0.5314323667169577 0.6158397326125327 0.36532085704758066
          0.5990026819224403 0.5843301630677102 0.5838072486458381 0.63043243569208 0.6163761703266506 1.4612834281903226
          0.5302427111766239 0.3653208570475806 0.5981189951285996 0.5854581229821056 0.6236952507214004 1.461283428190323
        </DataArray>
        <DataArray type="Float64" Name="stream" format="ascii" RangeMin="-0.019833725515068398" RangeMax="0.020272101292482705">
          0 0.0032377204466753347 -0.0006741761176282099 0.0021096926966391737 0.013817473094727117 -0.006524625560009288
          0.003275267876284475 0.020272101292482705 0.00470229095689514 0.015897834738591285 0.0019312601009298606 0.008400036490647491
          -0.01321532857448663 -0.006524625560009288 -0.019833725515068398 -0.017946923345151376 -0.011586847107159015 0.0022480459145347324
        </DataArray>
      </PointData>
      <CellData>
        <DataArray type="UInt8" Name="vtkGhostType" format="ascii" RangeMin="0" RangeMax="0">
          0 0 0 0 0 0
          0 0 0 0 0 0
          0 0 0 0 0 0
          0 0
        </DataArray>
      </CellData>
      <Points>
        <DataArray type="Float32" Name="Points" NumberOfComponents="3" format="ascii" RangeMin="0.4000000059604645" RangeMax="1.4142135623730951">
          0 1 0 0.20000000298023224 1 0
          0 0.800000011920929 0 0.20000000298023224 0.800000011920929 0
          0.4000000059604645 1 0 0 0.6000000238418579 0
          0.4000000059604645 0.800000011920929 0 0.6000000238418579 1 0
          0.6000000238418579 0.800000011920929 0 0.800000011920929 1 0
          0.800000011920929 0.800000011920929 0 1 1 0
          0.20000000298023224 0.6000000238418579 0 0 0.4000000059604645 0
          0.4000000059604645 0.6000000238418579 0 0.6000000238418579 0.6000000238418579 0
          0.800000011920929 0.6000000238418579 0 1 0.800000011920929 0
          <InformationKey name="L2_NORM_RANGE" location="vtkDataArray" length="2">
            <Value index="0">
              0.40000000596
            </Value>
            <Value index="1">
              1.4142135624
            </Value>
          </InformationKey>
        </DataArray>
      </Points>
      <Cells>
        <DataArray type="Int64" Name="connectivity" format="ascii" RangeMin="0" RangeMax="17">
          12 5 13 12 3 5
          3 2 5 14 6 12
          6 3 12 15 8 14
          8 6 14 10 8 15
          3 1 2 1 0 2
          6 4 3 4 1 3
          8 7 6 7 4 6
          10 9 8 9 7 8
          16 10 15 17 10 16
          17 11 10 11 9 10
        </DataArray>
        <DataArray type="Int64" Name="offsets" format="ascii" RangeMin="3" RangeMax="60">
          3 6 9 12 15 18
          21 24 27 30 33 36
          39 42 45 48 51 54
          57 60
        </DataArray>
        <DataArray type="UInt8" Name="types" format="ascii" RangeMin="5" RangeMax="5">
          5 5 5 5 5 5
          5 5 5 5 5 5
          5 5 5 5 5 5
          5 5
        </DataArray>
      </Cells>
    </Piece>
  </UnstructuredGrid>
</VTKFile>
