<?xml version="1.0"?>
<VTKFile type="UnstructuredGrid" version="0.1" byte_order="LittleEndian" header_type="UInt32" compressor="vtkZLibDataCompressor">
  <UnstructuredGrid>
    <Piece NumberOfPoints="18" NumberOfCells="20">
      <PointData>
        <DataArray type="Float64" Name="Velocity" NumberOfComponents="3" format="ascii" RangeMin="0" RangeMax="0.06991902298931474">
          0.004592700180670761 -0.0638693779858448 0 -0.0012650247783579406 -0.005022460923826577 0
          -0.0006408872631751272 -0.06991608569775787 0 0 0 0
          0 0 0 0 0 0
          -0.009338499462320238 -0.059205208282470556 0 0 0 0
          0 0 0 0 0 0
          0 0 0 0 0 0
          -0.006430607030114124 -0.013554735495689418 0 0 0 0
          0.008565159845436543 -0.01066291438041056 0 0.017108184709314855 -0.011836256559628694 0
          0.020809237730755076 -0.037090249623599914 0 0 0 0
          <InformationKey name="L2_NORM_RANGE" location="vtkDataArray" length="2">
            <Value index="0">
              0
            </Value>
            <Value index="1">
              0.069919022989
            </Value>
          </InformationKey>
        </DataArray>
        <DataArray type="Float64" Name="Pressure" format="ascii" RangeMin="5.522668996920126" RangeMax="7.053655278695965">
          6.1560087710857605 6.717384992524878 6.434967287237272 5.85544083695396 6.984589869166834 6.148499091303018
          6.714098160952969 6.994776809631841 6.4307718032357 6.996988090481225 6.7117798534303885 7.053655278695965
          6.715505071186548 6.948577480466119 6.445079915538859 6.174001549097751 5.872884115040096 5.522668996920126
        </DataArray>
        <DataArray type="Float64" Name="Temperature" format="ascii" RangeMin="239.9999999999379" RangeMax="638.6828036189237">
          559.9243093931512 597.7976106344416 558.103593461218 239.99999999993796 602.6447459534199 239.99999999993793
          555.9280747171065 601.8962844583268 239.99999999993796 558.8709843746976 239.99999999993796 239.9999999999379
          597.9225362845292 638.6828036189237 597.5110822236034 597.4945607432877 564.8875360180774 239.99999999993796
        </DataArray>
        <DataArray type="Float64" Name="Density" format="ascii" RangeMin="0.5473172467528182" RangeMax="1.4565088067715444">
          0.6243024418852923 0.584749934436992 0.6263391200497097 1.456508806771544 0.5800467289763758 1.4565088067715442
          0.6287901790226386 0.58076802042343 1.456508806771544 0.6254790880156245 1.456508806771544 1.4565088067715444
          0.584627760975941 0.5473172467528182 0.5850303434108783 0.58504652023982 0.6188171827779425 1.456508806771544
        </DataArray>
        <DataArray type="Float64" Name="stream" format="ascii" RangeMin="-0.0008472920378435351" RangeMax="0.017716078760867345">
          0.011078973236863673 0.0016050168135154988 0.008994626778968989 0.017409151806876487 0.00022630025733425853 0.016427706643079357
          0.005220379854288586 0.0019356291164520038 0.011658798682203101 0.005750204595656553 0.0071877235521576426 0.005750204595656553
          -0.00013487919128600534 -0.0008472920378435351 0.0021921393828596876 0.004217156002304991 0.013086272936534783 0.017716078760867345
        </DataArray>
      </PointData>
      <CellData>
        <DataArray type="UInt8" Name="vtkGhostType" format="ascii" RangeMin="0" RangeMax="1">
          1 1 1 1 1 1
          0 1 0 1 1 0
          0 0 0 0 0 0
          0 0
        </DataArray>
      </CellData>
      <Points>
        <DataArray type="Float32" Name="Points" NumberOfComponents="3" format="ascii" RangeMin="0.20000000298023224" RangeMax="1.4142135623730951">
          0.800000011920929 0.6000000238418579 0 0.6000000238418579 0.20000000298023224 0
          0.800000011920929 0.4000000059604645 0 1 0.800000011920929 0
          0.4000000059604645 0 0 1 0.6000000238418579 0
          0.800000011920929 0.20000000298023224 0 0.6000000238418579 0 0
          1 0.4000000059604645 0 0.800000011920929 0 0
          1 0.20000000298023224 0 1 0 0
          0.4000000059604645 0.20000000298023224 0 0.20000000298023224 0 0
          0.6000000238418579 0.4000000059604645 0 0.6000000238418579 0.6000000238418579 0
          0.800000011920929 0.800000011920929 0 1 1 0
          <InformationKey name="L2_NORM_RANGE" location="vtkDataArray" length="2">
            <Value index="0">
              0.20000000298
            </Value>
            <Value index="1">
              1.4142135624
            </Value>
          </InformationKey>
        </DataArray>
      </Points>
      <Cells>
        <DataArray type="Int64" Name="connectivity" format="ascii" RangeMin="0" RangeMax="17">
          4 12 13 1 12 4
          1 14 12 2 14 1
          2 0 14 0 15 14
          5 0 2 0 16 15
          5 3 0 3 16 0
          3 17 16 7 1 4
          9 6 7 6 1 7
          11 10 9 10 6 9
          6 2 1 10 8 6
          8 2 6 8 5 2
        </DataArray>
        <DataArray type="Int64" Name="offsets" format="ascii" RangeMin="3" RangeMax="60">
          3 6 9 12 15 18
          21 24 27 30 33 36
          39 42 45 48 51 54
          57 60
        </DataArray>
        <DataArray type="UInt8" Name="types" format="ascii" RangeMin="5" RangeMax="5">
          5 5 5 5 5 5
          5 5 5 5 5 5
          5 5 5 5 5 5
          5 5
        </DataArray>
      </Cells>
    </Piece>
  </UnstructuredGrid>
</VTKFile>
