<?xml version="1.0"?>
<VTKFile type="UnstructuredGrid" version="0.1" byte_order="LittleEndian" header_type="UInt32" compressor="vtkZLibDataCompressor">
  <UnstructuredGrid>
    <Piece NumberOfPoints="21" NumberOfCells="27">
      <PointData>
        <DataArray type="Float64" Name="Velocity" NumberOfComponents="3" format="ascii" RangeMin="0" RangeMax="0.19104965836477072">
          0.017301842767254456 0.07938391878346761 0 0.013690688450274682 -0.037053833424841365 0
          0 0 0 -0.008305434688857206 0.063152202296785 0
          0.00809626818379778 0.02649947780661477 0 -0.023862269027875527 -0.02995101536023711 0
          0 0 0 -0.07029559255285059 -0.0037712826144792877 0
          -0.026412544616066153 0.05119285537967369 0 -0.07848959404076694 -0.024147653838378386 0
          0 0 0 0 0 0
          0 0 0 0.07575670470835778 0.06822549170156329 0
          0.059240394596684474 -0.04298910516802472 0 0.05911058662514705 0.011298396093386502 0
          0.06413272517664012 -0.06701065350920944 0 0 0 0
          -0.08479861201991556 0.050734297102357856 0 -0.015402989576386583 -0.1904277287408673 0
          0.001110440600098253 -0.17354749413543874 0
          <InformationKey name="L2_NORM_RANGE" location="vtkDataArray" length="2">
            <Value index="0">
              0
            </Value>
            <Value index="1">
              0.19104965836
            </Value>
          </InformationKey>
        </DataArray>
        <DataArray type="Float64" Name="Pressure" format="ascii" RangeMin="-0.0484419404456001" RangeMax="1.1520535348908758">
          0.19129450182387794 0.34472727261277175 0.40966160294450005 0.44379406115634973 0.5795464088116131 0.6023591543061504
          0.6661168583849549 0.7053777495312843 0.8451027646897844 0.8705801421418471 0.897835128963611 0.96887191360965
          0.16156572813977835 -0.0484419404456001 0.09297735167234879 0.30824003648638093 0.4908190857706699 1.1520535348908758
          1.1124601764328435 1.0643486902698849 0.7866562305458938
        </DataArray>
        <DataArray type="Float64" Name="Temperature" format="ascii" RangeMin="552.0673213577323" RangeMax="960.0000000010567">
          663.4143308568758 594.3000404091783 960.0000000010567 660.184707195317 596.3408188362089 597.6398460685002
          960.0000000010566 647.2121995251412 600.7300602874896 597.8105037889788 960.0000000010565 651.322130097408
          960.0000000010564 670.1238639820036 589.0897610128068 598.2123137244284 576.528874263485 600.8624265720657
          601.5465338702961 552.0673213577323 557.4135927219653
        </DataArray>
        <DataArray type="Float64" Name="Density" format="ascii" RangeMin="0.3654094667694879" RangeMax="0.6354172299790685">
          0.5287692348249471 0.5902626017955036 0.3654094667694879 0.5313559739809479 0.5882426240479162 0.5869640225743705
          0.36540946676948793 0.5420062977126683 0.5839446222005547 0.5867964612126002 0.365409466769488 0.5385861648008673
          0.36540946676948804 0.5234749976140458 0.5954832545315082 0.5864023191282725 0.608457102078768 0.5838159828038797
          0.5831520395307134 0.6354172299790685 0.6293228092736305
        </DataArray>
        <DataArray type="Float64" Name="stream" format="ascii" RangeMin="-0.016595657488264318" RangeMax="0.0014959200559599376">
          -0.010192707061338705 -0.014930408164272845 -0.004079038864715512 -0.011351524084870073 -0.015064892662264592 -0.013198447743318879
          -0.004076011745907418 -0.00649899867226499 -0.016595657488264318 -0.0054624143550568 -0.0017693476227337909 0.00007190736978748835
          -0.0020454140784931154 -0.0020604956008238133 -0.0074469555512078536 -0.007012383547722528 -0.0009267316051907275 0.0014959200559599376
          -0.008637246948876976 -0.003680117048400596 -0.0038395122848027636
        </DataArray>
      </PointData>
      <CellData>
        <DataArray type="UInt8" Name="vtkGhostType" format="ascii" RangeMin="0" RangeMax="1">
          0 0 1 0 0 0
          1 1 1 1 1 1
          0 0 0 0 0 0
          0 0 0 0 0 0
          0 0 1
        </DataArray>
      </CellData>
      <Points>
        <DataArray type="Float32" Name="Points" NumberOfComponents="3" format="ascii" RangeMin="0" RangeMax="1.1313708667572155">
          0.20000000298023224 0.6000000238418579 0 0.4000000059604645 0.6000000238418579 0
          0 0.4000000059604645 0 0.20000000298023224 0.4000000059604645 0
          0.6000000238418579 0.6000000238418579 0 0.4000000059604645 0.4000000059604645 0
          0 0.20000000298023224 0 0.20000000298023224 0.20000000298023224 0
          0.6000000238418579 0.4000000059604645 0 0.4000000059604645 0.20000000298023224 0
          0 0 0 0.20000000298023224 0 0
          0 0.6000000238418579 0 0.20000000298023224 0.800000011920929 0
          0.4000000059604645 0.800000011920929 0 0.6000000238418579 0.800000011920929 0
          0.800000011920929 0.800000011920929 0 0.4000000059604645 0 0
          0.6000000238418579 0.20000000298023224 0 0.800000011920929 0.4000000059604645 0
          0.800000011920929 0.6000000238418579 0
          <InformationKey name="L2_NORM_RANGE" location="vtkDataArray" length="2">
            <Value index="0">
              0
            </Value>
            <Value index="1">
              1.1313708668
            </Value>
          </InformationKey>
        </DataArray>
      </Points>
      <Cells>
        <DataArray type="Int64" Name="connectivity" format="ascii" RangeMin="0" RangeMax="20">
          3 2 6 3 0 2
          0 12 2 5 1 3
          1 0 3 4 1 5
          0 13 12 1 14 0
          14 13 0 4 15 1
          15 14 1 16 15 4
          11 7 10 7 6 10
          17 9 11 9 7 11
          18 9 17 7 3 6
          9 5 7 5 3 7
          18 8 9 8 5 9
          19 8 18 8 4 5
          19 20 8 20 4 8
          20 16 4
        </DataArray>
        <DataArray type="Int64" Name="offsets" format="ascii" RangeMin="3" RangeMax="81">
          3 6 9 12 15 18
          21 24 27 30 33 36
          39 42 45 48 51 54
          57 60 63 66 69 72
          75 78 81
        </DataArray>
        <DataArray type="UInt8" Name="types" format="ascii" RangeMin="5" RangeMax="5">
          5 5 5 5 5 5
          5 5 5 5 5 5
          5 5 5 5 5 5
          5 5 5 5 5 5
          5 5 5
        </DataArray>
      </Cells>
    </Piece>
  </UnstructuredGrid>
</VTKFile>
