<?xml version="1.0"?>
<VTKFile type="UnstructuredGrid" version="0.1" byte_order="LittleEndian" header_type="UInt32" compressor="vtkZLibDataCompressor">
  <UnstructuredGrid>
    <Piece NumberOfPoints="18" NumberOfCells="20">
      <PointData>
        <DataArray type="Float64" Name="Velocity" NumberOfComponents="3" format="ascii" RangeMin="0" RangeMax="0.19104965836477072">
          0.001110440600098253 -0.17354749413543874 0 -0.08479861201991556 0.050734297102357856 0
          -0.015402989576386583 -0.1904277287408673 0 0 0 0
          0 0 0 0 0 0
          -0.05678698220234896 -0.15150020008439058 0 0 0 0
          0 0 0 0 0 0
          0 0 0 0 0 0
          -0.07848959404076694 -0.024147653838378386 0 0 0 0
          -0.026412544616066153 0.05119285537967369 0 0.00809626818379778 0.02649947780661477 0
          0.06413272517664012 -0.06701065350920944 0 0 0 0
          <InformationKey name="L2_NORM_RANGE" location="vtkDataArray" length="2">
            <Value index="0">
              0
            </Value>
            <Value index="1">
              0.19104965836
            </Value>
          </InformationKey>
        </DataArray>
        <DataArray type="Float64" Name="Pressure" format="ascii" RangeMin="0.13768677636856966" RangeMax="1.7267701297864653">
          0.7866562305458938 1.1124601764328435 1.0643486902698849 0.5203192997684952 1.1520535348908758 0.8300003135428073
          1.3341957326512042 1.3887520084174396 1.1157870374411785 1.6132303690658678 1.4079511954058546 1.7267701297864653
          0.8705801421418471 0.96887191360965 0.8451027646897844 0.5795464088116131 0.4908190857706699 0.13768677636856966
        </DataArray>
        <DataArray type="Float64" Name="Temperature" format="ascii" RangeMin="240.00000000026412" RangeMax="651.322130097408">
          557.4135927219653 601.5465338702961 552.0673213577323 240.00000000026412 600.8624265720657 240.00000000026418
          548.6398457006092 613.5027894269472 240.00000000026412 537.7052223368693 240.00000000026412 240.00000000026418
          597.8105037889788 651.322130097408 600.7300602874896 596.3408188362089 576.528874263485 240.00000000026418
        </DataArray>
        <DataArray type="Float64" Name="Density" format="ascii" RangeMin="0.5385861648008673" RangeMax="1.461637867077952">
          0.6293228092736305 0.5831520395307134 0.6354172299790685 1.461637867077952 0.5838159828038797 1.4616378670779515
          0.6393868233378752 0.5717872748822524 1.461637867077952 0.6523892153670113 1.461637867077952 1.4616378670779515
          0.5867964612126002 0.5385861648008673 0.5839446222005547 0.5882426240479162 0.608457102078768 1.4616378670779515
        </DataArray>
        <DataArray type="Float64" Name="stream" format="ascii" RangeMin="-0.018527631328144036" RangeMax="0.012649296952619953">
          -0.005044539846303112 -0.007760726953576538 -0.0049353028358656795 0.011307366721176552 0.00271422654336893 0.012329273842830453
          0.000236756690829577 0.00022321647475281522 0.010188350851657493 0.00621827666005533 0.008663210003845543 0.00621827666005533
          -0.004852230862738862 0.0005819631574999935 -0.018527631328144036 -0.01614708113611848 0.001922440907368806 0.012649296952619953
        </DataArray>
      </PointData>
      <CellData>
        <DataArray type="UInt8" Name="vtkGhostType" format="ascii" RangeMin="0" RangeMax="1">
          1 1 1 1 1 1
          0 1 0 1 1 0
          0 0 0 0 0 0
          0 0
        </DataArray>
      </CellData>
      <Points>
        <DataArray type="Float32" Name="Points" NumberOfComponents="3" format="ascii" RangeMin="0.20000000298023224" RangeMax="1.4142135623730951">
          0.800000011920929 0.6000000238418579 0 0.6000000238418579 0.20000000298023224 0
          0.800000011920929 0.4000000059604645 0 1 0.800000011920929 0
          0.4000000059604645 0 0 1 0.6000000238418579 0
          0.800000011920929 0.20000000298023224 0 0.6000000238418579 0 0
          1 0.4000000059604645 0 0.800000011920929 0 0
          1 0.20000000298023224 0 1 0 0
          0.4000000059604645 0.20000000298023224 0 0.20000000298023224 0 0
          0.6000000238418579 0.4000000059604645 0 0.6000000238418579 0.6000000238418579 0
          0.800000011920929 0.800000011920929 0 1 1 0
          <InformationKey name="L2_NORM_RANGE" location="vtkDataArray" length="2">
            <Value index="0">
              0.20000000298
            </Value>
            <Value index="1">
              1.4142135624
            </Value>
          </InformationKey>
        </DataArray>
      </Points>
      <Cells>
        <DataArray type="Int64" Name="connectivity" format="ascii" RangeMin="0" RangeMax="17">
          4 12 13 1 12 4
          1 14 12 2 14 1
          2 0 14 0 15 14
          5 0 2 0 16 15
          5 3 0 3 16 0
          3 17 16 7 1 4
          9 6 7 6 1 7
          11 10 9 10 6 9
          6 2 1 10 8 6
          8 2 6 8 5 2
        </DataArray>
        <DataArray type="Int64" Name="offsets" format="ascii" RangeMin="3" RangeMax="60">
          3 6 9 12 15 18
          21 24 27 30 33 36
          39 42 45 48 51 54
          57 60
        </DataArray>
        <DataArray type="UInt8" Name="types" format="ascii" RangeMin="5" RangeMax="5">
          5 5 5 5 5 5
          5 5 5 5 5 5
          5 5 5 5 5 5
          5 5
        </DataArray>
      </Cells>
    </Piece>
  </UnstructuredGrid>
</VTKFile>
