<?xml version="1.0"?>
<VTKFile type="UnstructuredGrid" version="0.1" byte_order="LittleEndian" header_type="UInt32" compressor="vtkZLibDataCompressor">
  <UnstructuredGrid>
    <Piece NumberOfPoints="18" NumberOfCells="20">
      <PointData>
        <DataArray type="Float64" Name="Velocity" NumberOfComponents="3" format="ascii" RangeMin="0" RangeMax="0.173551046666439">
          0 0 0 0 0 0
          0 0 0 0.07575670470835778 0.06822549170156329 0
          0 0 0 0 0 0
          0.059240394596684474 -0.04298910516802472 0 0 0 0
          0.05911058662514705 0.011298396093386502 0 0 0 0
          0.06413272517664012 -0.06701065350920944 0 0 0 0
          0.017301842767254456 0.07938391878346761 0 0 0 0
          0.013690688450274682 -0.037053833424841365 0 0.00809626818379778 0.02649947780661477 0
          0.001110440600098253 -0.17354749413543874 0 0 0 0
          <InformationKey name="L2_NORM_RANGE" location="vtkDataArray" length="2">
            <Value index="0">
              0
            </Value>
            <Value index="1">
              0.17355104667
            </Value>
          </InformationKey>
        </DataArray>
        <DataArray type="Float64" Name="Pressure" format="ascii" RangeMin="-0.2954208813060052" RangeMax="0.7866562305458938">
          -0.26394567835978866 -0.2954208813060052 -0.055994569610110324 -0.0484419404456001 -0.17601881137400457 0.16156572813977835
          0.09297735167234879 0.022361331724784887 0.30824003648638093 0.17502287851957307 0.4908190857706699 0.13768677636856966
          0.19129450182387794 0.40966160294450005 0.34472727261277175 0.5795464088116131 0.7866562305458938 0.5203192997684952
        </DataArray>
        <DataArray type="Float64" Name="Temperature" format="ascii" RangeMin="240.00000000026412" RangeMax="960.0000000010567">
          960.0000000010567 697.1514015016918 960.0000000010565 670.1238639820036 577.9281037549734 960.0000000010564
          589.0897610128068 592.5008262836502 598.2123137244284 556.9816723366313 576.528874263485 240.00000000026418
          663.4143308568758 960.0000000010567 594.3000404091783 596.3408188362089 557.4135927219653 240.00000000026412
        </DataArray>
        <DataArray type="Float64" Name="Density" format="ascii" RangeMin="0.3654094667694879" RangeMax="1.461637867077952">
          0.3654094667694879 0.5031806395905858 0.365409466769488 0.5234749976140458 0.6069839584195437 0.36540946676948804
          0.5954832545315082 0.5920550192298939 0.5864023191282725 0.6298108277557121 0.608457102078768 1.4616378670779515
          0.5287692348249471 0.3654094667694879 0.5902626017955036 0.5882426240479162 0.6293228092736305 1.461637867077952
        </DataArray>
        <DataArray type="Float64" Name="stream" format="ascii" RangeMin="-0.015295293550318797" RangeMax="0.012984819342951585">
          0 -0.0018348622979890994 -0.0000627601083899538 -0.004101620960459845 -0.0019897266844550697 -0.0030274993123127134
          -0.008374698740510212 0.0006881748784394413 -0.005575079887192442 0.004965400174157339 0.001586918517037174 0.012984819342951585
          -0.011221223857979735 -0.0030274993123127134 -0.015295293550318797 -0.013385565177519564 -0.0024371132204467055 0.011658332060532552
        </DataArray>
      </PointData>
      <CellData>
        <DataArray type="UInt8" Name="vtkGhostType" format="ascii" RangeMin="0" RangeMax="0">
          0 0 0 0 0 0
          0 0 0 0 0 0
          0 0 0 0 0 0
          0 0
        </DataArray>
      </CellData>
      <Points>
        <DataArray type="Float32" Name="Points" NumberOfComponents="3" format="ascii" RangeMin="0.4000000059604645" RangeMax="1.4142135623730951">
          0 1 0 0.20000000298023224 1 0
          0 0.800000011920929 0 0.20000000298023224 0.800000011920929 0
          0.4000000059604645 1 0 0 0.6000000238418579 0
          0.4000000059604645 0.800000011920929 0 0.6000000238418579 1 0
          0.6000000238418579 0.800000011920929 0 0.800000011920929 1 0
          0.800000011920929 0.800000011920929 0 1 1 0
          0.20000000298023224 0.6000000238418579 0 0 0.4000000059604645 0
          0.4000000059604645 0.6000000238418579 0 0.6000000238418579 0.6000000238418579 0
          0.800000011920929 0.6000000238418579 0 1 0.800000011920929 0
          <InformationKey name="L2_NORM_RANGE" location="vtkDataArray" length="2">
            <Value index="0">
              0.40000000596
            </Value>
            <Value index="1">
              1.4142135624
            </Value>
          </InformationKey>
        </DataArray>
      </Points>
      <Cells>
        <DataArray type="Int64" Name="connectivity" format="ascii" RangeMin="0" RangeMax="17">
          12 5 13 12 3 5
          3 2 5 14 6 12
          6 3 12 15 8 14
          8 6 14 10 8 15
          3 1 2 1 0 2
          6 4 3 4 1 3
          8 7 6 7 4 6
          10 9 8 9 7 8
          16 10 15 17 10 16
          17 11 10 11 9 10
        </DataArray>
        <DataArray type="Int64" Name="offsets" format="ascii" RangeMin="3" RangeMax="60">
          3 6 9 12 15 18
          21 24 27 30 33 36
          39 42 45 48 51 54
          57 60
        </DataArray>
        <DataArray type="UInt8" Name="types" format="ascii" RangeMin="5" RangeMax="5">
          5 5 5 5 5 5
          5 5 5 5 5 5
          5 5 5 5 5 5
          5 5
        </DataArray>
      </Cells>
    </Piece>
  </UnstructuredGrid>
</VTKFile>
