<?xml version="1.0"?>
<VTKFile type="UnstructuredGrid" version="0.1" byte_order="LittleEndian" header_type="UInt32" compressor="vtkZLibDataCompressor">
  <UnstructuredGrid>
    <Piece NumberOfPoints="18" NumberOfCells="20">
      <PointData>
        <DataArray type="Float64" Name="Velocity" NumberOfComponents="3" format="ascii" RangeMin="0" RangeMax="0.10239950005039643">
          0.05342288520564825 -0.06822759605987974 0 0.07076209570939312 0.01078100911899229 0
          0.04308583143885942 -0.07459940693119946 0 0 0 0
          0 0 0 0 0 0
          0.02655759951376717 -0.06920057035164247 0 0 0 0
          0 0 0 0 0 0
          0 0 0 0 0 0
          0.05411681793064049 -0.01666426488334044 0 0 0 0
          0.08539768088355237 0.00989779725287724 0 0.10188678437279086 0.010234294345168954 0
          0.0977261153110705 -0.019866307087458186 0 0 0 0
          <InformationKey name="L2_NORM_RANGE" location="vtkDataArray" length="2">
            <Value index="0">
              0
            </Value>
            <Value index="1">
              0.10239950005
            </Value>
          </InformationKey>
        </DataArray>
        <DataArray type="Float64" Name="Pressure" format="ascii" RangeMin="-3.9035046341098156" RangeMax="-1.8969999586645998">
          -3.1288624320332397 -2.348015169822433 -2.7869672864970236 -3.508757590303902 -1.9552907458548296 -3.1615578836617635
          -2.431887519785551 -2.043029360914134 -2.8105385000250407 -2.086873273411181 -2.4094002420963503 -2.028234306269264
          -2.2393920480520375 -1.8969999586645998 -2.672772722805534 -2.999156837356962 -3.4627129423453127 -3.9035046341098156
        </DataArray>
        <DataArray type="Float64" Name="Temperature" format="ascii" RangeMin="239.9999999935125" RangeMax="655.6223423992601">
          562.306707242919 597.3627917888965 559.5864796603823 239.99999999351252 602.9612533952669 239.99999999351252
          555.4679994166399 601.1818187028719 239.9999999935125 546.3939668293528 239.9999999935126 239.99999999351255
          593.1332522944721 655.6223423992601 598.7407775369763 599.0317821022303 568.98374667914 239.99999999351257
        </DataArray>
        <DataArray type="Float64" Name="Density" format="ascii" RangeMin="0.5349238427000155" RangeMax="1.461283428190323">
          0.6236952507214004 0.5870938524743855 0.6267271199422921 1.461283428190323 0.5816427188005285 1.461283428190323
          0.631373946158043 0.583364319820742 1.461283428190323 0.6418592518349108 1.4612834281903224 1.4612834281903229
          0.5912803259630467 0.5349238427000155 0.5857426718101538 0.5854581229821056 0.6163761703266506 1.4612834281903226
        </DataArray>
        <DataArray type="Float64" Name="stream" format="ascii" RangeMin="-0.038909956369562834" RangeMax="0.00659384727687305">
          -0.0020063588299343354 -0.030567976248250642 -0.014195933601020894 0.006303924859065407 -0.037789669664872794 -0.0014432558139394133
          -0.02889901690754258 -0.03626127747554504 -0.01750522782962958 -0.030983636765915614 -0.028582389594305677 -0.030983636765915614
          -0.03183184808816475 -0.038909956369562834 -0.017264868792394934 -0.004663643741616846 0.0037374493147043016 0.00659384727687305
        </DataArray>
      </PointData>
      <CellData>
        <DataArray type="UInt8" Name="vtkGhostType" format="ascii" RangeMin="0" RangeMax="1">
          1 1 1 1 1 1
          0 1 0 1 1 0
          0 0 0 0 0 0
          0 0
        </DataArray>
      </CellData>
      <Points>
        <DataArray type="Float32" Name="Points" NumberOfComponents="3" format="ascii" RangeMin="0.20000000298023224" RangeMax="1.4142135623730951">
          0.800000011920929 0.6000000238418579 0 0.6000000238418579 0.20000000298023224 0
          0.800000011920929 0.4000000059604645 0 1 0.800000011920929 0
          0.4000000059604645 0 0 1 0.6000000238418579 0
          0.800000011920929 0.20000000298023224 0 0.6000000238418579 0 0
          1 0.4000000059604645 0 0.800000011920929 0 0
          1 0.20000000298023224 0 1 0 0
          0.4000000059604645 0.20000000298023224 0 0.20000000298023224 0 0
          0.6000000238418579 0.4000000059604645 0 0.6000000238418579 0.6000000238418579 0
          0.800000011920929 0.800000011920929 0 1 1 0
          <InformationKey name="L2_NORM_RANGE" location="vtkDataArray" length="2">
            <Value index="0">
              0.20000000298
            </Value>
            <Value index="1">
              1.4142135624
            </Value>
          </InformationKey>
        </DataArray>
      </Points>
      <Cells>
        <DataArray type="Int64" Name="connectivity" format="ascii" RangeMin="0" RangeMax="17">
          4 12 13 1 12 4
          1 14 12 2 14 1
          2 0 14 0 15 14
          5 0 2 0 16 15
          5 3 0 3 16 0
          3 17 16 7 1 4
          9 6 7 6 1 7
          11 10 9 10 6 9
          6 2 1 10 8 6
          8 2 6 8 5 2
        </DataArray>
        <DataArray type="Int64" Name="offsets" format="ascii" RangeMin="3" RangeMax="60">
          3 6 9 12 15 18
          21 24 27 30 33 36
          39 42 45 48 51 54
          57 60
        </DataArray>
        <DataArray type="UInt8" Name="types" format="ascii" RangeMin="5" RangeMax="5">
          5 5 5 5 5 5
          5 5 5 5 5 5
          5 5 5 5 5 5
          5 5
        </DataArray>
      </Cells>
    </Piece>
  </UnstructuredGrid>
</VTKFile>
