<?xml version="1.0"?>
<VTKFile type="UnstructuredGrid" version="0.1" byte_order="LittleEndian" header_type="UInt32" compressor="vtkZLibDataCompressor">
  <UnstructuredGrid>
    <Piece NumberOfPoints="18" NumberOfCells="20">
      <PointData>
        <DataArray type="Float64" Name="Velocity" NumberOfComponents="3" format="ascii" RangeMin="0" RangeMax="0.06403429033922567">
          0 0 0 0 0 0
          0 0 0 0.04048915838585515 -0.011637488805255586 0
          0 0 0 0 0 0
          0.040324423978088775 -0.01957949819202449 0 0 0 0
          0.03327129637162807 -0.007872528710140436 0 0 0 0
          0.020809237730755076 -0.037090249623599914 0 0 0 0
          0.012717969661489383 -0.00996501106741382 0 0 0 0
          0.018059373506690957 -0.023280585460937198 0 0.017108184709314855 -0.011836256559628694 0
          0.004592700180670761 -0.0638693779858448 0 0 0 0
          <InformationKey name="L2_NORM_RANGE" location="vtkDataArray" length="2">
            <Value index="0">
              0
            </Value>
            <Value index="1">
              0.064034290339
            </Value>
          </InformationKey>
        </DataArray>
        <DataArray type="Float64" Name="Pressure" format="ascii" RangeMin="5.522668996920126" RangeMax="6.459597584894004">
          5.785734816224344 5.740963981033805 5.993170908945479 5.973959994072035 5.667684599752298 6.221597538012471
          5.93449820266916 5.621545814694925 5.900584113241747 5.5826193301033165 5.872884115040096 5.522668996920126
          6.214673186168654 6.459597584894004 6.19474395076968 6.174001549097751 6.1560087710857605 5.85544083695396
        </DataArray>
        <DataArray type="Float64" Name="Temperature" format="ascii" RangeMin="239.99999999993796" RangeMax="959.9999999997518">
          959.9999999997517 663.1076629307705 959.9999999997518 641.787286733276 574.5630526132454 959.9999999997516
          589.6515099790363 598.8408856534861 598.9278698059454 554.1457301910813 564.8875360180774 239.99999999993796
          644.6231810032591 959.9999999997516 591.2690975746796 597.4945607432877 559.9243093931512 239.99999999993796
        </DataArray>
        <DataArray type="Float64" Name="Density" format="ascii" RangeMin="0.364127201692886" RangeMax="1.456508806771544">
          0.36412720169288604 0.5271574031886509 0.364127201692886 0.5446697384804331 0.6083964362748197 0.3641272016928861
          0.5928283192855863 0.5837312080714395 0.5836464309773053 0.630812608633732 0.6188171827779425 1.456508806771544
          0.5422735699343596 0.3641272016928861 0.5912064659880676 0.58504652023982 0.6243024418852923 1.456508806771544
        </DataArray>
        <DataArray type="Float64" Name="stream" format="ascii" RangeMin="-0.002416592360052195" RangeMax="0.01792949378883215">
          0 0.003428637379656646 -0.00043438872659258944 0.0023650829863188895 0.008775819237771496 -0.002416592360052195
          0.005711886007488834 0.01197158495337211 0.008700375134336564 0.01515080038119881 0.012872857908569976 0.01792949378883215
          -0.0018850838785114932 -0.002416592360052195 0.0005073908565425937 0.003794319386491017 0.01080657508259053 0.017117332885086024
        </DataArray>
      </PointData>
      <CellData>
        <DataArray type="UInt8" Name="vtkGhostType" format="ascii" RangeMin="0" RangeMax="0">
          0 0 0 0 0 0
          0 0 0 0 0 0
          0 0 0 0 0 0
          0 0
        </DataArray>
      </CellData>
      <Points>
        <DataArray type="Float32" Name="Points" NumberOfComponents="3" format="ascii" RangeMin="0.4000000059604645" RangeMax="1.4142135623730951">
          0 1 0 0.20000000298023224 1 0
          0 0.800000011920929 0 0.20000000298023224 0.800000011920929 0
          0.4000000059604645 1 0 0 0.6000000238418579 0
          0.4000000059604645 0.800000011920929 0 0.6000000238418579 1 0
          0.6000000238418579 0.800000011920929 0 0.800000011920929 1 0
          0.800000011920929 0.800000011920929 0 1 1 0
          0.20000000298023224 0.6000000238418579 0 0 0.4000000059604645 0
          0.4000000059604645 0.6000000238418579 0 0.6000000238418579 0.6000000238418579 0
          0.800000011920929 0.6000000238418579 0 1 0.800000011920929 0
          <InformationKey name="L2_NORM_RANGE" location="vtkDataArray" length="2">
            <Value index="0">
              0.40000000596
            </Value>
            <Value index="1">
              1.4142135624
            </Value>
          </InformationKey>
        </DataArray>
      </Points>
      <Cells>
        <DataArray type="Int64" Name="connectivity" format="ascii" RangeMin="0" RangeMax="17">
          12 5 13 12 3 5
          3 2 5 14 6 12
          6 3 12 15 8 14
          8 6 14 10 8 15
          3 1 2 1 0 2
          6 4 3 4 1 3
          8 7 6 7 4 6
          10 9 8 9 7 8
          16 10 15 17 10 16
          17 11 10 11 9 10
        </DataArray>
        <DataArray type="Int64" Name="offsets" format="ascii" RangeMin="3" RangeMax="60">
          3 6 9 12 15 18
          21 24 27 30 33 36
          39 42 45 48 51 54
          57 60
        </DataArray>
        <DataArray type="UInt8" Name="types" format="ascii" RangeMin="5" RangeMax="5">
          5 5 5 5 5 5
          5 5 5 5 5 5
          5 5 5 5 5 5
          5 5
        </DataArray>
      </Cells>
    </Piece>
  </UnstructuredGrid>
</VTKFile>
