<?xml version="1.0"?>
<VTKFile type="UnstructuredGrid" version="0.1" byte_order="LittleEndian" header_type="UInt32" compressor="vtkZLibDataCompressor">
  <UnstructuredGrid>
    <Piece NumberOfPoints="44" NumberOfCells="60">
      <PointData>
        <DataArray type="Float64" Name="Density" format="ascii" RangeMin="1" RangeMax="1.7">
          1.7 1.2041466568025323 1.7 1.205959058138062 1.0074087393468159 1.0158642614445754
          1.7 1.2029774767775292 1.001245097992006 1.0166796302053336 1.002536580744648 1.7
          1.2027889402497982 1.0018136046897685 1.0169090222734873 1.0019613028372412 1.7 1.2027658402943155
          1.0169199531557203 1.002020277133822 1.7 1.202764821906867 1.0169187885861672 1.0020217214985832
          1.7 1.2027594824839003 1.0169184139576788 1.0020216818927092 1.7 1.2025957416958821
          1.0168993368558739 1.0020202968041902 1.7 1.1997585014246248 1.0165400674888578 1.0019826857942185
          1.7 1.1722670005361981 1.0128636036711978 1.0015702880334554 1 1
          1 1
        </DataArray>
        <DataArray type="Float64" Name="Momentum" NumberOfComponents="3" format="ascii" RangeMin="2.9" RangeMax="4.535233026008696">
          4.4528099999999995 -0.86071 0 3.4535397877800524 -0.17538019123270848 0
          4.4528099999999995 -0.86071 0 3.4539988440859593 -0.17824508102236614 0
          2.9208048521864662 -0.004840961436388982 0 2.9431308148616746 -0.013424423902173317 0
          4.4528099999999995 -0.86071 0 3.4443991311192708 -0.1761746094040483 0
          2.903737123317785 -0.0007351347559385882 0 2.945500110488179 -0.013960704431465066 0
          2.907387408769348 0 0 4.4528099999999995 -0.86071 0
          3.44377954817192 -0.17606501454175005 0 2.905057493079156 0 0
          2.9462358989010466 -0.014102682126999435 0 2.90555745189455 0 0
          4.4528099999999995 -0.86071 0 3.443702746791168 -0.17605133451155072 0
          2.9462675197445987 -0.014110730977466653 0 2.905747023346283 0 0
          4.4528099999999995 -0.86071 0 3.4436993804130926 -0.17605067660836418 0
          2.9462634860677244 -0.014110185774940364 0 2.9057511744641493 0 0
          4.4528099999999995 -0.86071 0 3.4436825449138317 -0.17604587271072514 0
          2.9462623225255142 -0.014109867293638997 0 2.9057510318170356 0 0
          4.4528099999999995 -0.86071 0 3.4431692983622812 -0.1759003859170793 0
          2.9462014956967053 -0.014095396611875418 0 2.905746714992152 0 0
          4.4528099999999995 -0.86071 0 3.434463792085376 -0.1733085536655807 0
          2.9450872244284536 -0.013805297651668587 0 2.905626032893124 0 0
          4.4528099999999995 -0.86071 0 3.354143179635003 -0.14761096347424524 0
          2.9341804944846133 -0.010676752375871863 0 2.9043863476045155 0 0
          2.9 0 0 2.9 0 0
          2.9 0 0 2.9 0 0
          <InformationKey name="L2_NORM_RANGE" location="vtkDataArray" length="2">
            <Value index="0">
              2.9
            </Value>
            <Value index="1">
              4.535233026
            </Value>
          </InformationKey>
        </DataArray>
        <DataArray type="Float64" Name="Energy" format="ascii" RangeMin="4.923" RangeMax="7.585636452999999">
          7.585636452999999 5.965064320444549 7.585636452999999 5.975960292024775 4.958571129334513 5.002434511029004
          7.585636452999999 5.959003063895877 4.929973497167967 5.0073832752405805 4.936355505931314 7.585636452999999
          5.957957309888242 4.9319133272867415 5.008912021001688 4.932899967138841 7.585636452999999 5.957816607415603
          5.008980167778948 4.933268106221059 7.585636452999999 5.957810315384312 5.00897277498113 4.933276184814129
          7.585636452999999 5.957777021252994 5.008970457334379 4.9332759186524315 7.585636452999999 5.956751951609469
          5.008847638137461 4.933267270112921 7.585636452999999 5.93932716469143 5.00661925963835 4.933026159051344
          7.585636452999999 5.779962071950418 4.985140679433944 4.930637956779251 4.923 4.923
          4.923 4.923
        </DataArray>
      </PointData>
      <CellData>
        <DataArray type="UInt8" Name="vtkGhostType" format="ascii" RangeMin="0" RangeMax="0">
          0 0 0 0 0 0
          0 0 0 0 0 0
          0 0 0 0 0 0
          0 0 0 0 0 0
          0 0 0 0 0 0
          0 0 0 0 0 0
          0 0 0 0 0 0
          0 0 0 0 0 0
          0 0 0 0 0 0
          0 0 0 0 0 0
        </DataArray>
        <DataArray type="Float64" Name="sgvis" format="ascii" RangeMin="0.375214834866388" RangeMax="0.48677280914009635">
          0.4865623085431401 0.4860331884332465 0.4864866844359248 0.4845792707610964 0.48648632338924114 0.48431788798523034
          0.48648693814311383 0.48429982292802887 0.48648694066920306 0.48429901479488946 0.48648698351605557 0.48429898947227823
          0.4864869027926918 0.48429947375516436 0.4864871747859525 0.48430945401063896 0.4865083552244531 0.48436506019381165
          0.48677280914009635 0.4851334295798069 0.4837834368691075 0.4778687778142463 0.4832268358585332 0.4616673593200924
          0.4832036985808025 0.4600529619305661 0.48320630000767173 0.45993391740662104 0.4832065085238766 0.4599286637449971
          0.483206562277093 0.4599284980268388 0.48320712597723936 0.45992824589628667 0.4832123188790368 0.45992506509829456
          0.4832867356484992 0.4598614117513451 0.48380800899755183 0.46010917183644606 0.45946843315848684 0.470587471715668
          0.4548969368167973 0.3762557374651273 0.45485679152619074 0.3753024902407772 0.45487908100191876 0.37522719991088005
          0.45488122857540947 0.3752236732113998 0.45488131991948955 0.37522357717067234 0.45488158287789693 0.37522358069583883
          0.45488203090680546 0.3752236614822958 0.4548923426834064 0.3752238870385468 0.4549657331642034 0.375214834866388
        </DataArray>
        <DataArray type="Float64" Name="sgtco" format="ascii" RangeMin="0.375214834866388" RangeMax="0.48677280914009635">
          0.4865623085431401 0.4860331884332465 0.4864866844359248 0.4845792707610964 0.48648632338924114 0.48431788798523034
          0.48648693814311383 0.48429982292802887 0.48648694066920306 0.48429901479488946 0.48648698351605557 0.48429898947227823
          0.4864869027926918 0.48429947375516436 0.4864871747859525 0.48430945401063896 0.4865083552244531 0.48436506019381165
          0.48677280914009635 0.4851334295798069 0.4837834368691075 0.4778687778142463 0.4832268358585332 0.4616673593200924
          0.4832036985808025 0.4600529619305661 0.48320630000767173 0.45993391740662104 0.4832065085238766 0.4599286637449971
          0.483206562277093 0.4599284980268388 0.48320712597723936 0.45992824589628667 0.4832123188790368 0.45992506509829456
          0.4832867356484992 0.4598614117513451 0.48380800899755183 0.46010917183644606 0.45946843315848684 0.470587471715668
          0.4548969368167973 0.3762557374651273 0.45485679152619074 0.3753024902407772 0.45487908100191876 0.37522719991088005
          0.45488122857540947 0.3752236732113998 0.45488131991948955 0.37522357717067234 0.45488158287789693 0.37522358069583883
          0.45488203090680546 0.3752236614822958 0.4548923426834064 0.3752238870385468 0.4549657331642034 0.375214834866388
        </DataArray>
        <DataArray type="Float64" Name="MOSGS" NumberOfComponents="3" format="ascii" RangeMin="0" RangeMax="0.533838511103227">
          6.95213339070813e-310 6.95213339070813e-310 4.67598142917026e-310 -0.00015901856260255095 0.00002682896561019427 0
          -0.010201894118707831 0.00323935404245215 0 -0.00009948492681106555 0.00024385243146790364 0
          -0.00463024723980249 0.0016239421954817956 0 -0.00013480232204501246 0.0002614378584713128 0
          -0.0036884940080476928 0.0013798583176302423 0 -0.00012846702870781602 0.0002619799069751373 0
          -0.0035943345061623753 0.0013607055396175384 0 -0.00012846658128723432 0.0002619803558840729 0
          -0.003589753359914586 0.0013597018930230275 0 -0.00012889243056002256 0.0002619974981577952 0
          -0.0035904626596797683 0.0013598031161588457 0 -0.00008749461164013809 0.0002607574970176217 0
          -0.0035960108801410345 0.0013600042203551035 0 0.00028315825595477575 0.00023916899705282843 0
          -0.0033321170176535296 0.0013092520049436487 0 0.000056042846772121025 0.00015362078478656856 0
          -0.0028523201569929883 0.0012648237119604483 0 -0.0015376927997553052 0.0005615972480310322 0
          0.002752171524634342 -0.001044989017165346 0 -0.020445794789441838 0.008723660536198703 0
          -0.15381347211335067 0.05008721924844462 0 -0.021902605118681143 0.009246705052604911 0
          -0.08418529265470333 0.02863008941306903 0 -0.02200863111182337 0.00930183840735983 0
          -0.07623883990199717 0.026479221070628927 0 -0.02197523571978056 0.009299671683458934 0
          -0.07552439569635774 0.026301814545707267 0 -0.02197288495779205 0.009299204516535077 0
          -0.07548172619429445 0.026292216036183935 0 -0.021973742399459407 0.009299334164542435 0
          -0.07548101174553894 0.02629202475008258 0 -0.021983911354679943 0.00930023424635135 0
          -0.07549895006866696 0.026295073760257748 0 -0.021768957118554033 0.009251739991104083 0
          -0.0757249007792699 0.026332602388516674 0 -0.021439173661257582 0.009205927295676469 0
          -0.07842968105585776 0.026861023703158817 0 -0.014939241986344384 0.007148345871060313 0
          -0.08834940714488015 0.028879514434750866 0 0.168828662482493 -0.05505896040159068 0
          -0.4393390212186955 0.30325695436627464 0 0.19362644344179808 -0.06521481356219702 0
          0.22503299857638376 -0.09537035729121336 0 0.19705586768483918 -0.06630145555538837 0
          0.21164060031073176 -0.09058034121277525 0 0.19738493054776451 -0.06639209443260351 0
          0.21027294417970677 -0.09012707638054704 0 0.19740823976674648 -0.0663978531527707 0
          0.21020878351441974 -0.09010664388667244 0 0.19740839331664434 -0.06639793262442266 0
          0.21020750197923527 -0.09010623796121578 0 0.1973882306423902 -0.06639408918587021 0
          0.21020733119941354 -0.09010619611802297 0 0.19712782875342616 -0.06634689338749822 0
          0.21019842928937676 -0.09010418539972825 0 0.19361799572903357 -0.06561177771873442 0
          0.21008418377876803 -0.09008148708054219 0 0.17962379554812138 -0.06266922803434868 0
          0.2089474897325956 -0.0897997751444108 0
          <InformationKey name="L2_NORM_RANGE" location="vtkDataArray" length="2">
            <Value index="0">
              0
            </Value>
            <Value index="1">
              0.5338385111
            </Value>
          </InformationKey>
        </DataArray>
        <DataArray type="Float64" Name="CORES" format="ascii" RangeMin="-3.7873414634146334" RangeMax="1.6729511404033857">
          -0.01825714259103449 -0.11927634232569208 -0.022102405952053428 -0.0854291918597834 -0.02216575797420453 -0.07101159613227476
          -0.022101376974623055 -0.06945461398638857 -0.022098384638546763 -0.0693599925715625 -0.022085189297125496 -0.06937318338045992
          -0.021334151443712895 -0.06923384417020587 -0.018583017764251114 -0.06596330556635221 -0.024162976067421398 -0.05430782269840671
          -0.018393973723705912 0.013393037384792618 -0.17481997429469187 -1.5740124748963007 -0.2076749926845427 -0.8597617717388819
          -0.20629001800704871 -0.7512205586372322 -0.20578116855283546 -0.7391202306829503 -0.20573440090504325 -0.7383680544984401
          -0.20575263918133657 -0.7383522188553792 -0.205660840553052 -0.7386454251084242 -0.20262088064500916 -0.7407016906438618
          -0.18956600147803337 -0.7672859392888931 -0.06979867984035115 -0.7055459709328322 0.5652848486106957 -3.7873414634146334
          0.827549504957344 1.6729511404033857 0.8759674944240513 1.4897996208667408 0.8823522753092974 1.469605360919815
          0.882783337621777 1.4684277829385877 0.8827854389384999 1.468389204143589 0.8824561255208904 1.4683826210458675
          0.8799564137779701 1.468237026778848 0.8451452311126082 1.4671657266877565 0.9017154599142903 1.4549998156384372
        </DataArray>
        <DataArray type="Float64" Name="MORES" NumberOfComponents="3" format="ascii" RangeMin="0.045076411798181025" RangeMax="10.852027268908394">
          -0.043789483919427816 0.010694110466484184 0 -0.3313365644397902 0.10538621939608413 0
          -0.05691973618548729 0.01788460992614961 0 -0.23720446433007641 0.07568129358920281 0
          -0.05697925605665122 0.018626872956687662 0 -0.1913241084460866 0.06403452686037406 0
          -0.056744164320403134 0.01866152977254284 0 -0.18626536444710592 0.06288520982740864 0
          -0.05673347050630467 0.01866234486623826 0 -0.1859533184547132 0.06282093365624893 0
          -0.05669641433418221 0.018661488811328286 0 -0.18599917840187224 0.06282582288334579 0
          -0.054239708093444416 0.018571485938663868 0 -0.18557177518717513 0.06272794945548449 0
          -0.044947751290088156 0.01802481725378964 0 -0.17479138527943283 0.06089312087080362 0
          -0.06366465507892703 0.016518634902322693 0 -0.13861294211151595 0.05332414294130928 0
          -0.05374485142505035 0.018171665864361235 0 0.04656314776021277 -0.02723642000260673 0
          -0.3608164921437569 0.1880034021990884 0 -4.369210699145191 1.4492569365819326 0
          -0.4656684915936622 0.2229452549407166 0 -2.2690221263493013 0.7814164909364517 0
          -0.4598041445145662 0.22259709079796786 0 -1.9259070571423482 0.6851274385517064 0
          -0.4579125428343771 0.22230830749066266 0 -1.886817697882155 0.6753242442245595 0
          -0.4577442798379181 0.22228281971258868 0 -1.8843708531879138 0.6747494020024101 0
          -0.45780646077009957 0.222290839775949 0 -1.8843207462728304 0.6747357082004604 0
          -0.45756002794691986 0.22220852783038447 0 -1.885299125962972 0.6748958162743588 0
          -0.447820302029033 0.22028679921526262 0 -1.8920663693782473 0.6759767935256298 0
          -0.40993264131666907 0.2121258444309197 0 -1.9787959806648467 0.6932278482029446 0
          -0.08256973827480008 0.1047627590867799 0 -1.8195910730920406 0.6282674385324878 0
          1.3619967101234591 -0.2675891504890652 0 -8.793878273956324 6.358789251734196 0
          2.065142359993288 -0.6546505784714024 0 4.15240233995658 -1.704279014258887 0
          2.224913544227215 -0.7150554382854275 0 3.620963251550759 -1.5234469662947348 0
          2.2465808586619453 -0.7217751021488844 0 3.5600512674171787 -1.5040387067815733 0
          2.2480523007083426 -0.7221895974571654 0 3.556444388111319 -1.5029391135189711 0
          2.2480606205704508 -0.7221961024151154 0 3.556325752657592 -1.502903649837147 0
          2.2469808622779013 -0.7220020241757815 0 3.5563044338241037 -1.5028990282672228 0
          2.2389198555265475 -0.7206397725944411 0 3.555828389822762 -1.502804649049367 0
          2.128195460266757 -0.6975838112659734 0 3.552345176053915 -1.5022258713862024 0
          2.268423680790049 -0.7720708609138619 0 3.514156791049369 -1.4937915938592896 0
          <InformationKey name="L2_NORM_RANGE" location="vtkDataArray" length="2">
            <Value index="0">
              0.045076411798
            </Value>
            <Value index="1">
              10.852027269
            </Value>
          </InformationKey>
        </DataArray>
        <DataArray type="Float64" Name="ENRES" format="ascii" RangeMin="-16.541466216627242" RangeMax="7.6346229880070435">
          -0.07135926425971834 -0.6145001268910069 -0.1029328564217622 -0.441213448214187 -0.10338772151869213 -0.35129369939520916
          -0.10292121556707307 -0.34133941511458943 -0.10289870346505142 -0.34072077302129444 -0.10282320601697378 -0.34080438754061326
          -0.097969886287953 -0.3398770863428038 -0.07923426028276814 -0.31763194116799653 -0.11394179756656547 -0.24323244697737312
          -0.08961733531896755 0.13409431207358072 -0.725796813295414 -8.51639624112579 -0.9590460171564601 -4.402153137776583
          -0.9461988456441621 -3.709297270902976 -0.9421282813252487 -3.6305310322458464 -0.9417703784440725 -3.6256237979467976
          -0.9418841607288022 -3.625519926419087 -0.9412945985072838 -3.627326172958995 -0.920680724078847 -3.638682713195341
          -0.8406777244358272 -3.7909935528295486 -0.17552807827845296 -3.3777673536038537 2.0480848335367994 -16.541466216627242
          3.616615729208725 7.6346229880070435 3.97120507690384 6.584437877852871 4.017988839493898 6.463098781647395
          4.021115670772332 6.455933949514818 4.021142012594988 6.455700532521664 4.019141126053003 6.455660412067056
          4.005357719143768 6.454779926673218 3.8078528771772633 6.448843685954293 4.189636575721706 6.381795053562774
        </DataArray>
      </CellData>
      <Points>
        <DataArray type="Float32" Name="Points" NumberOfComponents="3" format="ascii" RangeMin="0" RangeMax="4.2201894765504395">
          4.099999904632568 1 0 4.099999904632568 0.6666666865348816 0
          3.690000057220459 1 0 3.690000057220459 0.6666666865348816 0
          4.099999904632568 0.3333333134651184 0 3.690000057220459 0.3333333134651184 0
          3.2799999713897705 1 0 3.2799999713897705 0.6666666865348816 0
          4.099999904632568 0 0 3.2799999713897705 0.3333333134651184 0
          3.690000057220459 0 0 2.869999885559082 1 0
          2.869999885559082 0.6666666865348816 0 3.2799999713897705 0 0
          2.869999885559082 0.3333333134651184 0 2.869999885559082 0 0
          2.4600000381469727 1 0 2.4600000381469727 0.6666666865348816 0
          2.4600000381469727 0.3333333134651184 0 2.4600000381469727 0 0
          2.049999952316284 1 0 2.049999952316284 0.6666666865348816 0
          2.049999952316284 0.3333333134651184 0 2.049999952316284 0 0
          1.6399999856948853 1 0 1.6399999856948853 0.6666666865348816 0
          1.6399999856948853 0.3333333134651184 0 1.6399999856948853 0 0
          1.2300000190734863 1 0 1.2300000190734863 0.6666666865348816 0
          1.2300000190734863 0.3333333134651184 0 1.2300000190734863 0 0
          0.8199999928474426 1 0 0.8199999928474426 0.6666666865348816 0
          0.8199999928474426 0.3333333134651184 0 0.8199999928474426 0 0
          0.4099999964237213 1 0 0.4099999964237213 0.6666666865348816 0
          0.4099999964237213 0.3333333134651184 0 0.4099999964237213 0 0
          0 1 0 0 0.6666666865348816 0
          0 0.3333333134651184 0 0 0 0
          <InformationKey name="L2_NORM_RANGE" location="vtkDataArray" length="2">
            <Value index="0">
              0
            </Value>
            <Value index="1">
              4.2201894766
            </Value>
          </InformationKey>
        </DataArray>
      </Points>
      <Cells>
        <DataArray type="Int64" Name="connectivity" format="ascii" RangeMin="0" RangeMax="43">
          39 38 43 38 42 43
          35 34 39 34 38 39
          31 30 35 30 34 35
          27 26 31 26 30 31
          23 22 27 22 26 27
          19 18 23 18 22 23
          15 14 19 14 18 19
          13 9 15 9 14 15
          10 5 13 5 9 13
          8 4 10 4 5 10
          38 37 42 37 41 42
          34 33 38 33 37 38
          30 29 34 29 33 34
          26 25 30 25 29 30
          22 21 26 21 25 26
          18 17 22 17 21 22
          14 12 18 12 17 18
          9 7 14 7 12 14
          5 3 9 3 7 9
          4 1 5 1 3 5
          37 36 41 36 40 41
          33 32 37 32 36 37
          29 28 33 28 32 33
          25 24 29 24 28 29
          21 20 25 20 24 25
          17 16 21 16 20 21
          12 11 17 11 16 17
          7 6 12 6 11 12
          3 2 7 2 6 7
          1 0 3 0 2 3
        </DataArray>
        <DataArray type="Int64" Name="offsets" format="ascii" RangeMin="3" RangeMax="180">
          3 6 9 12 15 18
          21 24 27 30 33 36
          39 42 45 48 51 54
          57 60 63 66 69 72
          75 78 81 84 87 90
          93 96 99 102 105 108
          111 114 117 120 123 126
          129 132 135 138 141 144
          147 150 153 156 159 162
          165 168 171 174 177 180
        </DataArray>
        <DataArray type="UInt8" Name="types" format="ascii" RangeMin="5" RangeMax="5">
          5 5 5 5 5 5
          5 5 5 5 5 5
          5 5 5 5 5 5
          5 5 5 5 5 5
          5 5 5 5 5 5
          5 5 5 5 5 5
          5 5 5 5 5 5
          5 5 5 5 5 5
          5 5 5 5 5 5
          5 5 5 5 5 5
        </DataArray>
      </Cells>
    </Piece>
  </UnstructuredGrid>
</VTKFile>
