<?xml version="1.0"?>
<VTKFile type="UnstructuredGrid" version="0.1" byte_order="LittleEndian" header_type="UInt32" compressor="vtkZLibDataCompressor">
  <UnstructuredGrid>
    <Piece NumberOfPoints="44" NumberOfCells="60">
      <PointData>
        <DataArray type="Float64" Name="Density" format="ascii" RangeMin="1" RangeMax="1.7">
          1.7 1.311256142104587 1.7 1.315179075921102 1.026248146552243 1.0314882352151378
          1.7 1.312412739180256 1.0036375541769815 1.0313135674260363 1.0081942448931926 1.7
          1.3122887654103204 1.0052888581000932 1.0318752793373818 1.0049408911992082 1.7 1.3122460507850544
          1.0319622539159232 1.0049517209657735 1.7 1.312233037269313 1.0319683986063062 1.0049559343963261
          1.7 1.3120794088744834 1.0319397981351552 1.0049534093782388 1.7 1.3103102567209928
          1.0315731476166254 1.004894591644761 1.7 1.2966670733969385 1.0287133371341521 1.0043826026750844
          1.7 1.225477760643531 1.0162172556656899 1.0019094386111143 1 1
          1 1
        </DataArray>
        <DataArray type="Float64" Name="Momentum" NumberOfComponents="3" format="ascii" RangeMin="2.9" RangeMax="4.535233026008696">
          4.4528099999999995 -0.86071 0 3.739717332269464 -0.27365604112318304 0
          4.4528099999999995 -0.86071 0 3.743028872080258 -0.2780831000831127 0
          2.9770687737207076 -0.018014981345367498 0 2.988537414496667 -0.024866263898331888 0
          4.4528099999999995 -0.86071 0 3.7340436079752126 -0.27633020076753734 0
          2.9104410815037 -0.0010401490383218606 0 2.988005299992336 -0.02467203351882634 0
          2.924324212545528 0 0 4.4528099999999995 -0.86071 0
          3.7336375192011846 -0.2763334598257024 0 2.9157365402822 0 0
          2.9898504121438543 -0.025062920984231074 0 2.914725615041368 0 0
          4.4528099999999995 -0.86071 0 3.733499811022033 -0.2763135384251705 0
          2.9901380499448256 -0.02512311644335281 0 2.9147706862797653 0 0
          4.4528099999999995 -0.86071 0 3.733457332327662 -0.27630437587042406 0
          2.9901593775380966 -0.02512706547663018 0 2.9147875037906927 0 0
          4.4528099999999995 -0.86071 0 3.7329562301339174 -0.27617645185829576 0
          2.9900659377690033 -0.02510791222499215 0 2.914779657796994 0 0
          4.4528099999999995 -0.86071 0 3.727291469651695 -0.2746120345927693 0
          2.9888900410350008 -0.024842952211473403 0 2.9145907028918043 0 0
          4.4528099999999995 -0.86071 0 3.685097238277702 -0.2617540462879206 0
          2.9800367854205994 -0.022565735366179288 0 2.9130002010799103 0 0
          4.4528099999999995 -0.86071 0 3.480059167288306 -0.19290343713298985 0
          2.943581633405989 -0.011914335359012717 0 2.905715156159487 0 0
          2.9 0 0 2.9 0 0
          2.9 0 0 2.9 0 0
          <InformationKey name="L2_NORM_RANGE" location="vtkDataArray" length="2">
            <Value index="0">
              2.9
            </Value>
            <Value index="1">
              4.535233026
            </Value>
          </InformationKey>
        </DataArray>
        <DataArray type="Float64" Name="Energy" format="ascii" RangeMin="4.923" RangeMax="7.585636452999999">
          7.585636452999999 6.504366785589969 7.585636452999999 6.516956467730821 5.063235729973049 5.085836212901012
          7.585636452999999 6.5010098267160386 4.942606184544734 5.083939814502104 4.968358843425671 7.585636452999999
          6.500486552781621 4.951370814712145 5.087375040231721 4.949143138242959 7.585636452999999 6.500248939266111
          5.087920246690624 4.949179971656916 7.585636452999999 6.500166507068446 5.087962109650874 4.94920929009159
          7.585636452999999 6.499141792820945 5.087772981334635 4.949193363032445 7.585636452999999 6.48754584864876
          5.085400604048143 4.948818439343106 7.585636452999999 6.401500099240031 5.06770839913893 4.9457176827093985
          7.585636452999999 5.991132280899425 4.996739615271077 4.9320309736159595 4.923 4.923
          4.923 4.923
        </DataArray>
      </PointData>
      <CellData>
        <DataArray type="UInt8" Name="vtkGhostType" format="ascii" RangeMin="0" RangeMax="0">
          0 0 0 0 0 0
          0 0 0 0 0 0
          0 0 0 0 0 0
          0 0 0 0 0 0
          0 0 0 0 0 0
          0 0 0 0 0 0
          0 0 0 0 0 0
          0 0 0 0 0 0
          0 0 0 0 0 0
          0 0 0 0 0 0
        </DataArray>
        <DataArray type="Float64" Name="sgvis" format="ascii" RangeMin="0.3709247049197451" RangeMax="0.4866602468075786">
          0.48646014174406815 0.4858732728997195 0.4863325602918809 0.48367032583221414 0.48632359072621434 0.48268728591162446
          0.4863296822014249 0.48253987044628255 0.48633077469675046 0.4825270296576708 0.4863306382856075 0.482526517489291
          0.4863289856769417 0.4825300111778593 0.4863162659786391 0.4825567818153089 0.4862893143103635 0.4825615099206121
          0.4866602468075786 0.4830797168930796 0.4816045998528323 0.4759991453990321 0.48080588581075 0.45202298166354626
          0.48075470804045295 0.44786886297528783 0.4807843082550113 0.4473767745741477 0.48079077996760844 0.447336485210171
          0.480791419004596 0.4473342652721225 0.48079202768760376 0.44733387885772913 0.4807961129710826 0.44733610534405865
          0.4808646980795095 0.44731801487035416 0.4814513657451238 0.4475274974790623 0.4585311419361606 0.47460467042915555
          0.4513153234818239 0.3735373947753621 0.4513038755692822 0.37124665414905045 0.45147863374886854 0.3709531821097688
          0.45151093787706376 0.3709263764798152 0.45151417856209575 0.37092475025855115 0.4515143011147221 0.3709247049197451
          0.4515125972888311 0.37092502152308454 0.4515250884547354 0.37092893452166137 0.45162683885828436 0.37095610185736827
        </DataArray>
        <DataArray type="Float64" Name="sgtco" format="ascii" RangeMin="0.3709247049197451" RangeMax="0.4866602468075786">
          0.48646014174406815 0.4858732728997195 0.4863325602918809 0.48367032583221414 0.48632359072621434 0.48268728591162446
          0.4863296822014249 0.48253987044628255 0.48633077469675046 0.4825270296576708 0.4863306382856075 0.482526517489291
          0.4863289856769417 0.4825300111778593 0.4863162659786391 0.4825567818153089 0.4862893143103635 0.4825615099206121
          0.4866602468075786 0.4830797168930796 0.4816045998528323 0.4759991453990321 0.48080588581075 0.45202298166354626
          0.48075470804045295 0.44786886297528783 0.4807843082550113 0.4473767745741477 0.48079077996760844 0.447336485210171
          0.480791419004596 0.4473342652721225 0.48079202768760376 0.44733387885772913 0.4807961129710826 0.44733610534405865
          0.4808646980795095 0.44731801487035416 0.4814513657451238 0.4475274974790623 0.4585311419361606 0.47460467042915555
          0.4513153234818239 0.3735373947753621 0.4513038755692822 0.37124665414905045 0.45147863374886854 0.3709531821097688
          0.45151093787706376 0.3709263764798152 0.45151417856209575 0.37092475025855115 0.4515143011147221 0.3709247049197451
          0.4515125972888311 0.37092502152308454 0.4515250884547354 0.37092893452166137 0.45162683885828436 0.37095610185736827
        </DataArray>
        <DataArray type="Float64" Name="MOSGS" NumberOfComponents="3" format="ascii" RangeMin="0" RangeMax="0.5713478648250633">
          6.95213339063146e-310 4.67598137905383e-310 0 0.00306592596707887 -0.0012623965352159148 0
          -0.011511174023776124 0.003168553157776759 0 0.0019061865181485256 -0.0007593717342842673 0
          -0.006553137046253028 0.001636523020823524 0 0.0016495418819967313 -0.0006225901673614961 0
          -0.002616312928344407 0.0005111975982643198 0 0.0016617191246561477 -0.0006075497243128328 0
          -0.001820588191896115 0.0003127495035702633 0 0.0016669016541376001 -0.0006066262007172649 0
          -0.0017266850447698353 0.00029143096710530607 0 0.0016775753465763507 -0.0006070994744335301 0
          -0.0017122308850402311 0.00028878043764018417 0 0.001723600116558859 -0.0006115454675797393 0
          -0.0016283788614617168 0.0002732029967607058 0 0.0016863404509767923 -0.0006260948159018741 0
          -0.0008683853116230426 0.00011653786685088252 0 -0.00185090278393993 -0.00044874161449526154 0
          -0.0015489767461934639 0.00031742348540439436 0 -0.005419746320692699 0.0016083832814646941 0
          -0.0036311530847939217 -0.0008685385996503048 0 0.02261427184014941 -0.0041168011270994636 0
          -0.21019209857385507 0.07145906444841629 0 0.018805596526441894 -0.002883771410521618 0
          -0.06943449588315406 0.024556008826427406 0 0.018650047080074388 -0.002884725014131148 0
          -0.04082881281726528 0.015583169396755685 0 0.018774581135820655 -0.002903530267705511 0
          -0.036490542888696756 0.01434438323679492 0 0.018806186489882262 -0.002908021669568016 0
          -0.03602297919298762 0.014220610419608532 0 0.018816358612472446 -0.0029097942344696124 0
          -0.03598981084877978 0.014211970292615816 0 0.018905191293038463 -0.0029283292800123036 0
          -0.03603377815317341 0.014217956677530827 0 0.019805826658531017 -0.0031211495254811535 0
          -0.036241527147208796 0.014233773025856213 0 0.020448994730405082 -0.003218218034071953 0
          -0.03805721125283794 0.01446088419593468 0 0.020186182691638556 -0.0040853008269964115 0
          -0.04238164209704787 0.01441765743700758 0 0.10563663789715136 -0.03188498648069944 0
          -0.4692377773040949 0.3259667022732099 0 0.15554115653298461 -0.053518289928035395 0
          0.23000904715376774 -0.0959591656995743 0 0.16835142959190613 -0.05785391444691367 0
          0.19377350516574235 -0.08211617903316457 0 0.170718038989281 -0.05849993417591232 0
          0.18672644308558903 -0.07965342280298113 0 0.17099836326663362 -0.05856529610654157 0
          0.18585115401921984 -0.07937072526616296 0 0.1710171441604223 -0.05856946535882916 0
          0.18578168683591337 -0.07934967522762748 0 0.1709584623179351 -0.05855966466793631 0
          0.1857763387054263 -0.07934830503788934 0 0.17064690042473007 -0.05852424853602523 0
          0.18575718107327494 -0.07934451920847302 0 0.16768293530494965 -0.05803227565202293 0
          0.18567504089626563 -0.07933920484959106 0 0.16116050701481882 -0.05807443401585989 0
          0.18547625288608643 -0.0793367934617601 0
          <InformationKey name="L2_NORM_RANGE" location="vtkDataArray" length="2">
            <Value index="0">
              0
            </Value>
            <Value index="1">
              0.57134786483
            </Value>
          </InformationKey>
        </DataArray>
        <DataArray type="Float64" Name="CORES" format="ascii" RangeMin="-3.7873414634146334" RangeMax="1.7620816537963173">
          0.005054840530701387 -0.12150720794523089 -0.01770632766992586 -0.12513281408817228 -0.01982497675346525 -0.08654630738097321
          -0.01960014953413443 -0.07605860728966052 -0.019500738758096083 -0.07458851831249827 -0.019417993191718885 -0.07435727827008828
          -0.019390571810189876 -0.07332898050051029 -0.024098050495981183 -0.06807707001328882 -0.058632010988917085 -0.08027902732038178
          -0.0371720757018259 -0.07939853427464268 0.18012175363656008 -1.6561166919474473 0.1186968435901749 -0.653204780266084
          0.11740756911213313 -0.3686312383334297 0.11983216924967088 -0.3154257953806794 0.12042161003054008 -0.30846349588961663
          0.12059159360240079 -0.3078735795680878 0.12177056722090973 -0.30817672731893925 0.1288771347602884 -0.30804220347367023
          0.12574818776392016 -0.3250278237766896 0.15278937008718452 -0.2843013410600709 0.3473031969955727 -3.7873414634146334
          0.6159066049298219 1.7620816537963173 0.7273100994376333 1.3573376961482195 0.7554212254536836 1.2697532035612182
          0.7596778065642669 1.2577785829245924 0.7600419417536941 1.2567222438974146 0.7596065437762443 1.256640352138346
          0.7591655968915014 1.256491625289028 0.7342511512775717 1.256794227862805 0.7880731325937741 1.2525117747311003
        </DataArray>
        <DataArray type="Float64" Name="MORES" NumberOfComponents="3" format="ascii" RangeMin="0.018222775352688337" RangeMax="10.893158212173882">
          0.012723791213133169 -0.013045101713637219 0 -0.34193201240278115 0.08985326469976063 0
          -0.05709858488474645 0.002409080546548953 0 -0.38066925937835117 0.10171085200009876 0
          -0.06382851074506751 0.007116157063767663 0 -0.2601224652900591 0.06654896480984214 0
          -0.06298418772095521 0.0077070278065220765 0 -0.22617113833146088 0.058032693000565495 0
          -0.06263028137366308 0.0077484076303898225 0 -0.2213373640470512 0.05695552284016206 0
          -0.062314370014500575 0.007737422041059747 0 -0.22055424895313785 0.05681214687277181 0
          -0.06205791064764782 0.007657548450545226 0 -0.21707643501646728 0.05616656707789489 0
          -0.07622618564835157 0.008028230729646965 0 -0.19940843786523785 0.05261244885807186 0
          -0.18117716897066893 0.015268954966092083 0 -0.23783400499163648 0.06047199272150622 0
          -0.10717106425968073 0.04068037183162644 0 -0.2559188983541867 0.02598491504724406 0
          0.6428675521408993 -0.13985168615410756 0 -4.4895644467367015 1.5701348574603697 0
          0.4402656397550653 -0.06607757733835229 0 -1.7609093253036123 0.6281971635146084 0
          0.43476890674521895 -0.06683540106745761 0 -0.8849098123396779 0.3408157015545335 0
          0.4434572047865908 -0.06882762322572311 0 -0.7131826540393953 0.29138795159616226 0
          0.44557354236782665 -0.06919582415236836 0 -0.6903012418494702 0.2854055481847928 0
          0.4461625477730986 -0.06929597245678237 0 -0.688343201796473 0.2849132805729926 0
          0.45004434044200137 -0.07006733242234175 0 -0.6893047311981142 0.28500841319640996 0
          0.47326652015349824 -0.07483349383358762 0 -0.6887234999707609 0.2840155332361249 0
          0.46181705139726503 -0.0713289286943618 0 -0.7449582653279949 0.29295760205465776 0
          0.506575135375565 -0.10460859002328965 0 -0.6708210940436347 0.24584807695283484 0
          0.8734465991945977 -0.03700006556298341 0 -8.805159974295751 6.413271681638889 0
          1.3988248610425815 -0.43949340720189994 0 4.4300547544654165 -1.7799812972362075 0
          1.7548547263643415 -0.5830917456315164 0 3.281078371109153 -1.355106677468158 0
          1.8509292050599622 -0.6120541294772088 0 3.0170909355743865 -1.2652013096279202 0
          1.8656921183309334 -0.6158273903962108 0 2.9798207469357694 -1.2534345952214236 0
          1.866973236351074 -0.6161352496435026 0 2.9764720312825412 -1.2524375744980945 0
          1.8655998710980581 -0.6159428075671025 0 2.976210731760937 -1.2523702857074168 0
          1.8642776097775835 -0.6167130430683024 0 2.975744601920966 -1.2522989860043456 0
          1.784306588795518 -0.6019809345587159 0 2.9766527489541783 -1.2530143364030455 0
          1.8894000503849888 -0.6750016765564798 0 2.9633142563586734 -1.2506414450230074 0
          <InformationKey name="L2_NORM_RANGE" location="vtkDataArray" length="2">
            <Value index="0">
              0.018222775353
            </Value>
            <Value index="1">
              10.893158212
            </Value>
          </InformationKey>
        </DataArray>
        <DataArray type="Float64" Name="ENRES" format="ascii" RangeMin="-16.637368276250953" RangeMax="8.272548888826698">
          0.0598890130090752 -0.5750273732369776 -0.09426593057147559 -0.7052821758406783 -0.11107490052763924 -0.4718176952703734
          -0.10968483992438527 -0.4049615676792952 -0.10898952022077363 -0.3953979108718683 -0.10841155615023101 -0.3938498506305662
          -0.10856808333354379 -0.3872609649163932 -0.1404267776802302 -0.35510510681059154 -0.35658990128107637 -0.4434663138987407
          -0.20711803672223944 -0.4632602120360966 1.313484091971954 -8.55439274039798 0.8031216712552078 -3.4539609562508113
          0.7869380643405308 -1.6677249335055575 0.8056129849772513 -1.313812031118671 0.8101325981945915 -1.266694641526191
          0.8113320474830359 -1.2626302234099933 0.818732867873333 -1.264197874951691 0.8619060469253497 -1.2608689015345576
          0.8242353747263063 -1.3639057812687945 0.8999889997781323 -1.1907328041130791 1.3468524455016802 -16.637368276250953
          2.346702871913015 8.272548888826698 3.1293263713425836 5.978413802305038 3.337014483138914 5.441999521359883
          3.3685875549832978 5.36594538803047 3.3713654110433864 5.359112702117386 3.3690234985064538 5.358601419752988
          3.369011329227617 5.357818158528718 3.2227318369250595 5.360357194171574 3.4668923293483997 5.335106949240141
        </DataArray>
      </CellData>
      <Points>
        <DataArray type="Float32" Name="Points" NumberOfComponents="3" format="ascii" RangeMin="0" RangeMax="4.2201894765504395">
          4.099999904632568 1 0 4.099999904632568 0.6666666865348816 0
          3.690000057220459 1 0 3.690000057220459 0.6666666865348816 0
          4.099999904632568 0.3333333134651184 0 3.690000057220459 0.3333333134651184 0
          3.2799999713897705 1 0 3.2799999713897705 0.6666666865348816 0
          4.099999904632568 0 0 3.2799999713897705 0.3333333134651184 0
          3.690000057220459 0 0 2.869999885559082 1 0
          2.869999885559082 0.6666666865348816 0 3.2799999713897705 0 0
          2.869999885559082 0.3333333134651184 0 2.869999885559082 0 0
          2.4600000381469727 1 0 2.4600000381469727 0.6666666865348816 0
          2.4600000381469727 0.3333333134651184 0 2.4600000381469727 0 0
          2.049999952316284 1 0 2.049999952316284 0.6666666865348816 0
          2.049999952316284 0.3333333134651184 0 2.049999952316284 0 0
          1.6399999856948853 1 0 1.6399999856948853 0.6666666865348816 0
          1.6399999856948853 0.3333333134651184 0 1.6399999856948853 0 0
          1.2300000190734863 1 0 1.2300000190734863 0.6666666865348816 0
          1.2300000190734863 0.3333333134651184 0 1.2300000190734863 0 0
          0.8199999928474426 1 0 0.8199999928474426 0.6666666865348816 0
          0.8199999928474426 0.3333333134651184 0 0.8199999928474426 0 0
          0.4099999964237213 1 0 0.4099999964237213 0.6666666865348816 0
          0.4099999964237213 0.3333333134651184 0 0.4099999964237213 0 0
          0 1 0 0 0.6666666865348816 0
          0 0.3333333134651184 0 0 0 0
          <InformationKey name="L2_NORM_RANGE" location="vtkDataArray" length="2">
            <Value index="0">
              0
            </Value>
            <Value index="1">
              4.2201894766
            </Value>
          </InformationKey>
        </DataArray>
      </Points>
      <Cells>
        <DataArray type="Int64" Name="connectivity" format="ascii" RangeMin="0" RangeMax="43">
          39 38 43 38 42 43
          35 34 39 34 38 39
          31 30 35 30 34 35
          27 26 31 26 30 31
          23 22 27 22 26 27
          19 18 23 18 22 23
          15 14 19 14 18 19
          13 9 15 9 14 15
          10 5 13 5 9 13
          8 4 10 4 5 10
          38 37 42 37 41 42
          34 33 38 33 37 38
          30 29 34 29 33 34
          26 25 30 25 29 30
          22 21 26 21 25 26
          18 17 22 17 21 22
          14 12 18 12 17 18
          9 7 14 7 12 14
          5 3 9 3 7 9
          4 1 5 1 3 5
          37 36 41 36 40 41
          33 32 37 32 36 37
          29 28 33 28 32 33
          25 24 29 24 28 29
          21 20 25 20 24 25
          17 16 21 16 20 21
          12 11 17 11 16 17
          7 6 12 6 11 12
          3 2 7 2 6 7
          1 0 3 0 2 3
        </DataArray>
        <DataArray type="Int64" Name="offsets" format="ascii" RangeMin="3" RangeMax="180">
          3 6 9 12 15 18
          21 24 27 30 33 36
          39 42 45 48 51 54
          57 60 63 66 69 72
          75 78 81 84 87 90
          93 96 99 102 105 108
          111 114 117 120 123 126
          129 132 135 138 141 144
          147 150 153 156 159 162
          165 168 171 174 177 180
        </DataArray>
        <DataArray type="UInt8" Name="types" format="ascii" RangeMin="5" RangeMax="5">
          5 5 5 5 5 5
          5 5 5 5 5 5
          5 5 5 5 5 5
          5 5 5 5 5 5
          5 5 5 5 5 5
          5 5 5 5 5 5
          5 5 5 5 5 5
          5 5 5 5 5 5
          5 5 5 5 5 5
          5 5 5 5 5 5
        </DataArray>
      </Cells>
    </Piece>
  </UnstructuredGrid>
</VTKFile>
