<?xml version="1.0"?>
<VTKFile type="UnstructuredGrid" version="0.1" byte_order="LittleEndian" header_type="UInt32" compressor="vtkZLibDataCompressor">
  <UnstructuredGrid>
    <Piece NumberOfPoints="32" NumberOfCells="44">
      <PointData>
        <DataArray type="Float64" Name="proc" format="ascii" RangeMin="0" RangeMax="1">
          0 0 0 0 0 0
          0 0 0 0 0 0
          0 0 0 0 0 0
          0 0 0 0 0 0
          0 0 0 1 1 1
          1 1
        </DataArray>
        <DataArray type="Float64" Name="Displacement" NumberOfComponents="3" format="ascii" RangeMin="2.1518010001195136e-11" RangeMax="7.373294351432779e-11">
          5.93657080071348e-11 0 0 3.793100934689401e-11 -1.0162997796395661e-11 0
          5.275431910819308e-11 -3.319397841168553e-11 0 3.381166653576315e-11 -3.839953885409271e-11 0
          2.8505383610641218e-11 -1.6218228116055626e-11 0 3.9811131239151276e-11 -4.9437515039286574e-11 0
          2.4410621655267358e-11 -3.132552325025985e-11 0 4.602564308644916e-11 -5.597167612813169e-11 0
          3.2671251876736473e-11 -5.256261217888957e-11 0 3.80435327312984e-11 -5.752427273080003e-11 0
          1.8227347395908896e-11 -1.9383513198193067e-11 0 2.55900973123717e-11 -4.511139004579712e-11 0
          1.8163043652052054e-11 -3.694528205856475e-11 0 3.743429554535719e-11 -6.120857767185062e-11 0
          2.729846313245763e-11 -5.6099073689936854e-11 0 3.215431936297175e-11 -6.083446380563885e-11 0
          8.274741650265206e-12 -1.9863368421113778e-11 0 2.0640987854632805e-11 -4.998067021363626e-11 0
          8.754596873185869e-12 -3.1598293566177066e-11 0 1.1273335658321261e-11 -4.333387152107978e-11 0
          2.864148868125744e-11 -6.293492072442571e-11 0 3.047700357267395e-11 -6.547829482340727e-11 0
          2.4040693239001183e-11 -5.891760431445612e-11 0 1.618361671875506e-11 -5.3593627542462686e-11 0
          2.7873399708823003e-11 -6.344130321073658e-11 0 2.2733641548847132e-11 -6.022202030769624e-11 0
          3.0006651186863436e-11 -6.231836349315946e-11 0 3.1764467020925184e-11 -6.313200210459549e-11 0
          2.969842896305803e-11 -6.491160523672679e-11 0 2.864813444499035e-11 -6.512317174172411e-11 0
          2.9261136675074836e-11 -6.767815629706266e-11 0 3.7196987905460666e-11 -5.966487339725556e-11 0
          <InformationKey name="L2_NORM_RANGE" location="vtkDataArray" length="2">
            <Value index="0">
              2.1518010001e-11
            </Value>
            <Value index="1">
              7.3732943514e-11
            </Value>
          </InformationKey>
        </DataArray>
        <DataArray type="Float64" Name="TopologicalDerivative1" format="ascii" RangeMin="-0.07038875354722311" RangeMax="0.28499940115586253">
          0.28499940115586253 0.0617062336016274 0.05716892138914477 -0.026154086738494987 0.013796687331350518 -0.008402015996086906
          -0.008306908368816562 0.05727842979914689 -0.04550672031427063 0.001279412306143965 -0.054368687359574175 -0.0363168299244239
          -0.047076958673301875 0.03185835702416849 -0.047589387705164604 -0.04585433618532497 -0.07038875354722311 -0.027722952183650847
          -0.0641107864725747 -0.03116645986376397 -0.05377200098490313 -0.02264972524075594 -0.014388973738248531 0.014444877100922238
          -0.005128109317244875 0.054623713928003984 0.07828781331444189 0.00018682195660572887 -0.06007846800647101 -0.021999868957013655
          0.055122921578820275 0.07776590860051617
        </DataArray>
      </PointData>
      <CellData>
        <DataArray type="UInt8" Name="vtkGhostType" format="ascii" RangeMin="0" RangeMax="0">
          0 0 0 0 0 0
          0 0 0 0 0 0
          0 0 0 0 0 0
          0 0 0 0 0 0
          0 0 0 0 0 0
          0 0 0 0 0 0
          0 0 0 0 0 0
          0 0
        </DataArray>
        <DataArray type="Float64" Name="Stress" NumberOfComponents="6" format="ascii" RangeMin="0.000012353259453803316" RangeMax="0.1192533701760425">
          0.02954125424485276 -0.11309359728329207 0 0.02363300339588139 0 0
          -0.08553684283618815 0.00426418096236704 0 0.0016552403961342067 0 0
          -0.044109210288259385 -0.0006107951137398898 0 -0.0004018129868954018 0 0
          -0.03341837883780646 -0.00042250231416716613 0 0.002678125355153503 0 0
          -0.00004252213024478197 0.000011567824643599574 0 0.000006572178639515075 0 0
          -0.000011736059608636878 0.000003157412576567551 0 0.000002213293883973857 0 0
          -0.00004866542734653449 0.000010367400072951578 0 -8.708175290310204e-7 0 0
          -0.000008226089535782978 -0.000008226089535783426 0 0.00000822608953578276 0 0
          -0.06916952476243521 0.0042028485122071815 0 0.0055313522523998526 0 0
          -0.0070567628161814725 -0.00007288838861171975 0 0.0014542044104648396 0 0
          -0.000037294294172180754 0.000011673901467465975 0 0.00001482629833908255 0 0
          -0.006324381764983218 0.0004016988207401974 0 0.001149915188459138 0 0
          -0.000014972172663456491 0.0000038137797404707195 0 0.000010609394902334972 0 0
          -0.000019674874508205212 0.000002751717776086429 0 0.00001978439460967153 0 0
          -0.00002986722779806662 -3.269141826761163e-7 0 0.000012290448585724179 0 0
          -0.000011691978852458497 0.00001474775911046405 0 0.000009250077100782531 0 0
          -0.000026794969855131197 0.00000804695541882966 0 0.0000228010791098436 0 0
          -0.000031178280512671534 -0.0000031780503034894478 0 0.000010735741226386067 0 0
          0.0000320858394779562 0.000013408387897837532 0 0.000009419169658224012 0 0
          -0.000014970445103727351 -0.0000027224573949174485 0 0.00002676168230170929 0 0
          -0.000007978443527101338 0.000015682799515019345 0 0.000003372199651362161 0 0
          0.007905194981410332 0.000593617998445838 0 0.0007866575546868527 0 0
          -0.000013928719601886711 7.499609445513467e-7 0 0.00002288184184783525 0 0
          0.000023963070243133868 0.000011522838318730885 0 -9.367148804145346e-7 0 0
          0.000002572001591426312 0.000007025743917696451 0 0.000026772857497267583 0 0
          0.0033330946100806154 -0.013534296852198265 0 0.025168644544296886 0 0
          -0.000013586497416760591 0.000023046308080901826 0 0.000017526443496928697 0 0
          0.000007773077226695282 0.00003287911451197952 0 0.00002056790023424401 0 0
          0.00000955507306105236 0.000011172942986252337 0 0.000010921572329081527 0 0
          0.00014703419060562903 0.00010179503537330484 0 0.00005089493051344515 0 0
          0.000029577104518341693 0.00006257990264048404 0 0.000003227962785177868 0 0
          0.0233446050489912 0.004089122426339048 0 0.0003000854785111385 0 0
          0.09085859595671952 0.02793886520745517 0 -0.016360232509794223 0 0
          0.03771843486677651 0.05296528780723497 0 0.003459396619580766 0 0
          0.07073263562618867 0.0239836756941317 0 0.027682251501177334 0 0
          0.027935595520193583 0.001855031406318305 0 0.008653966116660082 0 0
          -0.000009256256310058072 -4.0912791067376495e-7 0 0.00001005330353408438 0 0
          0.0006562025297934301 -0.0046349507427752654 0 0.002337380614021271 0 0
          0.015435155924073216 0.01677768200080319 0 -0.00016429149882948158 0 0
          -0.00311704084835486 -0.07036109189532161 0 0.017900114671027978 0 0
          -0.000009601965763830246 -0.000009607272375108312 0 0.000021557566742434396 0 0
          0.07412000726155837 0.017144269989485126 0 0.013189199874043704 0 0
          -0.001234576196724425 -0.007151658136795776 0 0.016719213967803598 0 0
          -0.0850402558745657 0.004145949162003452 0 -0.0024549145329152175 0 0
          <InformationKey name="L2_NORM_RANGE" location="vtkDataArray" length="2">
            <Value index="0">
              1.2353259454e-05
            </Value>
            <Value index="1">
              0.11925337018
            </Value>
          </InformationKey>
        </DataArray>
        <DataArray type="Float64" Name="Strain" NumberOfComponents="6" format="ascii" RangeMin="6.435840500308897e-14" RangeMax="6.274563286442331e-13">
          2.644555559576683e-13 -5.08149889819783e-13 0 2.5602420345538177e-13 0 0
          -3.636504819008151e-13 1.2534916976879752e-13 0 1.8026787288189497e-14 0 0
          -1.9455336560510893e-13 5.590420089965927e-14 0 -4.627161816542957e-15 0 0
          -1.916353234910912e-13 5.527744621418567e-14 0 4.008157495589666e-14 0 0
          -1.9163532349109095e-13 1.0135193215430902e-13 0 7.119860192808e-14 0 0
          -5.284701409002977e-14 2.7825960246494233e-14 0 2.3977350409716778e-14 0 0
          -1.9455336560510893e-13 9.38166807624287e-14 0 -8.507730434116011e-15 0 0
          -2.3992761146033125e-14 -2.3992761146035548e-14 0 8.911596997097989e-14 0 0
          -3.2750124150460367e-13 1.1603472471899726e-13 0 6.687404417485681e-14 0 0
          -1.6998526921841875e-13 4.939287673572936e-14 0 9.135922208072519e-14 0 0
          -1.6998526921841895e-13 9.525912382966748e-14 0 1.6061823200672765e-13 0 0
          -2.4551405302168997e-13 8.757945627848079e-14 0 1.1389375450970017e-13 0 0
          -6.715127743999045e-14 3.460596474794862e-14 0 1.149351114419622e-13 0 0
          -8.541829100429639e-14 3.605908386894997e-14 0 2.1433094160477493e-13 0 0
          -1.240381397635991e-13 3.597189231976613e-14 0 1.3314652634534526e-13 0 0
          -6.715127743999045e-14 7.606396985917332e-14 0 1.0020916859181075e-13 0 0
          -1.2170440200325036e-13 6.702269323070424e-14 0 2.4701169035663895e-13 0 0
          -1.2593693925676957e-13 2.5730974376300052e-14 0 1.1630386328584907e-13 0 0
          1.1693051295252058e-13 1.576098356021113e-14 0 1.0204100463076011e-13 0 0
          -5.897378285521715e-14 7.369483900836488e-15 0 2.89918224935184e-13 0 0
          -5.284701409002977e-14 7.531805238812396e-14 0 3.6532162889756744e-14 0 0
          1.3394788713971164e-13 -3.0820240139321087e-14 0 3.5455030398408766e-14 0 0
          -5.897378285521715e-14 2.0535736771322335e-14 0 2.4788662001821523e-13 0 0
          8.544257811464412e-14 1.805798852412803e-14 0 -1.0147744537824125e-14 0 0
          1.9344934004890715e-15 2.6058931001118985e-14 0 2.900392895537322e-13 0 0
          4.973693703788189e-14 -9.777496720052744e-14 0 4.402191876712728e-13 0 0
          -8.541829100429639e-14 1.1300940544137501e-13 0 1.8986980455006086e-13 0 0
          -8.711071362077372e-15 1.272799639332122e-13 0 2.228189192043101e-13 0 0
          2.5846625688236087e-14 3.4610087783069285e-14 0 1.1831703356504988e-13 0 0
          1.0528823280345795e-13 5.2135223862261813e-14 0 1.1959634006206096e-13 0 0
          2.5846625688236087e-14 1.2849408787382983e-13 0 2.0079642138327886e-14 0 0
          2.160584414047768e-13 -2.846794579566369e-14 0 7.621602568955741e-15 0 0
          3.4365390164367895e-13 2.83869341849714e-15 0 -1.7723585218943739e-13 0 0
          1.0229917861217617e-13 1.9518830602596424e-13 0 4.2151693156083255e-14 0 0
          2.6914704086975673e-13 1.1707906123831993e-14 0 3.048835689452569e-13 0 0
          1.905778518364592e-13 -4.5423131737593285e-14 0 1.56618124242316e-13 0 0
          -3.805632473689976e-14 9.865620759765234e-15 0 1.0891078828591409e-13 0 0
          6.703852384228343e-14 -1.5826425410687218e-13 0 1.990561672797046e-13 0 0
          8.547158678617236e-14 9.981251319050638e-14 0 -3.509938964180307e-15 0 0
          7.84586587050885e-14 -3.0276151598299824e-13 0 2.02958766926755e-13 0 0
          -2.799910021374063e-14 -2.8027844358163492e-14 0 2.3354030637637255e-13 0 0
          3.2692635481129423e-13 -2.4133088570063524e-14 0 1.6253210184247162e-13 0 0
          4.186268677615711e-15 -3.116436500908445e-14 0 1.9977239270688848e-13 0 0
          -3.595168359298614e-13 1.2357510801822149e-13 0 -2.659490743991485e-14 0 0
          <InformationKey name="L2_NORM_RANGE" location="vtkDataArray" length="2">
            <Value index="0">
              6.4358405003e-14
            </Value>
            <Value index="1">
              6.2745632864e-13
            </Value>
          </InformationKey>
        </DataArray>
      </CellData>
      <Points>
        <DataArray type="Float32" Name="Points" NumberOfComponents="3" format="ascii" RangeMin="92.44066980668491" RangeMax="215.40659228538016">
          200 0 0 200 20 0
          175 0 0 170.3333282470703 25.352571487426758 0
          200 40 0 157 13.358983993530273 0
          180 45.35898208618164 0 150 0 0
          150 28.038475036621094 0 142.39999389648438 13.887187004089355 0
          200 60 0 160 45.35898208618164 0
          171.6666717529297 62.23291015625 0 125 0 0
          140 45.35898208618164 0 130 28.038475036621094 0
          200 80 0 150 62.67949295043945 0
          180 80 0 160 80 0
          120 45.35898208618164 0 110.71759033203125 23.771137237548828 0
          130 62.67949295043945 0 140 80 0
          110 62.67949295043945 0 120 80 0
          100 80 0 90 62.67949295043945 0
          100 45.35898208618164 0 89.30555725097656 23.870376586914062 0
          100 0 0 80 80 0
          <InformationKey name="L2_NORM_RANGE" location="vtkDataArray" length="2">
            <Value index="0">
              92.440669807
            </Value>
            <Value index="1">
              215.40659229
            </Value>
          </InformationKey>
        </DataArray>
      </Points>
      <Cells>
        <DataArray type="Int64" Name="connectivity" format="ascii" RangeMin="0" RangeMax="31">
          0 1 2 25 26 24
          24 26 27 25 24 22
          22 24 20 20 24 28
          28 24 27 16 18 10
          25 22 23 23 22 17
          17 22 14 23 17 19
          14 22 20 17 14 11
          19 17 12 14 20 15
          17 11 12 19 12 18
          15 20 21 12 11 6
          21 20 28 15 21 13
          6 11 3 21 28 29
          3 11 8 6 3 1
          8 11 14 3 8 5
          8 14 15 5 8 9
          8 15 9 9 15 13
          9 13 7 9 7 5
          5 7 2 5 2 3
          18 12 10 4 10 6
          21 29 30 1 4 6
          12 6 10 30 13 21
          3 2 1 27 26 31
        </DataArray>
        <DataArray type="Int64" Name="offsets" format="ascii" RangeMin="3" RangeMax="132">
          3 6 9 12 15 18
          21 24 27 30 33 36
          39 42 45 48 51 54
          57 60 63 66 69 72
          75 78 81 84 87 90
          93 96 99 102 105 108
          111 114 117 120 123 126
          129 132
        </DataArray>
        <DataArray type="UInt8" Name="types" format="ascii" RangeMin="5" RangeMax="5">
          5 5 5 5 5 5
          5 5 5 5 5 5
          5 5 5 5 5 5
          5 5 5 5 5 5
          5 5 5 5 5 5
          5 5 5 5 5 5
          5 5 5 5 5 5
          5 5
        </DataArray>
      </Cells>
    </Piece>
  </UnstructuredGrid>
</VTKFile>
