<?xml version="1.0"?>
<VTKFile type="UnstructuredGrid" version="0.1" byte_order="LittleEndian" header_type="UInt32" compressor="vtkZLibDataCompressor">
  <UnstructuredGrid>
    <Piece NumberOfPoints="99" NumberOfCells="80">
      <PointData>
        <DataArray type="Float64" Name="Velocity" NumberOfComponents="3" format="ascii" RangeMin="0" RangeMax="1.008762617859598">
          0 0 0 0.4374999999999999 0 0
          0.75 0 0 0.9375000000000001 0 0
          0 0 0 1 0 0
          0.29063259799779256 0.03621767786250173 0 0.6412110009394357 0.04502592470074317 0
          0.8825791551880168 0.028654798218096463 0 0.9374999999999999 0 0
          0.965376788033358 1.4758024446601126e-16 0 0.75 0 0
          0.8825791551880168 -0.028654798218096456 0 0.4375 0 0
          0.6412110009394353 -0.04502592470074285 0 0 0 0
          0 0 0 0.2906325979977913 -0.0362176778625008 0
          0.5236097451587751 -0.006364353421373458 0 0.8007839035019068 -0.001280447188362747 0
          0.9486539266053301 0.0025350924758353916 0 0 0 0
          0.9948427642070323 1.18908856827811e-15 0 0.9486539266053304 -0.0025350924758328615 0
          0.8007839035019065 0.0012804471883653894 0 0.5236097451587749 0.006364353421375852 0
          0 0 0 0 0 0
          0.5115620845899103 -0.0012027868943180584 0 0.8174463378954123 -0.0038722046788914515 0
          0.966046891555307 -0.0034571629957403133 0 1.008762617859598 -7.821434472310429e-16 0
          0.9660468915553078 0.0034571629957394485 0 0.8174463378954134 0.003872204678891914 0
          0.5115620845899106 0.0012027868943185202 0 0 0 0
          0 0 0 0.49604270985823107 0.00027654932501776196 0
          0.7997391714850939 0.00047985620142545213 0 0.9579175280154815 0.00029054764893252663 0
          1.005580479168587 4.2934406030425976e-16 0 0.9579175280154819 -0.000290547648931193 0
          0.7997391714850937 -0.0004798562014231562 0 0.496042709858231 -0.0002765493250156029 0
          0 0 0 0 0 0
          0.49958310354146723 0.0000827708107027395 0 0.8021034587843852 0.00019374149487835053 0
          0.9570339072924037 0.0001897616937229621 0 1.0034498243180192 -1.1929476503858005e-15 0
          0.9570339072924031 -0.00018976169372584217 0 0.8021034587843849 -0.00019374149488072214 0
          0.49958310354146757 -0.00008277081070412007 0 0 0 0
          0 0 0 0.4989859290922765 -0.0000314495936377674 0
          0.8020086648951681 -0.00007264332726188299 0 0.9573072528727459 -0.00006269593017106537 0
          1.0037979095526612 5.440526501532261e-16 0 0.9573072528727455 0.000062695930172804 0
          0.8020086648951684 0.00007264332726389317 0 0.49898592909227646 0.000031449593639101 0
          0 0 0 0 0 0
          0.49911351833865164 -1.808120135332113e-7 0 0.8020786283815079 0.000005805950723620818 0
          0.9574223492598456 0.0000042078338246744666 0 1.0039338699700535 2.812439450063118e-15 0
          0.9574223492598458 -0.0000042078338195093105 0 0.8020786283815079 -0.0000058059507199571765 0
          0.4991135183386519 1.8081201549042455e-7 0 0 0 0
          0 0 0 0.49909251380015707 9.82963601459325e-7 0
          0.8020524048966835 0.0000013316490972412661 0 0.9573789856225933 0.0000019992452322935977 0
          1.0039042393739388 1.0538445116559103e-16 0 0.9573789856225938 -0.000001999245232247194 0
          0.8020524048966842 -0.000001331649097248625 0 0.49909251380015746 -9.82963601672479e-7 0
          0 0 0 0 0 0
          0.49908500019189844 0.000006231240317204276 0 0.8020640806310217 0.000004954908350797462 0
          0.9574076999179947 0.000002995426482263548 0 1.003921148025381 -2.1349260137691973e-16 0
          0.9574076999179952 -0.0000029954264826211312 0 0.802064080631022 -0.000004954908351054686 0
          0.4990850001918983 -0.000006231240317324622 0 0 0 0
          0 0 0 0.49887312015370244 0 0
          0.8020309731521618 0 0 0.9574038399537085 0 0
          1.0039560453315366 0 0 0.9574038399537085 0 0
          0.8020309731521614 0 0 0.4988731201537023 0 0
          0 0 0
          <InformationKey name="L2_NORM_RANGE" location="vtkDataArray" length="2">
            <Value index="0">
              0
            </Value>
            <Value index="1">
              1.0087626179
            </Value>
          </InformationKey>
        </DataArray>
        <DataArray type="Float64" Name="Pressure" format="ascii" RangeMin="0" RangeMax="45.644655079166114">
          45.29661188333333 45.46396563472412 45.609428950149535 45.644655079166114 41.69639791584595 45.643051273590885
          41.63890922897348 41.544449617489995 41.48108524213141 45.64465507916611 41.4600336416553 45.60942895014954
          41.48108524213144 45.46396563472411 41.544449617489995 45.296611883333284 35.260615779731175 41.63890922897349
          35.2198856508813 35.20525058870035 35.21662404769814 41.696397915846 35.224138427263604 35.21662404769813
          35.20525058870036 35.219885650881345 35.26061577973124 30.566216355313028 30.569093791477947 30.5523286244733
          30.532510341341073 30.52462373791303 30.53251034134108 30.55232862447332 30.569093791477975 30.56621635531307
          26.223582363451495 26.223001717266406 26.226058127321938 26.228007864255446 26.22837556781583 26.22800786425545
          26.22605812732195 26.223001717266452 26.223582363451566 21.856927137183625 21.857249139634988 21.857434820179755
          21.85829836305831 21.858813058239974 21.858298363058335 21.85743482017977 21.857249139635016 21.856927137183646
          17.48668891538914 17.486630237459813 17.486511005728172 17.48617842916042 17.486008053024843 17.486178429160407
          17.486511005728165 17.486630237459796 17.486688915389127 13.114503577611334 13.114501307004423 13.11451155905309
          13.114568562204356 13.114594131426196 13.114568562204354 13.114511559053081 13.11450130700442 13.114503577611332
          8.743085834592858 8.743085374077083 8.743081057445494 8.743071389300072 8.743069276366858 8.743071389300065
          8.743081057445476 8.743085374077056 8.743085834592831 4.371540765655474 4.371539637896615 4.37153850543067
          4.371537702570527 4.371536534460316 4.371537702570523 4.371538505430664 4.371539637896608 4.371540765655463
          0 0 0 0 0 0
          0 0 0
        </DataArray>
        <DataArray type="Float64" Name="stream" format="ascii" RangeMin="-0.6583205248897823" RangeMax="0.032042970234617774">
          -0.009116816045381696 -0.027343749999999993 -0.09928992665300206 -0.2031814909714326 -0.010971811918166178 -0.32446062713728574
          -0.03727138617699326 -0.11037674872328253 -0.20951953918350938 -0.4462669899289652 -0.3257438822981434 -0.5512160282892341
          -0.44316352743688986 -0.6224662023830134 -0.5462658302651491 -0.6498099523830134 0.001731442109314904 -0.617567596134841
          -0.03471400611749244 -0.11357882905846234 -0.21546558643082878 -0.6427710429463582 -0.3264779398236338 -0.4363709632097434
          -0.5347959698550142 -0.6119544854785958 -0.6437255687486888 0.008976176507078642 -0.02526829521238423 -0.10782492398360133
          -0.21435559173194862 -0.3295331418103386 -0.44224131502789854 -0.5429976527615057 -0.6185804271688786 -0.6471393131022185
          0.014413619939942059 -0.01873383216748086 -0.1007461789897365 -0.20992201185989195 -0.3294571737519028 -0.4465054201502087
          -0.5488135106248616 -0.6234329865928746 -0.6507874845306163 0.0210811874858123 -0.012300444487664632 -0.09454378741913731
          -0.20434388052887115 -0.32604556913587385 -0.44572170983616377 -0.5508821602832312 -0.6265611286062711 -0.6542862785541146
          0.026554852590081432 -0.0065561151639499235 -0.08875216980843949 -0.19875368392261802 -0.3210860544652414 -0.44284937965372445
          -0.5504123609627085 -0.6282357361503729 -0.6568543176363775 0.03059289731854161 -0.0020879467434641386 -0.08412242433164799
          -0.19417042121909522 -0.3166975456919442 -0.43905978755361796 -0.5483591483249863 -0.6279584044875827 -0.6579283044029817
          0.032042970234617774 0.00011579755911464602 -0.08162913906614913 -0.19167472140447625 -0.31424946991899444 -0.4367716079094534
          -0.5465524972650563 -0.6273887911447599 -0.6582340998177852 0.03182310148108449 0.0005049153069685104 -0.08096066709651875
          -0.19098075771324405 -0.3135684656355132 -0.4361360778478315 -0.5460510477598064 -0.62723199154829 -0.6583205248897823
          0.031750964091552786 0.0005373757894177962 -0.0808485087866383 -0.19084064706932583 -0.31342662301731405 -0.43600255111032676
          -0.5459421290406391 -0.6271856943091932 -0.6583205248897823
        </DataArray>
        <DataArray type="Float64" Name="Sigma" NumberOfComponents="6" format="ascii" RangeMin="0" RangeMax="16.1245154965971">
          16 0 0 -2 0 0
          9 0 0 -1.5 0 0
          4 0 0 -1 0 0
          1 0 0 -0.5 0 0
          -0.25992395373410226 0 0 -0.1742649574918706 0 0
          0 0 0 0 0 0
          -0.15497006766257287 -0.011077281949260956 0 -0.16572715072751062 0 0
          -0.031555688611701285 -0.007950190583272242 0 -0.16478332729405984 0 0
          -0.03314183000294191 0.01124662988974889 0 -0.12264740498572067 0 0
          1 0 0 0.5 0 0
          0.01714505501366158 0.026759882866404953 0 -9.815318776518407e-17 0 0
          4 0 0 1 0 0
          -0.033141830002942095 0.011246629889748552 0 0.12264740498572099 0 0
          9 0 0 1.5 0 0
          -0.03155568861170154 -0.007950190583272692 0 0.1647833272940604 0 0
          16 0 0 2 0 0
          0.14790347328321155 0 0 -0.22359408773161876 0 0
          -0.15497006766257457 -0.011077281949260906 0 0.1657271507275107 0 0
          0.08178642341869992 0.0011453942558344616 0 -0.19785369681337223 0 0
          -0.015303814862874923 0.00042960771103059343 0 -0.06433003317097398 0 0
          -0.0020139027785508303 0.0038632290154996026 0 -0.020811985691012735 0 0
          -0.2599239537340994 0 0 0.1742649574918703 0 0
          0.0018329440775171682 0.005438324215110928 0 4.957216509518449e-16 0 0
          -0.002013902778550622 0.003863229015499443 0 0.020811985691012832 0 0
          -0.015303814862874535 0.00042960771103044165 0 0.06433003317097381 0 0
          0.08178642341870009 0.0011453942558349367 0 0.19785369681337225 0 0
          0.1479034732832096 0 0 0.22359408773161843 0 0
          0.09049354744674055 0 0 -0.24740703664956018 0 0
          0.04560705160659404 0.0009762090450026343 0 -0.20010747283342892 0 0
          0.02811363449373437 -0.00077714666881553 0 -0.08011033718994495 0 0
          0.019435029955044526 -0.0030507796200831975 0 -0.039117942937221165 0 0
          0.0029461430776258667 -0.003234535923731105 0 -5.583888169625455e-16 0 0
          0.019435029955044772 -0.003050779620084311 0 0.039117942937220325 0 0
          0.028113634493734465 -0.0007771466688159191 0 0.08011033718994506 0 0
          0.04560705160659454 0.0009762090450028362 0 0.20010747283342928 0 0
          0.09049354744674132 0 0 0.24740703664956076 0 0
          0.08470635439380583 0 0 -0.2568023494581765 0 0
          0.03140604047062638 -0.00012888090983500237 0 -0.18721292480149074 0 0
          -0.010124719699884502 0.0006683088453660593 0 -0.0787977711127652 0 0
          -0.00854005057278632 0.000931905589818913 0 -0.03323788925094041 0 0
          -0.0003758358515786822 0.0005084546178387597 0 -8.927829169597289e-17 0 0
          -0.008540050572786713 0.0009319055898174769 0 0.03323788925094 0 0
          -0.010124719699884818 0.0006683088453643549 0 0.07879777111276468 0 0
          0.03140604047062603 -0.00012888090983442855 0 0.18721292480149096 0 0
          0.084706354393805 0 0 0.2568023494581765 0 0
          0.07963826696432173 0 0 -0.26281310375673356 0 0
          0.04475662352224919 -0.00007844904315636201 0 -0.18645657102969643 0 0
          0.013012320122273106 -0.00032197062043364146 0 -0.0797725675274778 0 0
          0.007099138290873135 -0.00031165656799600873 0 -0.03665324459977732 0 0
          -0.001108967651287892 -0.00003384758475156135 0 6.322075931824431e-17 0 0
          0.007099138290873289 -0.00031165656799657333 0 0.03665324459977742 0 0
          0.013012320122273173 -0.0003219706204347095 0 0.07977256752747766 0 0
          0.04475662352224878 -0.00007844904315785657 0 0.1864565710296956 0 0
          0.07963826696432184 0 0 0.2628131037567328 0 0
          0.07844595169597675 0 0 -0.2634390422331929 0 0
          0.03827917436127073 0.000034728604735741663 0 -0.185792460034259 0 0
          0.0016742124067122127 0.0001374972647359778 0 -0.07918568760586683 0 0
          -0.00040684241285040483 0.00015967416330787103 0 -0.034623429745170006 0 0
          0.0004226886931350661 0.000042044514981987155 0 6.898724016288969e-16 0 0
          -0.0004068424128504689 0.00015967416330775851 0 0.03462342974517132 0 0
          0.0016742124067123613 0.00013749726473622027 0 0.07918568760586808 0 0
          0.038279174361270665 0.00003472860473700316 0 0.18579246003425995 0 0
          0.07844595169597425 0 0 0.2634390422331932 0 0
          0.0785025686963853 0 0 -0.2634352079674265 0 0
          0.04125304807513937 -0.000006373673090123297 0 -0.18589609746092559 0 0
          0.006943150889078552 -0.000059234290574054675 0 -0.07961649343771371 0 0
          0.0032858146572400985 -0.00008980004036795648 0 -0.03558686992788254 0 0
          -0.0005150131801092813 -0.00004268812683280812 0 7.706903297362414e-17 0 0
          0.0032858146572402767 -0.00008980004036710898 0 0.03558686992788245 0 0
          0.006943150889078665 -0.00005923429057281704 0 0.0796164934377133 0 0
          0.04125304807513958 -0.000006373673088184296 0 0.1858960974609255 0 0
          0.07850256869638461 0 0 0.2634352079674274 0 0
          0.0784610746407013 0 0 -0.2636115180154948 0 0
          0.039966242510184546 5.460699769944826e-7 0 -0.18583751454151595 0 0
          0.00459205884329828 0.000026615785456055203 0 -0.07938500681777669 0 0
          0.0014732736870017892 0.00004741407528362214 0 -0.03510949682424469 0 0
          -0.00007301231057226263 0.00002685008953261709 0 -5.903617049648011e-16 0 0
          0.0014732736870019321 0.00004741407528408869 0 0.035109496824243684 0 0
          0.004592058843298277 0.000026615785456415968 0 0.07938500681777648 0 0
          0.03996624251018499 5.460699771118683e-7 0 0.18583751454151598 0 0
          0.07846107464070069 0 0 0.2636115180154957 0 0
          0.07913595355275423 0 0 -0.2627806019587301 0 0
          0.04108127403196954 -5.871259181905608e-7 0 -0.18600129511724459 0 0
          0.005942216738596156 -0.000012023717869345685 0 -0.07938567023985485 0 0
          0.002407005797146087 -0.000023905628736076304 0 -0.035251474819719845 0 0
          -0.00034850508192264666 -0.000012941160861215677 0 -1.3333490156131342e-16 0 0
          0.002407005797145889 -0.000023905628736108423 0 0.03525147481971991 0 0
          0.0059422167385961315 -0.000012023717869390365 0 0.07938567023985496 0 0
          0.04108127403196905 -5.87125918140534e-7 0 0.18600129511724492 0 0
          0.0791359535527547 0 0 0.26278060195873026 0 0
          0.07330359996010118 -8.641767690428234e-7 0 -0.26706856358771436 0 0
          0.038012197400944414 3.989799292082465e-7 0 -0.1841853513455534 0 0
          0.006150748198892415 0.00000732236866603818 0 -0.07889673244356858 0 0
          0.0014695190344547943 0.000013919839972012364 0 -0.034618482480017414 0 0
          -0.00030415905303650886 0.00000817293951297966 0 -1.3625464393126926e-17 0 0
          0.0014695190344547707 0.000013919839972011829 0 0.034618482480017365 0 0
          0.0061507481988923186 0.0000073223686660642415 0 0.07889673244356858 0 0
          0.03801219740094456 3.989799291685765e-7 0 0.18418535134555303 0 0
          0.07330359996010095 -8.641767689081188e-7 0 0.26706856358771447 0 0
          <InformationKey name="L2_NORM_RANGE" location="vtkDataArray" length="2">
            <Value index="0">
              0
            </Value>
            <Value index="1">
              16.124515497
            </Value>
          </InformationKey>
        </DataArray>
      </PointData>
      <CellData>
        <DataArray type="UInt8" Name="vtkGhostType" format="ascii" RangeMin="0" RangeMax="0">
          0 0 0 0 0 0
          0 0 0 0 0 0
          0 0 0 0 0 0
          0 0 0 0 0 0
          0 0 0 0 0 0
          0 0 0 0 0 0
          0 0 0 0 0 0
          0 0 0 0 0 0
          0 0 0 0 0 0
          0 0 0 0 0 0
          0 0 0 0 0 0
          0 0 0 0 0 0
          0 0 0 0 0 0
          0 0
        </DataArray>
        <DataArray type="Float64" Name="NN-Viscosity" format="ascii" RangeMin="0.00027789305767645425" RangeMax="0.107735723956409">
          0.004107653647902908 0.107735723956409 0.08830795456078888 0.02590968529783282 0.007769770350539373 0.004806000498770752
          0.004267697166580569 0.0042418541995665245 0.004307649359147533 0.003946973808601762 0.004699127236167902 0.0694859025179908
          0.012384427693467141 0.005989091753918092 0.0035237029945408963 0.0031509987087224058 0.0031186528702369476 0.0031109464678922673
          0.0031247502490272753 0.0030108067865432754 0.0033043013425253266 0.033703341331399884 0.009403511680070066 0.004697912267613276
          0.0039903768701146924 0.0038059168951552662 0.003747195225657331 0.0037036528870834856 0.0037138139525899386 0.003633821711550635
          0.002290837759313505 0.00198964225524684 0.00130240229358475 0.0004953647187445615 0.00038434091732786796 0.00036451770778579543
          0.0002835701562733501 0.00031727630388052856 0.00029688288378586333 0.00027789305767645425 0.002290837759313497 0.001989642255246827
          0.0013024022935847399 0.0004953647187445759 0.0003843409173278667 0.0003645177077857949 0.0002835701562733436 0.0003172763038805303
          0.00029688288378587553 0.00027789305767645923 0.0033043013425253236 0.03370334133139982 0.009403511680070049 0.004697912267613335
          0.003990376870114683 0.003805916895155287 0.0037471952256572932 0.003703652887083461 0.003713813952589976 0.0036338217115506537
          0.004699127236167902 0.06948590251799125 0.012384427693467143 0.005989091753918095 0.0035237029945408924 0.003150998708722403
          0.003118652870236941 0.0031109464678922673 0.0031247502490272814 0.0030108067865432958 0.004107653647902928 0.10773572395640871
          0.0883079545607876 0.025909685297832823 0.0077697703505394365 0.004806000498770753 0.004267697166580502 0.004241854199566526
          0.00430764935914752 0.00394697380860181
        </DataArray>
      </CellData>
      <Points>
        <DataArray type="Float32" Name="Points" NumberOfComponents="3" format="ascii" RangeMin="0" RangeMax="5.024937810560445">
          0 0.5 0 0 0.375 0
          0 0.25 0 0 0.125 0
          0.5 0.5 0 0 0 0
          0.5 0.375 0 0.5 0.25 0
          0.5 0.125 0 0 -0.125 0
          0.5 0 0 0 -0.25 0
          0.5 -0.125 0 0 -0.375 0
          0.5 -0.25 0 0 -0.5 0
          1 0.5 0 0.5 -0.375 0
          1 0.375 0 1 0.25 0
          1 0.125 0 0.5 -0.5 0
          1 0 0 1 -0.125 0
          1 -0.25 0 1 -0.375 0
          1 -0.5 0 1.5 0.5 0
          1.5 0.375 0 1.5 0.25 0
          1.5 0.125 0 1.5 0 0
          1.5 -0.125 0 1.5 -0.25 0
          1.5 -0.375 0 1.5 -0.5 0
          2 0.5 0 2 0.375 0
          2 0.25 0 2 0.125 0
          2 0 0 2 -0.125 0
          2 -0.25 0 2 -0.375 0
          2 -0.5 0 2.5 0.5 0
          2.5 0.375 0 2.5 0.25 0
          2.5 0.125 0 2.5 0 0
          2.5 -0.125 0 2.5 -0.25 0
          2.5 -0.375 0 2.5 -0.5 0
          3 0.5 0 3 0.375 0
          3 0.25 0 3 0.125 0
          3 0 0 3 -0.125 0
          3 -0.25 0 3 -0.375 0
          3 -0.5 0 3.5 0.5 0
          3.5 0.375 0 3.5 0.25 0
          3.5 0.125 0 3.5 0 0
          3.5 -0.125 0 3.5 -0.25 0
          3.5 -0.375 0 3.5 -0.5 0
          4 0.5 0 4 0.375 0
          4 0.25 0 4 0.125 0
          4 0 0 4 -0.125 0
          4 -0.25 0 4 -0.375 0
          4 -0.5 0 4.5 0.5 0
          4.5 0.375 0 4.5 0.25 0
          4.5 0.125 0 4.5 0 0
          4.5 -0.125 0 4.5 -0.25 0
          4.5 -0.375 0 4.5 -0.5 0
          5 0.5 0 5 0.375 0
          5 0.25 0 5 0.125 0
          5 0 0 5 -0.125 0
          5 -0.25 0 5 -0.375 0
          5 -0.5 0
          <InformationKey name="L2_NORM_RANGE" location="vtkDataArray" length="2">
            <Value index="0">
              0
            </Value>
            <Value index="1">
              5.0249378106
            </Value>
          </InformationKey>
        </DataArray>
      </Points>
      <Cells>
        <DataArray type="Int64" Name="connectivity" format="ascii" RangeMin="0" RangeMax="98">
          21 17 13 15 26 25
          17 21 35 34 25 26
          44 43 34 35 53 52
          43 44 62 61 52 53
          71 70 61 62 80 79
          70 71 89 88 79 80
          98 97 88 89 17 14
          11 13 25 24 14 17
          34 33 24 25 43 42
          33 34 52 51 42 43
          61 60 51 52 70 69
          60 61 79 78 69 70
          88 87 78 79 97 96
          87 88 14 12 9 11
          24 23 12 14 33 32
          23 24 42 41 32 33
          51 50 41 42 60 59
          50 51 69 68 59 60
          78 77 68 69 87 86
          77 78 96 95 86 87
          12 10 5 9 23 22
          10 12 32 31 22 23
          41 40 31 32 50 49
          40 41 59 58 49 50
          68 67 58 59 77 76
          67 68 86 85 76 77
          95 94 85 86 10 8
          3 5 22 20 8 10
          31 30 20 22 40 39
          30 31 49 48 39 40
          58 57 48 49 67 66
          57 58 76 75 66 67
          85 84 75 76 94 93
          84 85 8 7 2 3
          20 19 7 8 30 29
          19 20 39 38 29 30
          48 47 38 39 57 56
          47 48 66 65 56 57
          75 74 65 66 84 83
          74 75 93 92 83 84
          7 6 1 2 19 18
          6 7 29 28 18 19
          38 37 28 29 47 46
          37 38 56 55 46 47
          65 64 55 56 74 73
          64 65 83 82 73 74
          92 91 82 83 6 4
          0 1 18 16 4 6
          28 27 16 18 37 36
          27 28 46 45 36 37
          55 54 45 46 64 63
          54 55 73 72 63 64
          82 81 72 73 91 90
          81 82
        </DataArray>
        <DataArray type="Int64" Name="offsets" format="ascii" RangeMin="4" RangeMax="320">
          4 8 12 16 20 24
          28 32 36 40 44 48
          52 56 60 64 68 72
          76 80 84 88 92 96
          100 104 108 112 116 120
          124 128 132 136 140 144
          148 152 156 160 164 168
          172 176 180 184 188 192
          196 200 204 208 212 216
          220 224 228 232 236 240
          244 248 252 256 260 264
          268 272 276 280 284 288
          292 296 300 304 308 312
          316 320
        </DataArray>
        <DataArray type="UInt8" Name="types" format="ascii" RangeMin="9" RangeMax="9">
          9 9 9 9 9 9
          9 9 9 9 9 9
          9 9 9 9 9 9
          9 9 9 9 9 9
          9 9 9 9 9 9
          9 9 9 9 9 9
          9 9 9 9 9 9
          9 9 9 9 9 9
          9 9 9 9 9 9
          9 9 9 9 9 9
          9 9 9 9 9 9
          9 9 9 9 9 9
          9 9 9 9 9 9
          9 9
        </DataArray>
      </Cells>
    </Piece>
  </UnstructuredGrid>
</VTKFile>
