<?xml version="1.0"?>
<VTKFile type="UnstructuredGrid" version="0.1" byte_order="LittleEndian" header_type="UInt32" compressor="vtkZLibDataCompressor">
  <UnstructuredGrid>
    <Piece NumberOfPoints="99" NumberOfCells="80">
      <PointData>
        <DataArray type="Float64" Name="Velocity" NumberOfComponents="3" format="ascii" RangeMin="0" RangeMax="1.1591911988146204">
          0 0 0 0.4375 0 0
          0.75 0 0 0.9375000000000002 0 0
          0 0 0 1 0 0
          0.34349461006348586 0.0074535052636367834 0 0.7413867190973008 0.006154186244507002 0
          1.0116983029101618 0.0023891725502496555 0 0.9375000000000002 0 0
          1.104337146977265 -2.3678636633904515e-16 0 0.75 0 0
          1.0116983029101623 -0.0023891725502502527 0 0.4375 0 0
          0.741386719097301 -0.00615418624450742 0 0 0 0
          0 0 0 0.3434946100634855 -0.0074535052636371096 0
          0.5263844432124039 -0.004829498276159932 0 0.873561634132441 -0.0002366578630409539 0
          1.0876539819145872 0.0027217081532946957 0 0 0 0
          1.1591911988146204 -3.7452408795796144e-16 0 1.0876539819145876 -0.0027217081532951246 0
          0.8735616341324409 0.00023665786304118396 0 0.5263844432124031 0.0048294982761611874 0
          0 0 0 0 0 0
          0.4855565104139082 0.00020766146045291488 0 0.8489234182534645 -0.0021633321639334753 0
          1.059909447066313 -0.002414767434348925 0 1.1265414440397794 4.618701254788249e-16 0
          1.0599094470663137 0.0024147674343502103 0 0.8489234182534648 0.0021633321639352495 0
          0.48555651041390846 -0.00020766146045191186 0 0 0 0
          0 0 0 0.4692309367342987 0.0006194425292783442 0
          0.8264733903214503 0.0010216481339645133 0 1.0434804456683493 0.0006674324778073772 0
          1.1142404040672291 1.0451708942760263e-15 0 1.043480445668349 -0.0006674324778048564 0
          0.8264733903214501 -0.0010216481339620797 0 0.46923093673429833 -0.0006194425292768059 0
          0 0 0 0 0 0
          0.4760995222801759 -0.00009981796603111001 0 0.8339630817456275 0.000006517488167194648 0
          1.0482981980671848 0.00010390522483015997 0 1.117812878920477 5.5294310796760726e-18 0
          1.0482981980671857 -0.00010390522483086118 0 0.8339630817456292 -0.000006517488168061863 0
          0.47609952228017693 0.00009981796603091258 0 0 0 0
          0 0 0 0.47507660746413277 0.000004238453693376918 0
          0.8336186303944985 -0.00005490289912494334 0 1.0484653435729079 -0.00007034894655097608 0
          1.118147523682016 -3.4976362084382373e-16 0 1.048465343572908 0.0000703489465510047 0
          0.833618630394499 0.00005490289912517833 0 0.47507660746413344 -0.000004238453693605412 0
          0 0 0 0 0 0
          0.4752046960486273 -0.000012060745781783022 0 0.8335599001220682 5.228150848866084e-7 0
          1.0484040265424648 0.000009401544805506117 0 1.1181075589623244 1.0431118750145564e-16 0
          1.0484040265424652 -0.000009401544805207485 0 0.8335599001220684 -5.22815084408665e-7 0
          0.47520469604862775 0.00001206074578234878 0 0 0 0
          0 0 0 0.47519031619072444 0.000004710917483515594 0
          0.8335807633104135 0.0000013665680331288212 0 1.0484022804061621 -0.0000027355579344497463 0
          1.1181001517587716 -1.85940672581264e-16 0 1.0484022804061617 0.000002735557933905043 0
          0.8335807633104142 -0.0000013665680336413877 0 0.4751903161907243 -0.000004710917483779706 0
          0 0 0 0 0 0
          0.47510710168535464 0.000008319225788572422 0 0.8335116398781739 0.000007051344909088511 0
          1.0484342551864854 0.000007002457769539165 0 1.1181753920993693 -4.940918259031655e-16 0
          1.0484342551864851 -0.000007002457770337463 0 0.8335116398781737 -0.0000070513449097020335 0
          0.4751071016853541 -0.00000831922578889378 0 0 0 0
          0 0 0 0.4745245167981821 0 0
          0.8334069768492869 0 0 1.0484774050865762 0 0
          1.1183087046193922 0 0 1.0484774050865757 0 0
          0.8334069768492866 0 0 0.4745245167981822 0 0
          0 0 0
          <InformationKey name="L2_NORM_RANGE" location="vtkDataArray" length="2">
            <Value index="0">
              0
            </Value>
            <Value index="1">
              1.1591911988
            </Value>
          </InformationKey>
        </DataArray>
        <DataArray type="Float64" Name="Pressure" format="ascii" RangeMin="0" RangeMax="17.317868886208466">
          17.18371511234285 17.317868886208466 17.31170950308753 17.178423997478042 13.954898413078821 17.105503209405946
          13.825445896346237 13.617102209982173 13.46690723591591 17.178423997478035 13.414685312434093 17.31170950308752
          13.466907235915928 17.31786888620844 13.617102209982152 17.183715112342796 9.825612154404165 13.82544589634621
          9.769171140780605 9.754135770868372 9.77380716020842 13.954898413078839 9.785506199444972 9.773807160208403
          9.754135770868354 9.769171140780612 9.82561215440419 8.642359502349398 8.65993928961733 8.656517347953947
          8.644819775845049 8.640002979155682 8.644819775845042 8.65651734795394 8.659939289617325 8.642359502349395
          7.565115357612339 7.565372754647658 7.573043804140105 7.5788108484772385 7.5804202806340335 7.578810848477234
          7.5730438041401 7.565372754647672 7.565115357612372 6.301388837171835 6.301319323299949 6.30047671555306
          6.300961145932364 6.301478137091329 6.300961145932379 6.3004767155530566 6.301319323299958 6.301388837171834
          5.040415953622329 5.0403458641435 5.040149902407204 5.039551173897972 5.039228204599734 5.039551173897952
          5.040149902407184 5.04034586414347 5.040415953622304 3.7793644756816223 3.779355934281452 3.779392201992055
          3.7795352343911564 3.7796093044699477 3.7795352343911515 3.77939220199204 3.7793559342814405 3.779364475681609
          2.5201213416852783 2.5201219070876077 2.520109998490133 2.5200659454143306 2.520043398504037 2.5200659454143275
          2.5201099984901227 2.520121907087591 2.520121341685261 1.260523802536036 1.2605077276836287 1.2603979520544752
          1.2602955588333502 1.2602550373712467 1.2602955588333506 1.2603979520544768 1.2605077276836316 1.2605238025360368
          0 0 0 0 0 0
          0 0 0
        </DataArray>
        <DataArray type="Float64" Name="stream" format="ascii" RangeMin="-0.6890113280239183" RangeMax="0.04030930133122035">
          -0.003869356593470664 -0.02734375 -0.10080139535341645 -0.20707249772575032 0.004799362492280275 -0.33076908624901685
          -0.024019432055894633 -0.10050903410484786 -0.20632538620085225 -0.45504203055340403 -0.3317301047110389 -0.5626617551297403
          -0.4580083184221552 -0.6368136032135687 -0.566944438076596 -0.6641573532135687 0.018297044058307878 -0.6394654665442364
          -0.016771274533546675 -0.09757968327685548 -0.20852673504433877 -0.6625456164433864 -0.3354325045710148 -0.46070513930715085
          -0.5677765956963275 -0.642723743514374 -0.6690841938292679 0.01890481243336637 -0.012179024844930046 -0.09483643804652817
          -0.21029490719373495 -0.33995719871272095 -0.46735953129456315 -0.576495862379487 -0.6505662481873198 -0.6749988619587284
          0.02269200686122371 -0.008147490338044565 -0.09012168686388608 -0.2069737219846348 -0.3399951391138082 -0.4708798765455209
          -0.5813513864342829 -0.6554906196924464 -0.6799082075985342 0.029447732875771078 -0.0022907052452894637 -0.08486164735512453
          -0.20229214013283683 -0.33697192454240776 -0.46982762185664123 -0.5829987152423582 -0.6587705824547708 -0.684217505097908
          0.034362988175536124 0.002933832287581358 -0.07963989170527547 -0.19729096247087782 -0.332497970110169 -0.4672007605986835
          -0.582591958180774 -0.6606501558369705 -0.6872799744506934 0.03857945736097729 0.007393085179615515 -0.07509065981286857
          -0.19278360899964106 -0.32814689797789226 -0.4633666060537991 -0.5803737331920586 -0.6602790303420976 -0.6885584936250756
          0.04030930133122035 0.00980827519674848 -0.07242700129533958 -0.19012479581653127 -0.32552768811781313 -0.46088585761628253
          -0.5783405227066709 -0.6596125681989176 -0.6889139358590798 0.0400003610389308 0.010190502643403572 -0.07173742756661061
          -0.1894104405077416 -0.32482986116207235 -0.4602322841289541 -0.577807344985017 -0.6594415939772403 -0.6890113280239183
          0.039879484737016836 0.010205062637043441 -0.07163160315933711 -0.1892769904545059 -0.32469789140276156 -0.46011029350729266
          -0.5777067047599274 -0.6593965299474125 -0.6890113280239183
        </DataArray>
        <DataArray type="Float64" Name="Sigma" NumberOfComponents="6" format="ascii" RangeMin="0" RangeMax="16.1245154965971">
          16 0 0 -2 0 0
          9 0 0 -1.5 0 0
          4 0 0 -1 0 0
          1 0 0 -0.5 0 0
          -0.03841267249542368 0 0 -0.2428894815014672 0 0
          0 0 0 0 0 0
          0.10241257517314695 -0.006214845207151881 0 -0.252385792757032 0 0
          0.2716778289085302 -0.008920693466662183 0 -0.2870791876949342 0 0
          0.12256743934915529 0.009690491305627531 0 -0.20820368106452083 0 0
          1 0 0 0.5 0 0
          0.017801313159118516 0.03030179347498987 0 -2.6759870810954157e-16 0 0
          4 0 0 1 0 0
          0.12256743934915537 0.0096904913056272 0 0.2082036810645213 0 0
          9 0 0 1.5 0 0
          0.27167782890852965 -0.008920693466662289 0 0.28707918769493473 0 0
          16 0 0 2 0 0
          0.21715007007829698 0 0 -0.2710512851065167 0 0
          0.1024125751731455 -0.006214845207152189 0 0.25238579275703277 0 0
          0.1366405182466567 -0.0000808592459398561 0 -0.2707043692335607 0 0
          -0.11615723267021051 0.0004693630886365367 0 -0.10753728948713143 0 0
          -0.055142981160317676 0.007367750298853451 0 -0.040550282537279145 0 0
          -0.0384126724954228 0 0 0.24288948150146825 0 0
          0.007440252484613618 0.01258772588066421 0 5.054546225827745e-16 0 0
          -0.0551429811603173 0.007367750298853077 0 0.040550282537279346 0 0
          -0.1161572326702098 0.0004693630886361511 0 0.10753728948713161 0 0
          0.13664051824665518 -0.00008085924593955513 0 0.27070436923356106 0 0
          0.21715007007829362 0 0 0.2710512851065168 0 0
          0.2439461428043599 0 0 -0.30571150640820477 0 0
          0.18662070901805766 0.001189740647523888 0 -0.2903226736443828 0 0
          0.08795088695636291 -0.0009576781572445283 0 -0.13082555760989073 0 0
          0.05099103553179237 -0.004364853485181338 0 -0.06313311652132048 0 0
          -0.001788131404536835 -0.005871188414759244 0 -5.430653341886114e-16 0 0
          0.0509910355317924 -0.004364853485182622 0 0.06313311652131968 0 0
          0.08795088695636324 -0.0009576781572448623 0 0.130825557609891 0 0
          0.1866207090180586 0.0011897406475242438 0 0.29032267364438347 0 0
          0.24394614280435964 0 0 0.30571150640820577 0 0
          0.23248629816775027 0 0 -0.33111931974250597 0 0
          0.10397524702833219 -0.0001110436664378695 0 -0.2598490353841056 0 0
          -0.010440334352026584 0.0008186474606295709 0 -0.12646225592918572 0 0
          -0.014940791229820128 0.0008170947352997412 0 -0.059040144745503634 0 0
          0.0015477648254754014 0.0007048712683102021 0 -2.358346240709348e-16 0 0
          -0.01494079122982041 0.0008170947352979272 0 0.05904014474550328 0 0
          -0.010440334352027304 0.0008186474606280131 0 0.12646225592918497 0 0
          0.1039752470283318 -0.00011104366643689983 0 0.2598490353841065 0 0
          0.2324862981677479 0 0 0.3311193197425061 0 0
          0.23126165006278365 0 0 -0.34176902605919324 0 0
          0.13761933992168768 -0.0001816528521777214 0 -0.2618100296793205 0 0
          0.03827449079435834 -0.0003123235910066123 0 -0.1289922952643515 0 0
          0.016213466809012988 0.00003322465861233657 0 -0.06012707939467796 0 0
          -0.0019948212058339813 0.00013534421370304395 0 3.791537505425404e-17 0 0
          0.016213466809012946 0.00003322465861170672 0 0.060127079394677596 0 0
          0.03827449079435853 -0.00031232359100820536 0 0.12899229526435094 0 0
          0.13761933992168698 -0.0001816528521794281 0 0.26181002967931916 0 0
          0.2312616500627831 0 0 0.34176902605919246 0 0
          0.2281474998778494 0 0 -0.34376309464269117 0 0
          0.12339783108205458 0.00008723866946709192 0 -0.25923932801800514 0 0
          0.018286730723766867 0.00007660238046941553 0 -0.1278132412186814 0 0
          0.0034598761595013893 -0.00008293716527726098 0 -0.059748614671873236 0 0
          0.0007634853355359859 -0.00004989567211316614 0 6.564445956510922e-16 0 0
          0.003459876159501542 -0.00008293716527753707 0 0.05974861467187459 0 0
          0.01828673072376715 0.00007660238046980465 0 0.1278132412186825 0 0
          0.12339783108205418 0.00008723866946827566 0 0.259239328018007 0 0
          0.22814749987784685 0 0 0.3437630946426919 0 0
          0.22887083128943186 0 0 -0.3433759139503337 0 0
          0.128631909390579 -0.000023383995653329907 0 -0.2600379857673308 0 0
          0.02576231905541917 -0.000005063396932633264 0 -0.12854755852366062 0 0
          0.00852562987634975 0.00006180391859793111 0 -0.059266126000537184 0 0
          -0.0006251603289617347 0.000005619634228929929 0 2.0991731080661162e-16 0 0
          0.008525629876349843 0.00006180391859873685 0 0.059266126000537524 0 0
          0.025762319055419314 -0.0000050633969311766585 0 0.12854755852366065 0 0
          0.12863190939057872 -0.000023383995650954156 0 0.2600379857673311 0 0
          0.22887083128943167 0 0 0.343375913950335 0 0
          0.2286098825161488 0 0 -0.34394538327642293 0 0
          0.12678662338545466 0.000007086857713727067 0 -0.2596503061216846 0 0
          0.023387663297758727 -0.000010279933449642488 0 -0.1282489072582695 0 0
          0.00676725995887844 -0.00004875041122612289 0 -0.059674177492610954 0 0
          -0.0001892450415394059 -0.000008318613610873725 0 -5.756216600080969e-16 0 0
          0.006767259958878595 -0.000048750411225439225 0 0.05967417749260965 0 0
          0.02338766329775863 -0.000010279933449214266 0 0.12824890725826932 0 0
          0.1267866233854555 0.000007086857713833558 0 0.2596503061216848 0 0
          0.22860988251614783 0 0 0.3439453832764236 0 0
          0.22989749532959644 0 0 -0.34177631580086754 0 0
          0.12846550481942628 -0.000005019526128744687 0 -0.2601564580449153 0 0
          0.024938703674897204 0.00001074118356175616 0 -0.12800646271667335 0 0
          0.007688834649692236 0.0000341735214765844 0 -0.05894180348933237 0 0
          -0.000662551113648679 0.000014108498706258879 0 -1.678851862724567e-16 0 0
          0.007688834649691999 0.00003417352147648826 0 0.0589418034893323 0 0
          0.02493870367489735 0.000010741183561660375 0 0.12800646271667332 0 0
          0.12846550481942554 -0.000005019526128793756 0 0.2601564580449158 0 0
          0.2298974953295967 0 0 0.34177631580086787 0 0
          0.21818733485524414 -0.0000029094814657119327 0 -0.35235305303347875 0 0
          0.11932177689020947 0.0000035836861682017106 0 -0.2566959768247856 0 0
          0.0259473574364792 -0.00000812185435985456 0 -0.1264922196446001 0 0
          0.006197363018344887 -0.000025450391433847235 0 -0.057428656570264226 0 0
          -0.0011256395243317582 -0.00000911880355294096 0 -5.0243899949655536e-17 0 0
          0.006197363018344736 -0.000025450391433842755 0 0.05742865657026433 0 0
          0.025947357436479086 -0.000008121854359822888 0 0.1264922196446004 0 0
          0.11932177689020942 0.000003583686168186307 0 0.2566959768247847 0 0
          0.21818733485524466 -0.0000029094814656181704 0 0.3523530530334796 0 0
          <InformationKey name="L2_NORM_RANGE" location="vtkDataArray" length="2">
            <Value index="0">
              0
            </Value>
            <Value index="1">
              16.124515497
            </Value>
          </InformationKey>
        </DataArray>
      </PointData>
      <CellData>
        <DataArray type="UInt8" Name="vtkGhostType" format="ascii" RangeMin="0" RangeMax="0">
          0 0 0 0 0 0
          0 0 0 0 0 0
          0 0 0 0 0 0
          0 0 0 0 0 0
          0 0 0 0 0 0
          0 0 0 0 0 0
          0 0 0 0 0 0
          0 0 0 0 0 0
          0 0 0 0 0 0
          0 0 0 0 0 0
          0 0 0 0 0 0
          0 0 0 0 0 0
          0 0 0 0 0 0
          0 0
        </DataArray>
        <DataArray type="Float64" Name="NN-Viscosity" format="ascii" RangeMin="0.0004635290067725613" RangeMax="0.15683828909484498">
          0.005129536164395211 0.15683828909484498 0.08902227519756435 0.02246975372729693 0.0058395931316259555 0.0047649298739922226
          0.0043900303629556435 0.00442700183913978 0.004510467209838536 0.003953592075633982 0.004980300464787608 0.079357653844639
          0.009948345464762955 0.005738116166033146 0.004414537363049207 0.004095126103246179 0.004013427493202171 0.003980180722926765
          0.00400438243806659 0.0037758162173542643 0.0028684964141590464 0.014717620911735368 0.009432774716359922 0.00686507310730561
          0.005980166679945503 0.00502377784713668 0.004906724531927651 0.0047294823074067755 0.00475385829591463 0.004535095650876661
          0.0025769097710251513 0.0016930261159219197 0.001795331349127034 0.0010365523824211313 0.0006788216198988979 0.0006375782531175424
          0.00047714415325630547 0.0005301778366054991 0.0005158923656732558 0.0004635290067725613 0.002576909771025152 0.0016930261159219325
          0.0017953313491270492 0.0010365523824211315 0.0006788216198988975 0.0006375782531175474 0.00047714415325630607 0.0005301778366055022
          0.0005158923656732625 0.0004635290067725641 0.0028684964141590446 0.01471762091173532 0.009432774716359948 0.006865073107305605
          0.005980166679945484 0.0050237778471367055 0.004906724531927628 0.004729482307406778 0.004753858295914667 0.0045350956508767035
          0.004980300464787602 0.07935765384463975 0.009948345464762927 0.005738116166033143 0.004414537363049208 0.004095126103246194
          0.004013427493202161 0.003980180722926781 0.004004382438066605 0.0037758162173542904 0.005129536164395216 0.15683828909484263
          0.08902227519756296 0.022469753727296732 0.005839593131625945 0.004764929873992185 0.0043900303629554995 0.004427001839139755
          0.004510467209838558 0.003953592075634101
        </DataArray>
      </CellData>
      <Points>
        <DataArray type="Float32" Name="Points" NumberOfComponents="3" format="ascii" RangeMin="0" RangeMax="5.024937810560445">
          0 0.5 0 0 0.375 0
          0 0.25 0 0 0.125 0
          0.5 0.5 0 0 0 0
          0.5 0.375 0 0.5 0.25 0
          0.5 0.125 0 0 -0.125 0
          0.5 0 0 0 -0.25 0
          0.5 -0.125 0 0 -0.375 0
          0.5 -0.25 0 0 -0.5 0
          1 0.5 0 0.5 -0.375 0
          1 0.375 0 1 0.25 0
          1 0.125 0 0.5 -0.5 0
          1 0 0 1 -0.125 0
          1 -0.25 0 1 -0.375 0
          1 -0.5 0 1.5 0.5 0
          1.5 0.375 0 1.5 0.25 0
          1.5 0.125 0 1.5 0 0
          1.5 -0.125 0 1.5 -0.25 0
          1.5 -0.375 0 1.5 -0.5 0
          2 0.5 0 2 0.375 0
          2 0.25 0 2 0.125 0
          2 0 0 2 -0.125 0
          2 -0.25 0 2 -0.375 0
          2 -0.5 0 2.5 0.5 0
          2.5 0.375 0 2.5 0.25 0
          2.5 0.125 0 2.5 0 0
          2.5 -0.125 0 2.5 -0.25 0
          2.5 -0.375 0 2.5 -0.5 0
          3 0.5 0 3 0.375 0
          3 0.25 0 3 0.125 0
          3 0 0 3 -0.125 0
          3 -0.25 0 3 -0.375 0
          3 -0.5 0 3.5 0.5 0
          3.5 0.375 0 3.5 0.25 0
          3.5 0.125 0 3.5 0 0
          3.5 -0.125 0 3.5 -0.25 0
          3.5 -0.375 0 3.5 -0.5 0
          4 0.5 0 4 0.375 0
          4 0.25 0 4 0.125 0
          4 0 0 4 -0.125 0
          4 -0.25 0 4 -0.375 0
          4 -0.5 0 4.5 0.5 0
          4.5 0.375 0 4.5 0.25 0
          4.5 0.125 0 4.5 0 0
          4.5 -0.125 0 4.5 -0.25 0
          4.5 -0.375 0 4.5 -0.5 0
          5 0.5 0 5 0.375 0
          5 0.25 0 5 0.125 0
          5 0 0 5 -0.125 0
          5 -0.25 0 5 -0.375 0
          5 -0.5 0
          <InformationKey name="L2_NORM_RANGE" location="vtkDataArray" length="2">
            <Value index="0">
              0
            </Value>
            <Value index="1">
              5.0249378106
            </Value>
          </InformationKey>
        </DataArray>
      </Points>
      <Cells>
        <DataArray type="Int64" Name="connectivity" format="ascii" RangeMin="0" RangeMax="98">
          21 17 13 15 26 25
          17 21 35 34 25 26
          44 43 34 35 53 52
          43 44 62 61 52 53
          71 70 61 62 80 79
          70 71 89 88 79 80
          98 97 88 89 17 14
          11 13 25 24 14 17
          34 33 24 25 43 42
          33 34 52 51 42 43
          61 60 51 52 70 69
          60 61 79 78 69 70
          88 87 78 79 97 96
          87 88 14 12 9 11
          24 23 12 14 33 32
          23 24 42 41 32 33
          51 50 41 42 60 59
          50 51 69 68 59 60
          78 77 68 69 87 86
          77 78 96 95 86 87
          12 10 5 9 23 22
          10 12 32 31 22 23
          41 40 31 32 50 49
          40 41 59 58 49 50
          68 67 58 59 77 76
          67 68 86 85 76 77
          95 94 85 86 10 8
          3 5 22 20 8 10
          31 30 20 22 40 39
          30 31 49 48 39 40
          58 57 48 49 67 66
          57 58 76 75 66 67
          85 84 75 76 94 93
          84 85 8 7 2 3
          20 19 7 8 30 29
          19 20 39 38 29 30
          48 47 38 39 57 56
          47 48 66 65 56 57
          75 74 65 66 84 83
          74 75 93 92 83 84
          7 6 1 2 19 18
          6 7 29 28 18 19
          38 37 28 29 47 46
          37 38 56 55 46 47
          65 64 55 56 74 73
          64 65 83 82 73 74
          92 91 82 83 6 4
          0 1 18 16 4 6
          28 27 16 18 37 36
          27 28 46 45 36 37
          55 54 45 46 64 63
          54 55 73 72 63 64
          82 81 72 73 91 90
          81 82
        </DataArray>
        <DataArray type="Int64" Name="offsets" format="ascii" RangeMin="4" RangeMax="320">
          4 8 12 16 20 24
          28 32 36 40 44 48
          52 56 60 64 68 72
          76 80 84 88 92 96
          100 104 108 112 116 120
          124 128 132 136 140 144
          148 152 156 160 164 168
          172 176 180 184 188 192
          196 200 204 208 212 216
          220 224 228 232 236 240
          244 248 252 256 260 264
          268 272 276 280 284 288
          292 296 300 304 308 312
          316 320
        </DataArray>
        <DataArray type="UInt8" Name="types" format="ascii" RangeMin="9" RangeMax="9">
          9 9 9 9 9 9
          9 9 9 9 9 9
          9 9 9 9 9 9
          9 9 9 9 9 9
          9 9 9 9 9 9
          9 9 9 9 9 9
          9 9 9 9 9 9
          9 9 9 9 9 9
          9 9 9 9 9 9
          9 9 9 9 9 9
          9 9 9 9 9 9
          9 9 9 9 9 9
          9 9 9 9 9 9
          9 9
        </DataArray>
      </Cells>
    </Piece>
  </UnstructuredGrid>
</VTKFile>
