<?xml version="1.0"?>
<VTKFile type="UnstructuredGrid" version="0.1" byte_order="LittleEndian" header_type="UInt32" compressor="vtkZLibDataCompressor">
  <UnstructuredGrid>
    <Piece NumberOfPoints="32" NumberOfCells="44">
      <PointData>
        <DataArray type="Float64" Name="proc" format="ascii" RangeMin="0" RangeMax="1">
          0 0 0 0 0 0
          0 0 0 0 0 0
          0 0 0 0 0 0
          0 0 0 0 0 0
          0 0 0 1 1 1
          1 1
        </DataArray>
        <DataArray type="Float64" Name="Displacement" NumberOfComponents="3" format="ascii" RangeMin="9.835826510341102e-11" RangeMax="1.121007742541979e-9">
          2.8000860176243983e-10 0 0 -9.793775630728177e-11 -9.085384067191145e-12 0
          2.7075366423648677e-10 -4.857996184460232e-10 0 -1.8986258449285473e-10 -5.642036960663592e-10 0
          -4.6383557894068436e-10 -1.1483867708340099e-11 0 4.1603110582277826e-11 -8.062894439634454e-10 0
          -5.62270302704496e-10 -3.8060944352092977e-10 0 2.253604690403815e-10 -9.14645038847087e-10 0
          -7.461679765080984e-11 -8.642165647123349e-10 0 8.307571260963205e-11 -9.917525328634217e-10 0
          -8.160017162138183e-10 -1.727083539832227e-11 0 -2.533650076399871e-10 -6.985150822777779e-10 0
          -2.5879247607583256e-10 -5.002557601199075e-10 0 1.5919480231802325e-10 -1.1096465084674442e-9 0
          -5.516534782812982e-11 -8.113381153800483e-10 0 7.830133253734074e-11 -1.0450100590989614e-9 0
          -4.845753354828499e-10 -1.3616069808185474e-10 0 1.5055578160416808e-10 -7.136211066012126e-10 0
          -3.656854727993173e-10 -2.463252358897218e-10 0 1.4873926537915002e-10 -7.060509375464565e-10 0
          8.248694088254342e-11 -8.649851359912886e-10 0 1.7086955295507566e-10 -1.1067166342317983e-9 0
          1.5324228719641327e-10 -7.085519919750856e-10 0 1.5939670502335513e-10 -7.114376298819508e-10 0
          1.5339204193667294e-10 -6.996506131378581e-10 0 1.614697859706415e-10 -7.04098033936006e-10 0
          1.6372501598187265e-10 -6.936727852013106e-10 0 1.5335869948708213e-10 -6.876171385945626e-10 0
          1.7174045836899631e-10 -8.46247677599455e-10 0 2.2954975828499846e-10 -1.0379408977959292e-9 0
          1.210752692326193e-10 -1.0886453069847262e-9 0 1.6589924398670736e-10 -6.801712754592966e-10 0
          <InformationKey name="L2_NORM_RANGE" location="vtkDataArray" length="2">
            <Value index="0">
              9.8358265103e-11
            </Value>
            <Value index="1">
              1.1210077425e-09
            </Value>
          </InformationKey>
        </DataArray>
        <DataArray type="Float64" Name="TopologicalDerivative1" format="ascii" RangeMin="-0.053570213044029744" RangeMax="0.47438862901643736">
          -0.028251372379992836 -0.0409277593962257 0.03592298138321704 -0.03450394331779587 -0.05052393080225848 0.16145889878046743
          -0.021477093836004227 0.47438862901643736 -0.041320865502814996 0.318593296622301 0.0017386358971929333 -0.011838960030370639
          0.03573168184388389 0.35997851340994386 -0.03277595490859468 0.1729150521012381 -0.013619126982941418 -0.014886876648457427
          0.02909858207241036 0.024862669343670547 -0.03704618700985319 0.15746790204544436 -0.04642197858950881 -0.05162651638576996
          -0.04744534975504219 -0.053469970143310605 -0.053468918745032755 -0.04732924874801564 -0.03861072207094663 0.1048626188433564
          0.1768963993400965 -0.053570213044029744
        </DataArray>
      </PointData>
      <CellData>
        <DataArray type="UInt8" Name="vtkGhostType" format="ascii" RangeMin="0" RangeMax="0">
          0 0 0 0 0 0
          0 0 0 0 0 0
          0 0 0 0 0 0
          0 0 0 0 0 0
          0 0 0 0 0 0
          0 0 0 0 0 0
          0 0 0 0 0 0
          0 0
        </DataArray>
        <DataArray type="Float64" Name="Stress" NumberOfComponents="6" format="ascii" RangeMin="6.530981352861449e-7" RangeMax="7.1231222090217425">
          0.016187884270994303 -0.023751369824484284 0 0.012950307416794834 0 0
          -0.000026243811687109228 0.0000027298281588825833 0 9.423890278485817e-7 0 0
          2.619410182848538e-7 -4.6056125601628076e-7 0 -3.818473604869352e-7 0 0
          -0.0000019598565747390366 -5.426656387442204e-7 0 0.0000023651883418794245 0 0
          0.0007329499767906572 0.0024491567789125786 0 0.000336398392935747 0 0
          -0.0004645105291089731 0.002021772269094871 0 0.000053566881137030495 0 0
          0.0006975865593366699 0.0023239548331386007 0 -0.00015341377439348142 0 0
          -1.4624650628812992 -1.4624650628812983 0 1.4624650628812996 0 0
          -0.000023755251857337678 0.0000037390650336618216 0 0.00000444834213945509 0 0
          -0.0000370301997003655 -0.00001597377531140959 0 0.00001656207538506448 0 0
          0.0004225273260779843 0.0015158846439497545 0 0.0010801303323535285 0 0
          -0.024137932497087282 0.006551322865428083 0 0.008894970481485617 0 0
          -0.001223132236829912 0.0014289840923272222 0 0.0009914854283470374 0 0
          -0.002424936495796976 -0.00015513526018229404 0 0.002145230577532441 0 0
          -4.748064649913525 -2.532264837719781 0 1.6772429056737186 0 0
          -0.6028010874155582 1.8043720777403687 0 -0.06711130192481285 0 0
          -2.403534627871608 -0.10061468551951935 0 1.1026981483272047 0 0
          -6.505838853477169 -1.1091399844518732 0 2.6800633037552997 0 0
          -0.2670776869855951 2.437491842844792 0 -0.1289413674985193 0 0
          -1.8849846950243787 -0.4798925141796796 0 1.1381652243557283 0 0
          -0.16856284155589185 1.7604421955434386 0 -0.18686431026561795 0 0
          -0.9999327666541988 0.13343007473812038 0 0.0635194047454541 0 0
          -0.003955070999628128 -0.0008273581961800739 0 0.0004378784417725781 0 0
          0.10037268038078616 2.415576057160654 0 -0.3922268482683923 0 0
          -0.0016458877656740632 -0.00026003979810572885 0 0.0007693903939075769 0 0
          -0.00005317807381044729 0.000013982435922212128 0 0.000021733440469017227 0 0
          -0.0021143802845657897 0.0008800521105883274 0 0.00009624464001788675 0 0
          -1.0690799954815298 0.19872610174844754 0 0.23365981870728308 0 0
          -0.9245824863835232 1.070300854302429 0 0.3602002124942455 0 0
          -0.6535613165827124 0.3075002326118933 0 0.3016613394162113 0 0
          -1.6502240779060773 0.48066760697165234 0 0.18076647209570318 0 0
          -0.5359513187933539 0.1461905718910294 0 0.304652290867819 0 0
          0.5964435853234125 -0.1291560507040888 0 -0.09205730707046175 0 0
          -0.7510685246768578 0.11734070577799621 0 0.06608586813093138 0 0
          0.4094529021748104 -0.08773923902600056 0 0.22588158360230637 0 0
          -0.1948264626454703 -0.01149785820378868 0 -0.03080363609147769 0 0
          -4.641946747708667 0.06478264505461762 0 1.9032434057742202 0 0
          0.00010747395571768464 -0.00021004052790768088 0 0.0002481233036109986 0 0
          -0.6643942803441133 -0.03455091647280917 0 0.010575712287835472 0 0
          -0.000004310064078024693 -0.000030074822917194854 0 0.00001193114506298314 0 0
          -3.1989204422663704 -0.7431132126858202 0 1.553032010379939 0 0
          0.3719576928075189 0.02003391729213684 0 0.052358522772794354 0 0
          -0.004821892433616023 0.019439823519839583 0 0.012693552258907104 0 0
          -0.000025495851943927408 0.000001982947046963221 0 -0.0000012748956884388642 0 0
          <InformationKey name="L2_NORM_RANGE" location="vtkDataArray" length="2">
            <Value index="0">
              6.5309813529e-07
            </Value>
            <Value index="1">
              7.123122209
            </Value>
          </InformationKey>
        </DataArray>
        <DataArray type="Float64" Name="Strain" NumberOfComponents="6" format="ascii" RangeMin="4.993783248591039e-15" RangeMax="3.894717687831277e-11">
          3.701975010381233e-13 -4.542692033595573e-13 0 5.34666834354846e-13 0 0
          -1.1276150056155837e-13 4.4179048604230625e-14 0 1.0209214468359636e-14 0 0
          1.667122479540575e-15 -2.246431506257237e-15 0 -4.136679738608465e-15 0 0
          -7.487737012982377e-15 1.8871389032287752e-16 0 2.5622873703693768e-14 0 0
          -7.48773701298399e-15 9.288632441147421e-12 0 3.644315923470592e-12 0 0
          -4.4626758743226435e-12 9.004689282614845e-12 0 5.803078789844971e-13 0 0
          1.667122479540575e-15 8.811161938906665e-12 0 -1.6619825559293821e-12 0 0
          -5.944493134176631e-12 -5.944493134176623e-12 0 2.207954592694177e-11 0 0
          -1.0365404736431758e-13 4.5273502461929677e-14 0 4.819037317743013e-14 0 0
          -1.3432527961226094e-13 -2.026964750541641e-14 0 1.7942248333819852e-13 0 0
          -1.3432527961225933e-13 5.7880268588598315e-12 0 1.1701411933829892e-11 0 0
          -5.328719822102554e-13 2.81563500265272e-13 0 4.721117857126492e-13 0 0
          -6.882614435533661e-12 7.483015680734148e-12 0 1.074109214042624e-11 0 0
          -9.909982990592864e-12 2.3847737023199947e-12 0 2.3239997923268113e-11 0 0
          -1.867294901041385e-11 -5.186746122486917e-12 0 2.0416680237785018e-11 0 0
          -6.882614435533663e-12 1.1942399923448718e-11 0 -1.0496720723477886e-12 0 0
          -1.8634075067702967e-11 4.871355139233161e-12 0 2.2510026413119696e-11 0 0
          -2.572123690892337e-11 3.5108819649636573e-12 0 2.9034019124015747e-11 0 0
          -4.304183597714436e-12 1.0854456440642702e-11 0 -1.4453877072897107e-12 0 0
          -1.5445264753225446e-11 7.594178641062364e-13 0 2.6252521333768923e-11 0 0
          -4.462675874322645e-12 1.160041267605046e-11 0 -3.112089294711834e-12 0 0
          -4.33317412114848e-12 1.8058746030599165e-12 0 6.881268847424192e-13 0 0
          -1.5445264753225446e-11 1.496512932118187e-12 0 4.74368311920293e-12 0 0
          -2.7466572437390655e-12 1.0495036416677231e-11 0 -4.486644950720857e-12 0 0
          -6.5328159426764346e-12 9.738605483187083e-13 0 8.335062600665415e-12 0 0
          -2.3905335244629547e-13 1.2473274193894299e-13 0 2.3544560508102e-13 0 0
          -9.909982990592865e-12 6.309859149825266e-12 0 1.0426502668604397e-12 0 0
          -7.164950117319794e-12 3.297458338270901e-12 0 3.8564958290012285e-12 0 0
          -7.645906509407528e-12 8.271997364372905e-12 0 5.748338502668675e-12 0 0
          -3.181912513400488e-12 2.1484135892330445e-12 0 3.3462025673446853e-12 0 0
          -7.645906509407528e-12 4.157532330194692e-12 0 2.002603898428299e-12 0 0
          -2.4158687098360955e-12 1.2790665313709816e-12 0 3.3003998177347053e-12 0 0
          2.646626668894329e-12 -1.2837046929213023e-12 0 -9.972874932633355e-13 0 0
          -3.276128068376069e-12 1.4277552632543896e-12 0 7.159302380850898e-13 0 0
          1.8157278078442106e-12 -8.773962903268485e-13 0 2.447050489024986e-12 0 0
          -8.726027399373811e-13 2.1407351168534556e-13 0 -3.6517574446366056e-13 0 0
          -1.9422423088437717e-11 6.0723611223634054e-12 0 2.0618470229220722e-11 0 0
          2.0360462680233195e-13 -2.8934838449910865e-13 0 7.704412617184434e-13 0 0
          -2.725120855842794e-12 6.865306984601032e-13 0 1.1457021645155095e-13 0 0
          1.9634928321390677e-14 -1.1992418205744768e-13 0 1.2925407151565072e-13 0 0
          -1.8987847693258393e-11 1.381748126416937e-12 0 2.5763125024972206e-11 0 0
          1.5247813234161572e-12 -3.8147246062549503e-13 0 5.672173300386057e-13 0 0
          -1.8558888438389505e-13 3.638389760493971e-13 0 5.749132726052034e-13 0 0
          -1.0871140024173487e-13 4.013209429225602e-14 0 -1.381136995808769e-14 0 0
          <InformationKey name="L2_NORM_RANGE" location="vtkDataArray" length="2">
            <Value index="0">
              4.9937832486e-15
            </Value>
            <Value index="1">
              3.8947176878e-11
            </Value>
          </InformationKey>
        </DataArray>
      </CellData>
      <Points>
        <DataArray type="Float32" Name="Points" NumberOfComponents="3" format="ascii" RangeMin="92.44066980668491" RangeMax="215.40659228538016">
          200 0 0 200 20 0
          175 0 0 170.3333282470703 25.352571487426758 0
          200 40 0 157 13.358983993530273 0
          180 45.35898208618164 0 150 0 0
          150 28.038475036621094 0 142.39999389648438 13.887187004089355 0
          200 60 0 160 45.35898208618164 0
          171.6666717529297 62.23291015625 0 125 0 0
          140 45.35898208618164 0 130 28.038475036621094 0
          200 80 0 150 62.67949295043945 0
          180 80 0 160 80 0
          120 45.35898208618164 0 110.71759033203125 23.771137237548828 0
          130 62.67949295043945 0 140 80 0
          110 62.67949295043945 0 120 80 0
          100 80 0 90 62.67949295043945 0
          100 45.35898208618164 0 89.30555725097656 23.870376586914062 0
          100 0 0 80 80 0
          <InformationKey name="L2_NORM_RANGE" location="vtkDataArray" length="2">
            <Value index="0">
              92.440669807
            </Value>
            <Value index="1">
              215.40659229
            </Value>
          </InformationKey>
        </DataArray>
      </Points>
      <Cells>
        <DataArray type="Int64" Name="connectivity" format="ascii" RangeMin="0" RangeMax="31">
          0 1 2 25 26 24
          24 26 27 25 24 22
          22 24 20 20 24 28
          28 24 27 16 18 10
          25 22 23 23 22 17
          17 22 14 23 17 19
          14 22 20 17 14 11
          19 17 12 14 20 15
          17 11 12 19 12 18
          15 20 21 12 11 6
          21 20 28 15 21 13
          6 11 3 21 28 29
          3 11 8 6 3 1
          8 11 14 3 8 5
          8 14 15 5 8 9
          8 15 9 9 15 13
          9 13 7 9 7 5
          5 7 2 5 2 3
          18 12 10 4 10 6
          21 29 30 1 4 6
          12 6 10 30 13 21
          3 2 1 27 26 31
        </DataArray>
        <DataArray type="Int64" Name="offsets" format="ascii" RangeMin="3" RangeMax="132">
          3 6 9 12 15 18
          21 24 27 30 33 36
          39 42 45 48 51 54
          57 60 63 66 69 72
          75 78 81 84 87 90
          93 96 99 102 105 108
          111 114 117 120 123 126
          129 132
        </DataArray>
        <DataArray type="UInt8" Name="types" format="ascii" RangeMin="5" RangeMax="5">
          5 5 5 5 5 5
          5 5 5 5 5 5
          5 5 5 5 5 5
          5 5 5 5 5 5
          5 5 5 5 5 5
          5 5 5 5 5 5
          5 5 5 5 5 5
          5 5
        </DataArray>
      </Cells>
    </Piece>
  </UnstructuredGrid>
</VTKFile>
