<?xml version="1.0"?>
<VTKFile type="UnstructuredGrid" version="0.1" byte_order="LittleEndian" header_type="UInt32" compressor="vtkZLibDataCompressor">
  <UnstructuredGrid>
    <Piece NumberOfPoints="33" NumberOfCells="46">
      <PointData>
        <DataArray type="Float64" Name="proc" format="ascii" RangeMin="0" RangeMax="1">
          1 1 1 1 1 1
          1 1 1 1 1 1
          1 1 1 1 1 1
          1 1 1 1 1 1
          1 1 1 1 0 0
          0 0 0
        </DataArray>
        <DataArray type="Float64" Name="Displacement" NumberOfComponents="3" format="ascii" RangeMin="0" RangeMax="2.1234248332671396e-8">
          8.988278191725678e-9 -1.13134240677411e-8 0 4.0760062314679646e-9 -1.130829557625244e-8 0
          6.405517319131283e-9 -1.2468610819994339e-8 0 8.964616386499744e-9 -1.4001154486930229e-8 0
          2.7173216174293274e-9 -1.2432696543462723e-8 0 4.100805483219196e-9 -1.346379595601913e-8 0
          5.961840383290574e-9 -1.4536151513099112e-8 0 7.528123493149488e-9 -1.592035261891575e-8 0
          1.237500818284809e-9 -1.3459794260983987e-8 0 3.1383661530884283e-9 -1.4696409252533724e-8 0
          4.125384896286575e-9 -1.5596093848395737e-8 0 8.939288390572972e-9 -1.6663213127197628e-8 0
          5.880434765141418e-9 -1.6781520322246125e-8 0 7.485500339234786e-9 -1.7572828721103066e-8 0
          1.953485865323249e-9 -1.5867277165664667e-8 0 3.742651785983402e-9 -1.7339007153477618e-8 0
          4.101464030046279e-9 -1.7860510014548015e-8 0 8.916883142641856e-9 -1.927128686087225e-8 0
          6.045696975864162e-9 -1.9314541374282175e-8 0 3.47699106278998e-9 -1.7539872165243207e-8 0
          3.834302018551453e-9 -1.7757988727833808e-8 0 4.407280108389596e-9 -1.7926753101372082e-8 0
          3.5202507271246204e-9 -1.7906744958895275e-8 0 0 0 0
          6.707012714782898e-9 -1.1076247256549541e-8 0 5.2800944516443435e-9 -1.548990391714338e-8 0
          3.929156590233412e-9 -1.8110888962350716e-8 0 3.5560840525639952e-9 -1.8146722287789953e-8 0
          2.4522795700626383e-9 -1.0240467154367911e-8 0 8.091774930697016e-10 -1.1269962933044291e-8 0
          4.055408851202795e-9 -9.130301320649404e-9 0 6.411542542880347e-9 -1.0149299837739186e-8 0
          9.011925034270424e-9 -8.588096957999653e-9 0
          <InformationKey name="L2_NORM_RANGE" location="vtkDataArray" length="2">
            <Value index="0">
              0
            </Value>
            <Value index="1">
              2.1234248333e-08
            </Value>
          </InformationKey>
        </DataArray>
        <DataArray type="Float64" Name="TopologicalDerivative1" format="ascii" RangeMin="-0.00105188237896107" RangeMax="0.8709326118359614">
          -0.0005536630616057942 -0.0005118947192129474 -0.0007686083626720966 -0.0006199265188273164 0.00004445658898992932 0.00019382190061030449
          -0.0008461385168992382 -0.0007193202286748272 0.0007671448291796212 0.002946201574601686 0.002964959155268151 -0.00025232437047559547
          -0.0006919299950821756 -0.0006506098290526908 0.0055335009285918425 0.006281319222998504 0.005479859956118943 0.2727963956725093
          0.0696247786870329 0.0038064649151023015 0.0018719829253022418 0.024207266043836075 -0.0004746036222631531 0.8709326118359614
          0.38146664445209866 0.10898319969628502 0.012060700573393725 -0.00105188237896107 -0.0007142573469606961 -0.00047922827554052274
          -0.0007720643589342662 -0.0007986876300964038 -0.0005618495080440364
        </DataArray>
      </PointData>
      <CellData>
        <DataArray type="UInt8" Name="vtkGhostType" format="ascii" RangeMin="0" RangeMax="1">
          1 1 1 0 0 1
          1 1 1 0 0 0
          1 0 0 0 0 0
          0 0 0 0 0 0
          0 0 0 0 0 0
          0 0 0 0 0 0
          0 0 0 0 0 0
          0 0 0 0
        </DataArray>
        <DataArray type="Float64" Name="Stress" NumberOfComponents="6" format="ascii" RangeMin="0.00003769466788362994" RangeMax="134.26603981791368">
          -0.019046292241219575 -0.0002036926281098871 0 0.003909843810453812 0 0
          -0.00036831342976639185 -0.00040381622194787526 0 0.0014536989745533183 0 0
          -0.020576684541232272 -0.00839826575252458 0 0.012324470081340851 0 0
          -0.1800100053055811 -0.2694354212564128 0 0.8803184127906629 0 0
          -0.016797368400412627 -0.00018795363603231127 0 -0.00007621525867510694 0 0
          -0.0002417542917198167 0.00001804757154070872 0 0.000018541669452606117 0 0
          -0.000051135359390377786 0.00000598107434952841 0 0.0000019808502042142034 0 0
          -0.00004748719267869884 0.00001814601752250176 0 0.000001891357289143591 0 0
          0.0002353697651850597 0.000027866922518297634 0 0.000017442499579127883 0 0
          0.000231602801806805 0.000014831572126101615 0 -0.000024568545255092588 0 0
          -18.896525673963154 -58.63283762931502 0 -31.34204753686698 0 0
          0.7347459777592147 -1.2143720687657746 0 -40.37109231826697 0 0
          -3.46193810131787 -0.42918280638466044 0 0.6997420138560196 0 0
          -5.073693353960082 -0.07052975350288793 0 1.439412287677056 0 0
          -9.291393217943309 -2.331908844940094 0 2.888893113879157 0 0
          -6.012497988853477 -3.1998785364808984 0 4.196738410657436 0 0
          -1.0845409512429351 -2.631959981447964 0 4.646666540981813 0 0
          -9.89455555209135 -8.81042652450557 0 8.546636772516605 0 0
          -7.281425842102879 -0.09999415787732421 0 4.271683958479544 0 0
          -3.0027374054146496 -10.570967607860666 0 7.644131905683693 0 0
          -0.0017322510612348585 0.00014397235793735046 0 -0.0007988627042225885 0 0
          -17.187493542439253 3.648562757205064 0 2.244185932046956 0 0
          0.10280117512306905 4.008679886465606 0 0.2634718289571242 0 0
          -0.24239694983616544 -0.002237580770858491 0 -0.009264029249642251 0 0
          -1.1691715558472513 -0.23122921676879543 0 0.2737324999334148 0 0
          -0.058630040258700666 -0.012470893787732041 0 -0.010734928667255787 0 0
          -0.4028070941833503 0.3489364204299107 0 -0.09357161566821236 0 0
          -0.18570960151900512 0.07612825068626407 0 -0.05477263285965844 0 0
          -0.00006817878492293308 0.00006693679416095982 0 -0.000028358127788651346 0 0
          -0.5180328762987603 -0.5623753483463094 0 -0.6469460190155616 0 0
          -0.07287148253482548 0.028551946859254572 0 -0.07781397412847633 0 0
          0.000008335352234714263 0.000010676197472432897 0 -0.00006729263643643794 0 0
          -0.04909549316777256 0.08085255810617348 0 -0.11895170963828089 0 0
          0.00003711100451811173 0.00009610604786613837 0 -0.00001892126453216699 0 0
          0.20761261444314402 -0.02256140379937213 0 -0.07232023273642504 0 0
          0.0002522955249873063 0.000030489213634360452 0 0.00002929191284727014 0 0
          0.15648780792706182 -0.0013188890118977295 0 -0.05793508250538636 0 0
          0.00009205734083358967 0.000009006929387113436 0 -0.0000428192407422526 0 0
          -2.041665849414648 3.364441311604063 0 -21.44293449004124 0 0
          -0.1960622959868834 17.22006827409397 0 -7.338625357258165 0 0
          -15.789280655216011 -36.18860473905282 0 -13.845609327979904 0 0
          0.1873685351718306 0.42261166054110866 0 -2.455343493199246 0 0
          -3.7621300118807275 0.7899242140994663 0 -1.8743895610690604 0 0
          -0.5436867123198217 -0.5436867123187151 0 -0.5436867123199571 0 0
          50.25009675360821 -117.83993805251203 0 -40.20007741806878 0 0
          -0.00003701973065452673 -0.000006822630181420234 0 -0.0000019695802931158687 0 0
          <InformationKey name="L2_NORM_RANGE" location="vtkDataArray" length="2">
            <Value index="0">
              3.7694667884e-05
            </Value>
            <Value index="1">
              134.26603982
            </Value>
          </InformationKey>
        </DataArray>
        <DataArray type="Float64" Name="Strain" NumberOfComponents="6" format="ascii" RangeMin="1.483518782590029e-13" RangeMax="7.896748708756658e-10">
          -1.3252102368334445e-11 3.846244895727178e-12 0 7.095822083155574e-12 0 0
          -1.0298690132584553e-12 -1.2221758042414905e-12 0 1.574840555766095e-11 0 0
          -1.3252102368334468e-11 -1.6331087113361223e-12 0 2.3516671939996678e-11 0 0
          -1.2399625875615928e-12 -2.6933838809809183e-12 0 2.861543359982893e-11 0 0
          -1.2399625875615928e-12 3.593204345884486e-13 0 -1.4677190130656578e-14 0 0
          -1.0298690132584553e-12 3.773910794027237e-13 0 2.0086808573656628e-13 0 0
          -2.2054034039681794e-13 8.884034236100728e-14 0 2.1459210545653865e-14 0 0
          -2.2054582473103894e-13 1.3496739719213086e-13 0 2.048970396572224e-14 0 0
          9.458737017898767e-13 -1.781000293217511e-13 0 1.8896041210721873e-13 0 0
          9.464722090373935e-13 -2.277052850664162e-13 0 -2.661592402635031e-13 0 0
          -5.444476604869369e-12 -2.20682833029692e-10 0 -3.395388483160589e-10 0 0
          4.579406659953946e-12 -5.978316092056411e-12 0 -4.3735350011455885e-10 0 0
          -2.1416166260755375e-11 3.915470958301981e-12 0 1.1689443504754418e-11 0 0
          -2.1052226782955065e-11 6.0482427195214015e-12 0 1.5593633116501437e-11 0 0
          -3.5799252351922004e-11 1.8979546685120774e-12 0 3.12963420670242e-11 0 0
          -2.105222678295504e-11 -5.817204749270229e-12 0 4.546466611545555e-11 0 0
          -1.2289706533689424e-12 -9.610823733646179e-12 0 5.033888752730296e-11 0 0
          -3.0214281644748657e-11 -2.4341916078659016e-11 0 9.258856503559657e-11 0 0
          -3.0214281644748657e-11 8.685139978139746e-12 0 4.627657621686172e-11 0 0
          7.023036539314586e-13 -4.02922766093178e-11 0 8.281142897824002e-11 0 0
          -1.9216738093972193e-13 7.183077825832315e-14 0 -2.2481148163024653e-13 0 0
          -7.617525987333657e-11 3.6686711749736835e-11 0 2.4312014263842014e-11 0 0
          -4.582511628402553e-12 1.657433139136952e-11 0 2.854278147035512e-12 0 0
          -1.2289706533689682e-12 3.583388484725479e-13 0 -1.2245936280167485e-13 0 0
          -4.582511628402553e-12 4.980093749390829e-13 0 2.965435415945327e-12 0 0
          -3.623619434876854e-13 3.37885366862469e-14 0 -1.8426021585303592e-13 0 0
          -2.1629832167320143e-12 2.002260301161086e-12 0 -1.0369189970898904e-12 0 0
          -8.877635857603161e-13 5.61231525945411e-13 0 -6.062169896404341e-13 0 0
          -3.6774926321342096e-13 3.641267901576656e-13 0 -3.07213051043723e-13 0 0
          -1.4667214142636404e-12 -1.7087613877045051e-12 0 -7.062610180699408e-12 0 0
          -3.396954884500037e-13 2.1028755586625954e-13 0 -8.439147963581741e-13 0 0
          2.138538747076831e-14 3.406496584174424e-14 0 -7.290035613947444e-13 0 0
          -3.1154591420717667e-13 4.059634964480877e-13 0 -1.313586009829008e-12 0 0
          3.4496625659459217e-14 3.540531104612702e-13 0 -2.049803657651424e-13 0 0
          8.962099172446521e-13 -3.5469135051008554e-13 0 -7.860615329658574e-13 0 0
          1.0131198370708257e-12 -1.8833101609096433e-13 0 3.1732905584542657e-13 0 0
          6.536955291601423e-13 -2.0110955629850122e-13 0 -6.276438720623647e-13 0 0
          3.7231359173939844e-13 -7.754280359568111e-14 0 -4.638751080410698e-13 0 0
          -1.271249267873278e-11 1.6570587776785238e-11 0 -2.3229845697544674e-10 0 0
          -2.2342011575896143e-11 7.199536234537516e-11 0 -7.950177470363014e-11 0 0
          -2.055291347291737e-11 -1.3104925226036671e-10 0 -1.4999410105311564e-10 0 0
          2.5243765420624163e-13 1.5266712499564982e-12 0 -2.65995545096585e-11 0 0
          -1.666294698379403e-11 7.994013406932019e-12 0 -2.030588691158149e-11 0 0
          -1.7916662719687329e-12 -1.79166627196196e-12 0 -6.654760438736859e-12 0 0
          3.5667532570567425e-10 -5.538123628274771e-10 0 -4.3550083869574516e-10 0 0
          -1.4572059000041941e-13 1.7847037562240773e-14 0 -2.133711984208857e-14 0 0
          <InformationKey name="L2_NORM_RANGE" location="vtkDataArray" length="2">
            <Value index="0">
              1.4835187826e-13
            </Value>
            <Value index="1">
              7.8967487088e-10
            </Value>
          </InformationKey>
        </DataArray>
      </CellData>
      <Points>
        <DataArray type="Float32" Name="Points" NumberOfComponents="3" format="ascii" RangeMin="0" RangeMax="128.28654354956544">
          100 0 0 100 45.35898208618164 0
          89.30555725097656 23.870376586914062 0 75 0 0
          90 62.67949295043945 0 80 45.35898208618164 0
          70 28.038475036621094 0 57 13.358983993530273 0
          80 80 0 70 62.67949295043945 0
          60 45.35898208618164 0 50 0 0
          48.827545166015625 28.876956939697266 0 41.327545166015625 13.757295608520508 0
          60 80 0 50 62.67949295043945 0
          38.48822784423828 45.76527404785156 0 25 0 0
          24.63772964477539 27.38901710510254 0 40 80 0
          30 62.67949295043945 0 17.464101791381836 47.607696533203125 0
          20 80 0 0 0 0
          0 20 0 0 40 0
          0 60 0 0 80 0
          110 62.67949295043945 0 100 80 0
          120 45.35898208618164 0 110.71759033203125 23.771137237548828 0
          125 0 0
          <InformationKey name="L2_NORM_RANGE" location="vtkDataArray" length="2">
            <Value index="0">
              0
            </Value>
            <Value index="1">
              128.28654355
            </Value>
          </InformationKey>
        </DataArray>
      </Points>
      <Cells>
        <DataArray type="Int64" Name="connectivity" format="ascii" RangeMin="0" RangeMax="32">
          28 29 4 30 28 1
          1 28 4 4 5 1
          1 5 2 31 30 1
          31 1 2 31 2 0
          0 32 31 3 0 2
          25 24 18 18 24 17
          4 29 8 4 8 9
          9 8 14 4 9 5
          5 9 10 10 9 15
          15 9 14 10 15 16
          2 5 6 15 14 19
          16 15 20 6 5 10
          15 19 20 6 10 12
          20 19 22 12 10 16
          6 12 7 20 22 26
          12 16 18 7 12 13
          13 12 18 7 13 11
          11 13 17 7 11 3
          17 13 18 7 3 6
          25 18 21 21 18 16
          25 21 26 26 21 20
          20 21 16 27 26 22
          24 23 17 2 6 3
        </DataArray>
        <DataArray type="Int64" Name="offsets" format="ascii" RangeMin="3" RangeMax="138">
          3 6 9 12 15 18
          21 24 27 30 33 36
          39 42 45 48 51 54
          57 60 63 66 69 72
          75 78 81 84 87 90
          93 96 99 102 105 108
          111 114 117 120 123 126
          129 132 135 138
        </DataArray>
        <DataArray type="UInt8" Name="types" format="ascii" RangeMin="5" RangeMax="5">
          5 5 5 5 5 5
          5 5 5 5 5 5
          5 5 5 5 5 5
          5 5 5 5 5 5
          5 5 5 5 5 5
          5 5 5 5 5 5
          5 5 5 5 5 5
          5 5 5 5
        </DataArray>
      </Cells>
    </Piece>
  </UnstructuredGrid>
</VTKFile>
