<?xml version="1.0"?>
<VTKFile type="UnstructuredGrid" version="0.1" byte_order="LittleEndian" header_type="UInt32" compressor="vtkZLibDataCompressor">
  <UnstructuredGrid>
    <Piece NumberOfPoints="65" NumberOfCells="101">
      <PointData>
        <DataArray type="Float64" Name="Velocity" NumberOfComponents="3" format="ascii" RangeMin="0" RangeMax="1.2160893543057203">
          -0.00838511520671682 -0.0017894754434953299 0 -0.0015780501297412617 0.014805805952901607 0
          0.016110107359866625 0.0028578415618577655 0 0.004958003846238438 0.006676150256437813 0
          0.009556875914001594 -0.0016108134767338841 0 0.00015648004786473222 0.013252919586808465 0
          0.014759479484096082 0.00005263973982921259 0 0.00615583671600374 0.0012179989564794053 0
          0.0024438011668440627 0.011162638899880185 0 0.0033934789915024658 -0.0068087753066765015 0
          -0.0014248226709802538 0.021564319888306413 0 -0.010149298301735426 -0.00024849706569681027 0
          -0.0011107824248524126 -0.015896430924559682 0 0.008112749935243024 0.0011227507405946594 0
          0.0045717628028046796 -0.00851853537088995 0 0.01127897027749185 0.013337885427536576 0
          -0.0011631944354450914 -0.0118144839023293 0 -0.006801753028414173 0.024055034669948124 0
          0.01402217382489715 0.0010090960362039098 0 -0.0006557926868915397 -0.02214550970676172 0
          0.013472874266104523 -0.012926159031423523 0 0.028804434308979686 0.03542471410932854 0
          -0.021614722754124738 0.06444188111085401 0 -0.007940257717878476 -0.02260605192456347 0
          0.02933361524546103 -0.031732223724171976 0 0.04134236208787296 0.0007076053415395183 0
          0.0864095354468747 0.03052107671899511 0 -0.01826574822966184 -0.0728784038336145 0
          0.09752798478202832 -0.03647842594207081 0 -0.0037863721482197157 0.10905154861066439 0
          0.07483715143125615 0.010684713046365694 0 0.13473950426507902 0.20955108384387888 0
          -0.018842384744482882 -0.09148554927744722 0 0.15228873935850323 -0.19447542664950895 0
          0.17153397662370418 -0.008436907110923205 0 0.06661379058281408 0.47352144071930397 0
          0.47083760163324895 0.01690146950994844 0 0.12410484039637296 -0.00839330984061875 0
          0.45048932943060116 -0.0012518368113148852 0 0.21984907372071322 -0.08009364722718339 0
          0.05513674068046671 -0.456507460146686 0 0.697008304403968 0.4899738319878758 0
          0.18513750339548316 0.05669091400971986 0 0.9055503505650055 0.3054744462239827 0
          0 0 0 0 0 0
          0.7667166094303219 0.9439380056335135 0 0.6213920171551771 -0.45566354550933 0
          0.9027131632986983 -0.29495095966404083 0 0 0 0
          0.9420618518139304 0.522176250086055 0 0 0 0
          1.0332070653844672 0.5699334687237417 0 0 0 0
          0.910886137715588 -0.613160938743446 0 0.9916191662530807 -0.5779173894520256 0
          0.9000129253788824 0.36101066357765443 0 0.7379580062883814 -0.9606727265031525 0
          0.8126247744893832 0.01742441995254029 0 0.9365324729448486 -0.27451775877231677 0
          1.020526445929506 -0.324659028977213 0 1 0 0
          1 0 0 1 0 0
          1 0 0
          <InformationKey name="L2_NORM_RANGE" location="vtkDataArray" length="2">
            <Value index="0">
              0
            </Value>
            <Value index="1">
              1.2160893543
            </Value>
          </InformationKey>
        </DataArray>
        <DataArray type="Float64" Name="Pressure" format="ascii" RangeMin="-0.21207437170274196" RangeMax="1.0301838008073685">
          -0.00016297485967939096 0.00020869813462761082 0.00018341456583151238 0.000299645657446715 0.00025265983266022557 -0.00003847837445865879
          0.0001790368763813954 0.0014234005791871102 0.001417227659177794 0.0005331649226532871 0.00010602520958663596 -0.00018341566332136054
          0.00025194900678669524 0.004731704719723346 0.002426914560120954 0.005584610536336885 -0.00012805141036577674 -0.00032988789607317384
          0.01321559655500834 0.00023660093289403666 0.005793566901326089 0.017617901479584447 0.0006837041316678661 -0.0008060858976405088
          0.01870225477879176 0.03242700218300559 0.039009850755551335 0.0017327146352718705 0.03903188174286352 -0.006605249965163186
          0.07237659891815389 0.09595092922679474 -0.011844309953088304 0.1054257045429641 0.14004760416727538 0.01085766865827037
          0.19488733690896995 0.10995765924880768 0.1971872049133192 0.06939786985251843 0.009530135982946664 0.22003749971639555
          0.07735196085901715 0.13495949014615038 0.07424016519488058 0.08627560960499589 0.16974537512881893 0.2535721691065835
          0.13407594265240277 0.1301203463556382 0.2326802204175088 0.9984744254159373 0.28807263149547346 1.0301838008073685
          0.27450134418537064 0.3429190586154228 0.636559718851137 0.19836965564934173 0.8239731048344265 0.6895987995792123
          0.2697823696069692 -0.1953566424057195 0.615642198764023 0.6497594380583048 -0.21207437170274196
        </DataArray>
        <DataArray type="Float64" Name="Temperature" format="ascii" RangeMin="299.39039021903704" RangeMax="300">
          299.4382088335202 299.43821722357313 299.4382081470296 299.4381976054233 299.4382065135499 299.43816517880555
          299.43820484484917 299.43821222469217 299.43826794641615 299.4381942395258 299.4383101149637 299.43820721749984
          299.438213085974 299.43812026981436 299.4382636786439 299.4379812139464 299.43817736108986 299.43808740854354
          299.43870404028365 299.43830120062063 299.4380200297587 299.43851655457297 299.43831317757906 299.43801714040234
          299.43835165642764 299.43652203737497 299.4388257312235 299.4390058763675 299.43920861425306 299.4368364203076
          299.44076209696715 299.4347908058931 299.43365167527395 299.4356241672592 299.43808814234467 299.44602085584273
          299.437434288677 299.4506445592712 299.42500249512096 299.5823689178711 299.4562731448421 299.4106629350627
          299.58644341986684 299.4690380651131 299.87635313446395 299.7387645192388 299.41238993429863 299.44459420921066
          299.4878842518053 299.7328440471884 299.5025059715992 299.57798423658346 299.47947212685705 299.5682180538642
          299.44897908088086 299.4861346635695 299.60359233814336 299.39039021903704 299.60966817838573 299.64007819021595
          299.65181871658166 300 300 300 300
        </DataArray>
        <DataArray type="Float64" Name="Density" format="ascii" RangeMin="1.1667436342280304" RangeMax="1.169119322809021">
          1.1689326209635884 1.1689325882109003 1.1689326236434778 1.1689326647953002 1.168932630020178 1.1689327913808096
          1.1689326365343728 1.168932607725293 1.1689323902015258 1.1689326779349318 1.168932225586046 1.1689326272721319
          1.1689326043630621 1.1689329666944683 1.1689324068618454 1.1689335095347175 1.1689327438241763 1.1689330949768226
          1.1689306878022032 1.1689322603854115 1.1689333580071868 1.1689314196980303 1.1689322136303621 1.1689333692865331
          1.1689320634185894 1.1689392058351522 1.1689302127526713 1.168929509513957 1.1689287180802024 1.1689379785494916
          1.1689226537403148 1.1689459642493902 1.168950411251698 1.168942710947755 1.1689330921122423 1.168902125558432
          1.1689356446026862 1.1688840769856081 1.1689841775124061 1.1683701264955484 1.1688621066191813 1.1690401632233234
          1.168354236169011 1.1688122836668815 1.1672247131518887 1.1677605024822968 1.1690334202442867 1.1689076945695709
          1.1687387325963225 1.1677835686679146 1.1686816747423163 1.1683872269865734 1.168771561478318 1.1684253174195964
          1.1688905780970062 1.168745560329899 1.168287361098663 1.169119322809021 1.1682636691817554 1.1681451038943105
          1.168099335313796 1.1667436342280304 1.1667436342280304 1.1667436342280304 1.1667436342280304
        </DataArray>
        <DataArray type="Float64" Name="stream" format="ascii" RangeMin="-1.1405275927626364" RangeMax="1.2970012633259569">
          -0.002265058246842491 0.007493408483314804 -0.00024190827427217538 0.011490992905375098 0.0031243906273468636 0.01693342647655566
          -0.00930967132642912 0.015258644244864623 0.02182507323611567 0.00797390862151683 0.03131119513165571 -0.016818263496894137
          0.0008261340622780708 0.024408696106390033 0.01660535970107779 0.03909372045669109 0.018421833223910323 0.04969005719000386
          0.03599411928648514 0.02470080247333395 0.0224003644059322 0.05764982054894228 0.08639781060079704 0.022378175685346464
          0.016124639804933182 0.04184064130896684 0.08625125148056871 0.0022067952810993865 0.004100816414617361 0.14428261933990183
          0.0642202058939313 0.16750545979825002 -0.03710971283192969 -0.03693647008297537 0.05352218040644924 0.3713221166773586
          0.1889069929586973 0.068306818650814 -0.05612636889488486 0.11246069732442417 -0.23282518969716634 0.46179585327306283
          0.059085387208583605 0.2443130012385005 0.09136048352174415 0.12651654452070926 0.9245534600022912 -0.29150222475009074
          -0.08176874342914596 0.06610805015604379 0.2666081568714483 0.1270083882695866 0.6266342485138262 0.02181246346156476
          -0.37787485085188266 -0.13985969527687214 0.33519620552775276 -0.7631817479347641 0.09006615737672992 -0.13721736908817184
          -0.621343658694956 1.2970012633259569 0.48151391361248963 -0.3058445194139283 -1.1405275927626364
        </DataArray>
      </PointData>
      <CellData>
        <DataArray type="UInt8" Name="vtkGhostType" format="ascii" RangeMin="0" RangeMax="0">
          0 0 0 0 0 0
          0 0 0 0 0 0
          0 0 0 0 0 0
          0 0 0 0 0 0
          0 0 0 0 0 0
          0 0 0 0 0 0
          0 0 0 0 0 0
          0 0 0 0 0 0
          0 0 0 0 0 0
          0 0 0 0 0 0
          0 0 0 0 0 0
          0 0 0 0 0 0
          0 0 0 0 0 0
          0 0 0 0 0 0
          0 0 0 0 0 0
          0 0 0 0 0 0
          0 0 0 0 0
        </DataArray>
      </CellData>
      <Points>
        <DataArray type="Float32" Name="Points" NumberOfComponents="3" format="ascii" RangeMin="0.3386548938008204" RangeMax="7.102112369882704">
          7 1.2000000476837158 0 6.222221851348877 1.2000000476837158 0
          7 0.4000000059604645 0 5.866583824157715 0.5834335088729858 0
          6.113818168640137 -0.06796818971633911 0 5.444444179534912 1.2000000476837158 0
          7 -0.4000000059604645 0 5.374982833862305 0.05133577063679695 0
          5.044035911560059 0.717233419418335 0 5.636797904968262 -0.6446514129638672 0
          4.6666669845581055 1.2000000476837158 0 7 -1.2000000476837158 0
          6.222221851348877 -1.2000000476837158 0 4.6517181396484375 0.08554346114397049 0
          4.9071431159973145 -0.5013023018836975 0 4.20501708984375 0.6844208240509033 0
          5.444444179534912 -1.2000000476837158 0 3.8888890743255615 1.2000000476837158 0
          3.908618927001953 0.008085579611361027 0 4.6666669845581055 -1.2000000476837158 0
          4.190336227416992 -0.680732011795044 0 3.4767589569091797 0.5622708797454834 0
          3.1111109256744385 1.2000000476837158 0 3.8888890743255615 -1.2000000476837158 0
          3.455962896347046 -0.5601919889450073 0 3.1824440956115723 0.030600570142269135 0
          2.74373197555542 0.6176614165306091 0 3.1111109256744385 -1.2000000476837158 0
          2.7368290424346924 -0.6656588912010193 0 2.3333330154418945 1.2000000476837158 0
          2.4499940872192383 0.0055718207731842995 0 2.03562593460083 0.6959654092788696 0
          2.3333330154418945 -1.2000000476837158 0 2.0443150997161865 -0.5891656875610352 0
          1.7839189767837524 -0.0063413470052182674 0 1.555556058883667 1.2000000476837158 0
          1.4043580293655396 0.4893423020839691 0 1.3220579624176025 -0.01946846954524517 0
          1.4062609672546387 -0.46856579184532166 0 1.1284430027008057 0.23862800002098083 0
          1.555556058883667 -1.2000000476837158 0 1.053400993347168 0.8138331770896912 0
          1.1284430027008057 -0.23862800002098083 0 0.9798405170440674 0.4904909133911133 0
          1 0 0 0.861803412437439 0.19021129608154297 0
          0.7777777910232544 1.2000000476837158 0 1.0878779888153076 -0.8199741244316101 0
          0.9428092837333679 -0.5025230050086975 0 0.861803412437439 -0.19021129608154297 0
          0.6745458245277405 0.38610830903053284 0 0.638196587562561 0.1175571009516716 0
          0.5494737029075623 0.6893327832221985 0 0.638196587562561 -0.1175571009516716 0
          0.756988525390625 -0.7287815809249878 0 0.6448535919189453 -0.4298931956291199 0
          0.3890891969203949 0.32260850071907043 0 0.7777777910232544 -1.2000000476837158 0
          0.33861419558525085 0.005250108893960714 0 0.366202712059021 -0.29110780358314514 0
          0.30312108993530273 -0.749178409576416 0 0 1.2000000476837158 0
          0 0.4000000059604645 0 0 -0.4000000059604645 0
          0 -1.2000000476837158 0
          <InformationKey name="L2_NORM_RANGE" location="vtkDataArray" length="2">
            <Value index="0">
              0.3386548938
            </Value>
            <Value index="1">
              7.1021123699
            </Value>
          </InformationKey>
        </DataArray>
      </Points>
      <Cells>
        <DataArray type="Int64" Name="connectivity" format="ascii" RangeMin="0" RangeMax="64">
          44 49 42 53 51 58
          45 44 39 49 53 55
          51 45 50 42 49 48
          39 44 37 50 45 43
          58 51 56 55 53 59
          44 42 37 45 39 43
          51 50 56 53 58 59
          49 55 48 37 42 38
          56 50 52 48 55 54
          43 39 36 59 58 63
          42 48 38 50 43 52
          55 60 54 39 37 36
          58 56 62 37 38 34
          56 52 62 48 54 47
          43 36 41 59 63 60
          34 38 33 47 54 57
          47 57 40 57 60 64
          41 36 35 37 34 36
          48 47 38 43 41 52
          60 63 64 59 60 55
          54 60 57 41 35 46
          41 46 52 47 40 38
          62 52 61 33 38 40
          34 33 30 63 58 62
          52 46 61 35 36 31
          30 33 28 34 30 31
          36 34 31 35 31 29
          29 31 26 26 31 30
          26 30 25 29 26 22
          22 26 21 28 33 32
          28 32 27 28 27 24
          24 27 23 28 24 25
          25 24 18 18 24 20
          25 18 21 25 21 26
          21 18 15 30 28 25
          22 21 17 20 24 23
          20 23 19 20 19 14
          15 18 13 21 15 17
          17 15 10 10 15 8
          14 19 16 20 14 13
          13 14 7 7 14 9
          13 7 8 9 14 16
          9 16 12 7 9 4
          8 7 3 13 8 15
          10 8 5 5 8 3
          5 3 1 1 3 2
          18 20 13 4 9 12
          7 4 3 32 33 40
          12 11 6 0 1 2
          6 2 4 3 4 2
          6 4 12
        </DataArray>
        <DataArray type="Int64" Name="offsets" format="ascii" RangeMin="3" RangeMax="303">
          3 6 9 12 15 18
          21 24 27 30 33 36
          39 42 45 48 51 54
          57 60 63 66 69 72
          75 78 81 84 87 90
          93 96 99 102 105 108
          111 114 117 120 123 126
          129 132 135 138 141 144
          147 150 153 156 159 162
          165 168 171 174 177 180
          183 186 189 192 195 198
          201 204 207 210 213 216
          219 222 225 228 231 234
          237 240 243 246 249 252
          255 258 261 264 267 270
          273 276 279 282 285 288
          291 294 297 300 303
        </DataArray>
        <DataArray type="UInt8" Name="types" format="ascii" RangeMin="5" RangeMax="5">
          5 5 5 5 5 5
          5 5 5 5 5 5
          5 5 5 5 5 5
          5 5 5 5 5 5
          5 5 5 5 5 5
          5 5 5 5 5 5
          5 5 5 5 5 5
          5 5 5 5 5 5
          5 5 5 5 5 5
          5 5 5 5 5 5
          5 5 5 5 5 5
          5 5 5 5 5 5
          5 5 5 5 5 5
          5 5 5 5 5 5
          5 5 5 5 5 5
          5 5 5 5 5 5
          5 5 5 5 5
        </DataArray>
      </Cells>
    </Piece>
  </UnstructuredGrid>
</VTKFile>
