<?xml version="1.0"?>
<VTKFile type="UnstructuredGrid" version="0.1" byte_order="LittleEndian" header_type="UInt32" compressor="vtkZLibDataCompressor">
  <UnstructuredGrid>
    <Piece NumberOfPoints="65" NumberOfCells="101">
      <PointData>
        <DataArray type="Float64" Name="Velocity" NumberOfComponents="3" format="ascii" RangeMin="0" RangeMax="1.4661146425828444">
          -0.005436031637486174 -0.005428807884844877 0 -0.0013203186554300735 0.015953731610359977 0
          0.01580629599897097 0.002661655623797425 0 0.005017258891598146 0.0071164272020703525 0
          0.009176097901648715 -0.0017133579965079606 0 0.0002442408016813844 0.013244930116208519 0
          0.014337998636088013 0.00040756634740494167 0 0.005564315735968125 0.0012555341574598511 0
          0.0018373299534333407 0.01039301663759122 0 0.0031257010176984168 -0.007062028879701858 0
          -0.0021215844173504486 0.018449293830116467 0 -0.0070917519981075205 0.0035363438178874244 0
          -0.0007887595755763557 -0.017141863181041606 0 0.006544520585190993 0.0005098922306770361 0
          0.003586969305886716 -0.007926333611108219 0 0.008266917630259088 0.010032744973578636 0
          -0.0009677046558485784 -0.011860325633609147 0 -0.0005959116652084076 0.026359863067701987 0
          0.007807410959550564 0.0017852046337016665 0 -0.0010917901979188756 -0.01886388026382046 0
          0.0091803093055938 -0.01034706543596092 0 0.020681073330977785 0.03721552746742156 0
          -0.029118522391114773 0.034661151927712915 0 -0.0024316457732383636 -0.02553933962109184 0
          0.02178947972843233 -0.032904711029422495 0 0.043501682084902134 -0.002375997737807509 0
          0.05796962087689176 0.0008186353836084597 0 -0.024961587213795853 -0.03894911150433804 0
          0.06497230470634151 -0.009004629493322543 0 0.02041891080203275 0.13856649239021412 0
          0.027827661416719045 0.013587893750288682 0 0.14602479992208003 0.21295436615973032 0
          -0.009138666994263089 -0.13175903880818637 0 0.1691491672286124 -0.19539605813591934 0
          0.15280703940567916 -0.010026742563450753 0 -0.16776633577888467 0.1266805426102317 0
          0.3113546397254915 0.0553505637355145 0 0.23770325855161453 -0.005594755863860111 0
          0.3012611001465077 -0.056753924655843835 0 0.2879419364417129 -0.09341126016236681 0
          -0.16545431789213264 -0.10755816260908704 0 0.3819435856122409 0.47207378798574823 0
          0.27489305442360984 0.0606394358587195 0 0.7005726681708009 0.13804699158121098 0
          0 0 0 0 0 0
          0.6356793448511604 1.2969008770527402 0 0.27026928369845316 -0.42137609855254715 0
          0.7109640005070897 -0.18462823595019795 0 0 0 0
          0.8071066434869022 0.4588340152911599 0 0 0 0
          0.9746416690655146 0.7254365597674631 0 0 0 0
          0.6767400260410743 -0.6340307517933568 0 0.8562969874534898 -0.4942991943472437 0
          0.8133113552961437 0.4172166994307607 0 0.6680096891832041 -1.305088196388727 0
          0.7834873897592152 0.041811744228472975 0 0.8322745106495311 -0.30867343529483593 0
          0.9894577067574059 -0.49711299336602927 0 1 0 0
          1 0 0 1 0 0
          1 0 0
          <InformationKey name="L2_NORM_RANGE" location="vtkDataArray" length="2">
            <Value index="0">
              0
            </Value>
            <Value index="1">
              1.4661146426
            </Value>
          </InformationKey>
        </DataArray>
        <DataArray type="Float64" Name="Pressure" format="ascii" RangeMin="-0.14796950962695765" RangeMax="1.2156219847361702">
          -0.0001520071173782065 0.0001628194521194762 0.00017998354084641777 0.0006740056020128461 0.0006608745763068543 0.00021744347560354762
          0.0001737152769260438 0.002053481796526157 0.0017630958403960439 0.0009649355828094362 -0.000852381996851043 -0.00017020443209934437
          0.00019570142716828672 0.005841874350011155 0.0030473065766014823 0.007023021946498002 0.00016744079547070185 0.003182414633631053
          0.015274178378671682 -0.0008448485332257802 0.007402430354090922 0.018823841285645748 -0.011487366720438675 0.003213166340922941
          0.020093278852249704 0.03821027716529478 0.04918382171812746 -0.012102437616317878 0.051987676151308254 0.03755298643529707
          0.09162187109963371 0.09522191704015745 0.04043538459549573 0.1103995212427451 0.1938422554137423 -0.1286656985864968
          0.2833303618254681 0.24027313456177765 0.28151460381684323 0.2531050155714489 -0.14796950962695765 0.45871676076496404
          0.24616863122190977 0.41491242164172937 0.24400727462186558 0.329318151438882 0.4110478331655545 0.4423806886639997
          0.4131351788198815 0.3622249180548982 0.5020330457559392 1.184221414823882 0.5876037273613101 1.2156219847361702
          0.5728068635210395 0.6180917687793823 0.9049387569670246 0.480071014209426 1.0953062825612065 0.9322159231909524
          0.5621251407220578 -0.0804051568954801 0.9059019810128748 0.9582961576971785 -0.07627774628787885
        </DataArray>
        <DataArray type="Float64" Name="Temperature" format="ascii" RangeMin="299.69997443537693" RangeMax="300">
          299.77145706880543 299.77145584047287 299.7714579968004 299.7714559569161 299.7714564312252 299.7714661709303
          299.7714574017182 299.7714662222145 299.7714592834135 299.771456264704 299.77140976925955 299.77145724373145
          299.77145720618296 299.77138605574555 299.77145663344123 299.7715196443141 299.77146180982265 299.7715625249994
          299.77166036049533 299.7714219280188 299.7715172710713 299.7709556241307 299.77191172030746 299.7715218531647
          299.77101130684974 299.77139975326986 299.77288864978414 299.7720698935106 299.77270615627276 299.7678561960077
          299.7699569004964 299.7702402801591 299.7673802201573 299.77089963987976 299.77609748864813 299.78458326015146
          299.7633881783724 299.7723994672392 299.7618448202853 299.80590972882493 299.7851204702415 299.77350693071577
          299.8090047225199 299.7923484952463 299.9480574211424 299.92305259716517 299.74067505916463 299.77871176593504
          299.7811907201898 299.9327260684948 299.801263931811 299.8668625333638 299.69997443537693 299.8637540936712
          299.7705576105198 299.7815318405253 299.77240903689125 299.7322241151034 299.73008516829066 299.79287901486066
          299.7604567378929 300 300 300 299.99999999999994
        </DataArray>
        <DataArray type="Float64" Name="Density" format="ascii" RangeMin="1.172734126353775" RangeMax="1.1739081345233615">
          1.1736282077895779 1.173628212598594 1.1736282041564066 1.1736282121427097 1.1736282102857531 1.1736281721540631
          1.173628206486199 1.1736281719532815 1.1736281991192177 1.1736282109376965 1.1736283929709508 1.173628207104729
          1.1736282072517343 1.1736284858112105 1.173628209494062 1.1736279628017212 1.1736281892281326 1.1736277949206488
          1.1736274118875856 1.1736283453684644 1.1736279720931446 1.1736301709871588 1.1736264277968347 1.1736279541539056
          1.1736299529843612 1.173628432184331 1.1736226030671966 1.1736258085388382 1.1736233175368778 1.1736423056516425
          1.173634081092767 1.1736329716296339 1.1736441691812705 1.173630390170562 1.1736100404718064 1.1735768199955259
          1.173659798963788 1.1736245182391496 1.17366584168528 1.1734933384880726 1.1735747169648345 1.1736201824781196
          1.1734812242605928 1.173546421955166 1.1729372109656937 1.173034999675973 1.1737487340905204 1.1735998057821766
          1.1735901010364422 1.1729971667906232 1.1735115232407862 1.1732548069294861 1.1739081345233615 1.1732669690923403
          1.1736317292482032 1.1735887656124535 1.1736244807734657 1.1737818279125911 1.1737902043052988 1.1735443452233996
          1.1736712765078285 1.172734126353775 1.172734126353775 1.172734126353775 1.1727341263537752
        </DataArray>
        <DataArray type="Float64" Name="stream" format="ascii" RangeMin="-1.165803789687125" RangeMax="1.281152324314501">
          -0.002396288728117417 0.006650548690389048 -0.0013158197777701141 0.010846935199561425 0.0025251510382247894 0.016347268533917988
          -0.010286871057835706 0.014946931054751846 0.021023628871779377 0.007832015520826881 0.02939289310180986 -0.019127717883724246
          0.0005107543297990006 0.024296375108952047 0.017241569465708137 0.03674143737871071 0.018880563144000002 0.046992115874518355
          0.03631154815934362 0.02761650708509319 0.02593014023868823 0.05574203337481335 0.07451129681938652 0.027531256256517103
          0.021556835616698976 0.04462589697691748 0.07658530836113157 0.019088503976439637 0.016395067844476738 0.13926840753494446
          0.05990329992074489 0.14975087513151694 -0.026478636746082567 -0.03196471484563766 0.04433991676719789 0.22169342614294718
          0.16682284005162376 0.05395826628593351 -0.06515068610975312 0.10651921783410474 -0.11993630626701307 0.35586892384015056
          0.032168487362394395 0.20881727760490446 0.07384449065385373 0.10869948889439537 0.7776551515787528 -0.21077143552659505
          -0.08228771780449104 0.0447753922329949 0.23588856255199914 0.12017089591315783 0.5768026201863182 0.01505471867341138
          -0.3259325497527765 -0.13288827199855188 0.3224105080982457 -0.647791395672282 0.08647908257597374 -0.13809708488457093
          -0.6108972257480828 1.281152324314501 0.47652140771158924 -0.3094188463105967 -1.165803789687125
        </DataArray>
      </PointData>
      <CellData>
        <DataArray type="UInt8" Name="vtkGhostType" format="ascii" RangeMin="0" RangeMax="0">
          0 0 0 0 0 0
          0 0 0 0 0 0
          0 0 0 0 0 0
          0 0 0 0 0 0
          0 0 0 0 0 0
          0 0 0 0 0 0
          0 0 0 0 0 0
          0 0 0 0 0 0
          0 0 0 0 0 0
          0 0 0 0 0 0
          0 0 0 0 0 0
          0 0 0 0 0 0
          0 0 0 0 0 0
          0 0 0 0 0 0
          0 0 0 0 0 0
          0 0 0 0 0 0
          0 0 0 0 0
        </DataArray>
      </CellData>
      <Points>
        <DataArray type="Float32" Name="Points" NumberOfComponents="3" format="ascii" RangeMin="0.3386548938008204" RangeMax="7.102112369882704">
          7 1.2000000476837158 0 6.222221851348877 1.2000000476837158 0
          7 0.4000000059604645 0 5.866583824157715 0.5834335088729858 0
          6.113818168640137 -0.06796818971633911 0 5.444444179534912 1.2000000476837158 0
          7 -0.4000000059604645 0 5.374982833862305 0.05133577063679695 0
          5.044035911560059 0.717233419418335 0 5.636797904968262 -0.6446514129638672 0
          4.6666669845581055 1.2000000476837158 0 7 -1.2000000476837158 0
          6.222221851348877 -1.2000000476837158 0 4.6517181396484375 0.08554346114397049 0
          4.9071431159973145 -0.5013023018836975 0 4.20501708984375 0.6844208240509033 0
          5.444444179534912 -1.2000000476837158 0 3.8888890743255615 1.2000000476837158 0
          3.908618927001953 0.008085579611361027 0 4.6666669845581055 -1.2000000476837158 0
          4.190336227416992 -0.680732011795044 0 3.4767589569091797 0.5622708797454834 0
          3.1111109256744385 1.2000000476837158 0 3.8888890743255615 -1.2000000476837158 0
          3.455962896347046 -0.5601919889450073 0 3.1824440956115723 0.030600570142269135 0
          2.74373197555542 0.6176614165306091 0 3.1111109256744385 -1.2000000476837158 0
          2.7368290424346924 -0.6656588912010193 0 2.3333330154418945 1.2000000476837158 0
          2.4499940872192383 0.0055718207731842995 0 2.03562593460083 0.6959654092788696 0
          2.3333330154418945 -1.2000000476837158 0 2.0443150997161865 -0.5891656875610352 0
          1.7839189767837524 -0.0063413470052182674 0 1.555556058883667 1.2000000476837158 0
          1.4043580293655396 0.4893423020839691 0 1.3220579624176025 -0.01946846954524517 0
          1.4062609672546387 -0.46856579184532166 0 1.1284430027008057 0.23862800002098083 0
          1.555556058883667 -1.2000000476837158 0 1.053400993347168 0.8138331770896912 0
          1.1284430027008057 -0.23862800002098083 0 0.9798405170440674 0.4904909133911133 0
          1 0 0 0.861803412437439 0.19021129608154297 0
          0.7777777910232544 1.2000000476837158 0 1.0878779888153076 -0.8199741244316101 0
          0.9428092837333679 -0.5025230050086975 0 0.861803412437439 -0.19021129608154297 0
          0.6745458245277405 0.38610830903053284 0 0.638196587562561 0.1175571009516716 0
          0.5494737029075623 0.6893327832221985 0 0.638196587562561 -0.1175571009516716 0
          0.756988525390625 -0.7287815809249878 0 0.6448535919189453 -0.4298931956291199 0
          0.3890891969203949 0.32260850071907043 0 0.7777777910232544 -1.2000000476837158 0
          0.33861419558525085 0.005250108893960714 0 0.366202712059021 -0.29110780358314514 0
          0.30312108993530273 -0.749178409576416 0 0 1.2000000476837158 0
          0 0.4000000059604645 0 0 -0.4000000059604645 0
          0 -1.2000000476837158 0
          <InformationKey name="L2_NORM_RANGE" location="vtkDataArray" length="2">
            <Value index="0">
              0.3386548938
            </Value>
            <Value index="1">
              7.1021123699
            </Value>
          </InformationKey>
        </DataArray>
      </Points>
      <Cells>
        <DataArray type="Int64" Name="connectivity" format="ascii" RangeMin="0" RangeMax="64">
          44 49 42 53 51 58
          45 44 39 49 53 55
          51 45 50 42 49 48
          39 44 37 50 45 43
          58 51 56 55 53 59
          44 42 37 45 39 43
          51 50 56 53 58 59
          49 55 48 37 42 38
          56 50 52 48 55 54
          43 39 36 59 58 63
          42 48 38 50 43 52
          55 60 54 39 37 36
          58 56 62 37 38 34
          56 52 62 48 54 47
          43 36 41 59 63 60
          34 38 33 47 54 57
          47 57 40 57 60 64
          41 36 35 37 34 36
          48 47 38 43 41 52
          60 63 64 59 60 55
          54 60 57 41 35 46
          41 46 52 47 40 38
          62 52 61 33 38 40
          34 33 30 63 58 62
          52 46 61 35 36 31
          30 33 28 34 30 31
          36 34 31 35 31 29
          29 31 26 26 31 30
          26 30 25 29 26 22
          22 26 21 28 33 32
          28 32 27 28 27 24
          24 27 23 28 24 25
          25 24 18 18 24 20
          25 18 21 25 21 26
          21 18 15 30 28 25
          22 21 17 20 24 23
          20 23 19 20 19 14
          15 18 13 21 15 17
          17 15 10 10 15 8
          14 19 16 20 14 13
          13 14 7 7 14 9
          13 7 8 9 14 16
          9 16 12 7 9 4
          8 7 3 13 8 15
          10 8 5 5 8 3
          5 3 1 1 3 2
          18 20 13 4 9 12
          7 4 3 32 33 40
          12 11 6 0 1 2
          6 2 4 3 4 2
          6 4 12
        </DataArray>
        <DataArray type="Int64" Name="offsets" format="ascii" RangeMin="3" RangeMax="303">
          3 6 9 12 15 18
          21 24 27 30 33 36
          39 42 45 48 51 54
          57 60 63 66 69 72
          75 78 81 84 87 90
          93 96 99 102 105 108
          111 114 117 120 123 126
          129 132 135 138 141 144
          147 150 153 156 159 162
          165 168 171 174 177 180
          183 186 189 192 195 198
          201 204 207 210 213 216
          219 222 225 228 231 234
          237 240 243 246 249 252
          255 258 261 264 267 270
          273 276 279 282 285 288
          291 294 297 300 303
        </DataArray>
        <DataArray type="UInt8" Name="types" format="ascii" RangeMin="5" RangeMax="5">
          5 5 5 5 5 5
          5 5 5 5 5 5
          5 5 5 5 5 5
          5 5 5 5 5 5
          5 5 5 5 5 5
          5 5 5 5 5 5
          5 5 5 5 5 5
          5 5 5 5 5 5
          5 5 5 5 5 5
          5 5 5 5 5 5
          5 5 5 5 5 5
          5 5 5 5 5 5
          5 5 5 5 5 5
          5 5 5 5 5 5
          5 5 5 5 5 5
          5 5 5 5 5 5
          5 5 5 5 5
        </DataArray>
      </Cells>
    </Piece>
  </UnstructuredGrid>
</VTKFile>
