<?xml version="1.0"?>
<VTKFile type="UnstructuredGrid" version="0.1" byte_order="LittleEndian" header_type="UInt32" compressor="vtkZLibDataCompressor">
  <UnstructuredGrid>
    <Piece NumberOfPoints="210" NumberOfCells="328">
      <PointData>
        <DataArray type="Float64" Name="proc" format="ascii" RangeMin="0" RangeMax="0">
          0 0 0 0 0 0
          0 0 0 0 0 0
          0 0 0 0 0 0
          0 0 0 0 0 0
          0 0 0 0 0 0
          0 0 0 0 0 0
          0 0 0 0 0 0
          0 0 0 0 0 0
          0 0 0 0 0 0
          0 0 0 0 0 0
          0 0 0 0 0 0
          0 0 0 0 0 0
          0 0 0 0 0 0
          0 0 0 0 0 0
          0 0 0 0 0 0
          0 0 0 0 0 0
          0 0 0 0 0 0
          0 0 0 0 0 0
          0 0 0 0 0 0
          0 0 0 0 0 0
          0 0 0 0 0 0
          0 0 0 0 0 0
          0 0 0 0 0 0
          0 0 0 0 0 0
          0 0 0 0 0 0
          0 0 0 0 0 0
          0 0 0 0 0 0
          0 0 0 0 0 0
          0 0 0 0 0 0
          0 0 0 0 0 0
          0 0 0 0 0 0
          0 0 0 0 0 0
          0 0 0 0 0 0
          0 0 0 0 0 0
          0 0 0 0 0 0
        </DataArray>
        <DataArray type="Float64" Name="Displacement" NumberOfComponents="3" format="ascii" RangeMin="0" RangeMax="0.02044605542742196">
          -0.0042477601437872995 0 0 -0.003638365254694565 0 0
          -0.004246717356301879 0.0015318564844378584 0 -0.00333370694318669 0.001291238762240748 0
          -0.0030312052318480194 0 0 -0.0036645702398479273 0.0025619581524308987 0
          -0.004245548910084017 0.003066247722991079 0 -0.002728018882413522 0.0012886784173324307 0
          -0.0030287448286070214 0.002579143921550647 0 -0.0035181967415050404 0.0038530331675083983 0
          -0.002426234258382044 0 0 -0.004246287486435006 0.004604949856427596 0
          -0.002425220357127349 0.0025746919562067024 0 -0.002124199617769003 0.0012876962680646138 0
          -0.002724161558399911 0.0038624012461945184 0 -0.0036886029765095247 0.005140923894783416 0
          -0.0018221288714233219 0 0 -0.00304648053613011 0.005145486392560279 0
          -0.0042529172643826964 0.006150638875212674 0 -0.001851373453429494 0.002551551990559923 0
          -0.002106954508242354 0.003917250700669575 0 -0.0015202341467823715 0.0012889584499035382 0
          -0.003701378836678381 0.006908022033567825 0 -0.0024129847101073036 0.005580830427872845 0
          -0.0012169674617508075 0 0 -0.0029985902708861835 0.006898770871928615 0
          -0.0014749237720960834 0.003722958081663266 0 -0.0012191518888597544 0.002579937494444491 0
          -0.00427467927420205 0.007701400163059599 0 -0.0017489810985428515 0.005219548928411595 0
          -0.000914250904122172 0.0012916219809660722 0 -0.003593330636968685 0.008166036385676843 0
          -0.0006095687591527735 0 0 -0.002420588829902175 0.007469639007111997 0
          -0.0011769707101786362 0.005027954709241909 0 -0.0018780118529773456 0.0068329596313503015 0
          -0.0029586562527495865 0.008395535901327664 0 -0.000583020416903536 0.0025627168346190003 0
          -0.0007214875373643711 0.003837188617617859 0 -0.0014428846647972068 0.0063291030795773855 0
          -0.004309512884527303 0.009241051636896244 0 -0.003611845250320405 0.009672044255633758 0
          0 0 0 -0.002324672779341361 0.008793450636014498 0
          -9.057623724245523e-7 0.0015323847542737601 0 -0.0005775179350273152 0.0052863673662118735 0
          -0.0018509251843770687 0.008429710579818228 0 -0.0013608372612160771 0.0077322083214222724 0
          -0.0000017989701693215927 0.0030670848603440454 0 -0.0008464606303966791 0.0068896238576532445 0
          -0.0028815534602819313 0.010124820561006713 0 -0.004310357833328636 0.010762184464273905 0
          -0.0019947868925329552 0.009186936309620499 0 -0.0025683913523215757 0.009993128526885511 0
          -0.0000011325913531937684 0.004605993203672226 0 -0.003570320495976087 0.011315455605063453 0
          -0.001995536682528139 0.010810854825498374 0 -0.0010925323965095427 0.009094882816133795 0
          -0.0007438070706183005 0.008392613276182305 0 -0.0015553638404755816 0.010000791825339762 0
          0.000006392853769360137 0.006152585694484569 0 -0.0023261312533643212 0.011213100192563032 0
          -0.0028498940087778417 0.01189633804709909 0 -0.004279516880817186 0.012296757364100646 0
          0.000029156933413746378 0.007701400887633292 0 -0.001755727918776409 0.011421256753127225 0
          -0.0010276885286150954 0.010573796296315179 0 -0.0005045809873716262 0.009725488393057785 0
          -0.0034717775817835693 0.013180024584791186 0 -0.002280766459082216 0.012594717467753019 0
          0.00005570554893254643 0.009238168993278867 0 -0.0027935132011652182 0.013390177566067167 0
          -0.004252747666749341 0.013847549786889249 0 -0.0017030674223051639 0.012756658322670023 0
          -0.0011107852123363325 0.012084501833483904 0 -0.0005085465790865962 0.011386967636250623 0
          -0.002039424811628959 0.013700113959670544 0 0.000055028446509728994 0.010763069659988607 0
          -0.003689453187172345 0.014892556265549091 0 -0.0030487647324997378 0.014919087013013758 0
          -0.0011842783934838624 0.013587682976300062 0 -0.004245429965454885 0.015395220109895923 0
          -0.0024569009006714863 0.014908066648444192 0 -0.0005770342192901501 0.012895205241407044 0
          0.000029593828440766185 0.012299184964487649 0 -0.0018004570654526447 0.014881815213374953 0
          -0.0035215204204113253 0.016173013159748135 0 -0.0011706145779457782 0.014879468793038508 0
          -0.002745756002713826 0.016220307319590052 0 -0.0006086465192909607 0.014461000798668796 0
          -0.0021191213848888823 0.01615367022206622 0 -0.004245255404306323 0.016933926023434874 0
          0.000006877722513056396 0.01384791481304467 0 -0.0014917852601284412 0.0161680306633636 0
          -0.0036643133655325775 0.017438098373834872 0 -0.0030285525272966164 0.017420749880294073 0
          -0.002396655172708965 0.017448642084652445 0 -0.0007086012919294416 0.01616819855126004 0
          -0.0018226270955521353 0.01742489870749708 0 -8.769590477410925e-7 0.01539402335174853 0
          -0.004246468666928939 0.018468187968953366 0 -0.0033334545984657366 0.018708737316765152 0
          -0.001190315738679347 0.017443256160215696 0 -0.0027277001557941146 0.018711249857365185 0
          -0.0021237867401238722 0.01871227133688896 0 -0.0005597020699594835 0.0174866493451763 0
          -0.000001321344752365981 0.016932987704362905 0 -0.0015197961286497579 0.01871104485369457 0
          -0.004247491323264935 0.020000000000000004 0 -0.0036381104002951342 0.020000000000000004 0
          -0.0030309124406964327 0.020000000000000004 0 -0.0009138150461635237 0.018708379516093394 0
          -0.0024258681447545285 0.020000000000000004 0 -0.0018217165760145138 0.020000000000000004 0
          -4.3512608156206653e-7 0.01846761093092268 0 -0.0012165376312477806 0.020000000000000004 0
          -0.0006091305682994991 0.020000000000000004 0 4.3339604101875637e-7 0.020000000000000004 0
          -0.0021630151083746364 0.00888385458242598 0 -0.0021034336414756816 0.008531673220592445 0
          -0.0019611532409395433 0.008865067913024098 0 -0.0017148997442161561 0.009208164764581514 0
          -0.001960265823674994 0.009998049693335564 0 -0.0017446583324603935 0.009741055669816425 0
          -0.001742863422155597 0.010259042885929182 0 -0.001908321767603349 0.011038740505414662 0
          -0.002164136188759746 0.011110791857814417 0 -0.0016566549267285266 0.010712346739817441 0
          -0.002069243274236604 0.011407347610324966 0 -0.0023481647173949566 0.009292766574269183 0
          -0.002316862752846176 0.009017145175127098 0 -0.002311618316624332 0.010977584688072299 0
          -0.002339813791026705 0.010708677166901801 0 -0.002232663225305337 0.008860018617657919 0
          -0.0021433493326455987 0.008719778669307662 0 -0.0021247067931027606 0.008941845687071579 0
          -0.002091830705919647 0.008844744208856153 0 -0.002214053210408521 0.008662561928303471 0
          -0.0020130303515857604 0.009071640546307866 0 -0.001864482782001218 0.009305103776603926 0
          -0.001974834079614153 0.009672235999708945 0 -0.0018524620780676936 0.009869552681575994 0
          -0.0019723867247461576 0.010324835500474505 0 -0.0018515646229152957 0.010128546289632374 0
          -0.0018622627591965652 0.009570505020086443 0 -0.0018577987546589134 0.01042791019239599 0
          -0.001825592594879473 0.010648891695671922 0 -0.0019811435558819536 0.010866463478634075 0
          -0.00207482736069394 0.01110872524401815 0 -0.0021241742479975677 0.01104826335754093 0
          -0.002232856096633108 0.011139189550619103 0 -0.002131489496153337 0.011250465917699851 0
          -0.0021976872638004626 0.011310223901443999 0 -0.0023796273436926495 0.008152188809453603 0
          -0.0021357570071396216 0.007949674793465113 0 -0.002689622541325881 0.00793258745421983 0
          -0.0026498194487067327 0.008641310888406514 0 -0.002920104856515759 0.009260178231167189 0
          -0.002640746655123926 0.009515530683876349 0 -0.0014717287904433057 0.008762296697976013 0
          -0.002627075117577171 0.01061368023822031 0 -0.002700965423414327 0.0100668921846127 0
          -0.0028657237345298867 0.0110105793040529 0 -0.0013239481184925623 0.00954783732073678 0
          -0.0012915261845453385 0.01028729406082747 0 -0.0025950589750117657 0.011514582494966914 0
          -0.002310358685523199 0.011887101450695148 0 -0.0025653302339300288 0.012245527757426055 0
          -0.0013917082236957524 0.010997526524721201 0 -0.0020182471889293122 0.012007987110440124 0
          -0.0021673588175631824 0.009000455652345373 0 -0.002220796908557177 0.009054189586714036 0
          -0.0020322934412076122 0.00869837056680827 0 -0.001906039212658306 0.008647389246421163 0
          -0.001836699631798556 0.009054854561133058 0 -0.0017829124642966124 0.008818937672199871 0
          -0.0017297790383382747 0.009474610217198969 0 -0.001988782520919977 0.011223044057869813 0
          -0.002164159717563344 0.010992969740269913 0 -0.002217817156331954 0.010942372039598858 0
          -0.0024582780348582664 0.009642947550577347 0 -0.0022733884190160166 0.009241310516578862 0
          -0.002336418748368159 0.00904310860514184 0 -0.0025226164678103288 0.0093191507023472 0
          -0.002119495299557939 0.008943963248870444 0 -0.0021179847796066855 0.011047601585419764 0
          -0.002520770293837663 0.010676564257218591 0 -0.0022692474165862796 0.010754446201782217 0
          -0.0024541025716741404 0.010350902846893658 0 -0.0023329725221955134 0.010960888679732416 0
          -0.002059746842817858 0.00906439099834604 0 -0.0020688685723442603 0.009006743116689723 0
          -0.0020217467678980677 0.009152439053446228 0 -0.0019376465553911629 0.009321072783197154 0
          -0.0019631729415287473 0.009487863758117766 0 -0.0019185484194053594 0.009621370509897694 0
          -0.0019606702314096296 0.010510895791413 0 -0.0019150927397025355 0.010376372846435247 0
          -0.0019301129091047712 0.009450222947590653 0 -0.0019280529266817946 0.010547293177975672 0
          -0.0019194711552704335 0.010647186835515032 0 -0.002005152698319351 0.010808226181740791 0
          -0.0020526589019397605 0.010957363418087502 0 -0.0020598554652628536 0.010929559091519651 0
          -0.0022794936749987145 0.011176144871591067 0 -0.0022152716802167852 0.011224706726031552 0
          -0.0021003663851949708 0.011328906764012409 0 -0.0021645883799769 0.011280344909571926 0
          -0.002261909258582392 0.011261662047003514 0 -0.0021334652690185333 0.011358785755884483 0
          <InformationKey name="L2_NORM_RANGE" location="vtkDataArray" length="2">
            <Value index="0">
              0
            </Value>
            <Value index="1">
              0.020446055427
            </Value>
          </InformationKey>
        </DataArray>
        <DataArray type="Float64" Name="Pressure" format="ascii" RangeMin="-4539.890024892841" RangeMax="698.0618852015892">
          -2371.4918026092305 -2370.2650835008653 -2372.875928744977 -2370.401828127407 -2369.9678300346823 -2372.900935683906
          -2377.664633232504 -2369.304467685257 -2369.4367788802697 -2373.711036098607 -2369.4013631838397 -2385.7130934631646
          -2367.4872268248323 -2368.8212584907124 -2364.6327998679453 -2381.159236495342 -2369.521225713087 -2365.501997623203
          -2390.8554819923593 -2367.555158061126 -2362.5714206809857 -2369.556335371342 -2382.7225203847247 -2344.839930500662
          -2370.3321571825086 -2357.0040180186616 -2366.670631392346 -2370.0388339662995 -2385.1740794781713 -2356.0024472226823
          -2370.9143047349826 -2390.9267028803224 -2370.847565748943 -2312.751678645258 -2368.5937890468226 -2325.835594329499
          -2405.5641458901405 -2373.4496052680715 -2374.576638523095 -2354.790411330903 -2381.6223897060627 -2421.4927489947568
          -2372.1156152217877 -2205.265108058744 -2373.445949178745 -2380.5276474387856 -2298.509026931124 -2351.133810588775
          -2378.207666238319 -2378.3950353621476 -2507.177470727761 -2377.814996742256 -1082.1601430411297 -3400.9819067512663
          -2385.691632174401 -2405.3342603791966 -1049.7078927432744 -2438.7638324663294 -2396.159500745327 -2627.9551479075617
          -2387.515799583461 -2180.3810767353634 -2382.462690625694 -2383.9947240931697 -2387.1549992201703 -2332.236465789722
          -2445.6133378312024 -2399.637344615305 -2374.576389887986 -2298.0545111997826 -2380.134300890777 -2347.042523738977
          -2387.764741227308 -2333.9726498259815 -2373.1441018051846 -2395.068735922676 -2330.5505234591424 -2375.690285415288
          -2380.1499153340733 -2365.7853555211113 -2364.468281922129 -2386.3896611596347 -2356.531028548708 -2382.9061984249875
          -2386.6137920737788 -2353.9093677528417 -2373.8657590414505 -2369.0686342987633 -2365.5545220763106 -2379.5976429773355
          -2362.986137288841 -2377.8654586798757 -2389.8048711960937 -2365.902407893216 -2372.8598206490624 -2369.5081858327667
          -2367.3301711521854 -2375.18339381868 -2367.486806282081 -2384.8998679470224 -2372.775016606116 -2370.3589865249023
          -2369.988461570368 -2369.2634017847718 -2368.736035390919 -2373.553735251244 -2378.441274478127 -2369.5131253025493
          -2371.4001252290636 -2370.2049785315394 -2369.930072066729 -2370.8861381729407 -2369.3451522795763 -2369.469793178872
          -2373.3940330146906 -2370.2959894971714 -2370.809664324021 -2372.064466818097 -1180.8133695860947 -2064.2221567217875
          -2115.6821182288895 -2542.325827520024 -3837.4215744136864 -2948.422755286404 -2943.2154939414177 -2327.223938615446
          -1136.929011030345 -2553.0144039862457 -2068.843876099213 -2684.329673005095 119.02502806914299 112.20938247254503
          -2646.7554040794494 -1754.1355745270146 -1666.7306741962393 -524.3132091122307 -1532.2686338513768 -2134.7436323902657
          -2050.6888244539573 -2595.013895305959 -4035.160178041272 -3392.9221648500456 -4000.3414648127164 -3390.318534177552
          -3191.2641928980793 -3209.2904495899156 -2635.219716278432 -2241.6936556000705 -1580.0106474263157 -540.5837164489619
          -1676.3741171971071 -1591.6640776559234 -2124.6124764172882 -2243.541803171106 -2305.630352788191 -2359.1579122676994
          -2353.5547479469346 -2456.3708083089505 -2614.7370975922213 -2368.6364296987267 -2528.8418830126275 -3142.852951212172
          -2444.8200806767277 -2533.3594901869455 -2536.784242869382 -2304.5303472919954 -2219.591869764447 -2340.258600912738
          -2388.924901810462 -2315.1454884947525 -312.14685040011057 -1570.1318034924568 -2089.9521374753385 -2207.095572580007
          -2382.1780429255714 -2420.417427225574 -2745.374291403214 -2198.033907357329 -335.9520733343353 -1582.81855817563
          -3042.6557898781807 -1308.9415888231201 -2444.7973905319195 -2011.4027454876298 649.2785407993547 698.0618852015892
          -2036.3017114187587 -1370.5812022713176 -3023.868655415358 -2413.5682404074064 -803.2366760766802 -1287.501016783094
          -1865.1625099986354 -2620.976508676018 -4539.890024892841 -3613.212185469676 -4463.0279935535345 -3604.8159572013165
          -3409.7218607474188 -3505.96460940205 -2725.4920525949933 -2087.059122032261 -1391.1386860245161 -795.1458045961183
          -1928.3775969662354 -1900.4932968071976 -1830.2539768775682 -1858.1382770366058 -2152.496776576326 -2096.7281762582506
        </DataArray>
      </PointData>
      <CellData>
        <DataArray type="UInt8" Name="vtkGhostType" format="ascii" RangeMin="0" RangeMax="0">
          0 0 0 0 0 0
          0 0 0 0 0 0
          0 0 0 0 0 0
          0 0 0 0 0 0
          0 0 0 0 0 0
          0 0 0 0 0 0
          0 0 0 0 0 0
          0 0 0 0 0 0
          0 0 0 0 0 0
          0 0 0 0 0 0
          0 0 0 0 0 0
          0 0 0 0 0 0
          0 0 0 0 0 0
          0 0 0 0 0 0
          0 0 0 0 0 0
          0 0 0 0 0 0
          0 0 0 0 0 0
          0 0 0 0 0 0
          0 0 0 0 0 0
          0 0 0 0 0 0
          0 0 0 0 0 0
          0 0 0 0 0 0
          0 0 0 0 0 0
          0 0 0 0 0 0
          0 0 0 0 0 0
          0 0 0 0 0 0
          0 0 0 0 0 0
          0 0 0 0 0 0
          0 0 0 0 0 0
          0 0 0 0 0 0
          0 0 0 0 0 0
          0 0 0 0 0 0
          0 0 0 0 0 0
          0 0 0 0 0 0
          0 0 0 0 0 0
          0 0 0 0 0 0
          0 0 0 0 0 0
          0 0 0 0 0 0
          0 0 0 0 0 0
          0 0 0 0 0 0
          0 0 0 0 0 0
          0 0 0 0 0 0
          0 0 0 0 0 0
          0 0 0 0 0 0
          0 0 0 0 0 0
          0 0 0 0 0 0
          0 0 0 0 0 0
          0 0 0 0 0 0
          0 0 0 0 0 0
          0 0 0 0 0 0
          0 0 0 0 0 0
          0 0 0 0 0 0
          0 0 0 0 0 0
          0 0 0 0 0 0
          0 0 0 0
        </DataArray>
        <DataArray type="Float64" Name="Stress" NumberOfComponents="6" format="ascii" RangeMin="1244.4663282205772" RangeMax="19581.801342850755">
          -2286.1481978160273 7028.154037299915 0 -1054.1766886287348 0 0
          -2467.552694577833 7428.0571479839045 0 -968.2062096542137 0 0
          -2446.980363588735 7474.569966718558 0 -973.8423536093652 0 0
          -2313.249674311892 7188.964689958547 0 -991.1458522693852 0 0
          -2371.0850452862423 7236.098932200088 0 -1035.5615094471752 0 0
          -2357.6735880872757 7201.668415502734 0 -1027.129935758244 0 0
          -2364.2154432614125 7219.088242284741 0 -1033.8338696276253 0 0
          -2364.9465484439147 7220.170987050891 0 -1029.101600467676 0 0
          -2358.2906272653927 7204.039998460494 0 -1030.792992317417 0 0
          -2370.333894436926 7232.869906688251 0 -1031.1567262298302 0 0
          -2355.263189121777 7195.91743754295 0 -1028.0019294713934 0 0
          -2364.934982744685 7221.138668816298 0 -1033.9470672901687 0 0
          -2364.125705661042 7217.853137760195 0 -1028.5348448644652 0 0
          -2357.8740218455987 7202.829561697445 0 -1030.629779327974 0 0
          -2371.081279950511 7235.372196310744 0 -1031.8668743719202 0 0
          -2355.150283914853 7195.686693764608 0 -1027.998257950461 0 0
          -2370.273027116661 7233.534197211127 0 -1035.431691875054 0 0
          -2358.3168815872186 7203.383614938208 0 -1027.4510219004253 0 0
          -2344.0603650014427 7112.258562564889 0 -1199.1415923273637 0 0
          -2333.827882859162 7212.642028305222 0 -995.5197320417552 0 0
          -2386.6712966315336 7277.277263454547 0 -1024.4844231145764 0 0
          -2381.424239071651 7165.751983274965 0 -879.6688540604696 0 0
          -2408.174152532495 7314.930193440474 0 -907.5857699503226 0 0
          -2362.631902046614 7266.156788115109 0 -1192.742957298309 0 0
          -2302.968229447489 7052.77131411439 0 -1028.689721922591 0 0
          -2441.137193662702 7375.371882097527 0 -1090.3206203996426 0 0
          -2421.704003931908 7418.899429756583 0 -1123.056178623615 0 0
          -2360.2202922060474 7208.089103044667 0 -1023.3237740040383 0 0
          -2359.4571544453 7203.65256730531 0 -1018.4388845508562 0 0
          -2355.578753888588 7197.813709192622 0 -1025.4063223540124 0 0
          -2354.0218213794024 7190.1727003345095 0 -1022.4917482716478 0 0
          -2355.121763186474 7196.838454126035 0 -1025.6795735988505 0 0
          -2353.4610380069007 7188.711455375596 0 -1022.6876839169963 0 0
          -2364.172036902639 7213.96304227619 0 -1014.4346888413467 0 0
          -2355.85476741416 7196.932490568439 0 -1015.6254894969746 0 0
          -2354.6441432575957 7194.454815950014 0 -1015.5924545176299 0 0
          -2351.9234820264646 7180.877693950493 0 -1009.3751657589845 0 0
          -2359.9199690223554 7200.1263282586915 0 -999.1837686783042 0 0
          -2344.9496503447135 7173.625675690886 0 -1012.9121264809925 0 0
          -2368.550560100606 7226.936178638882 0 -1028.1943719024587 0 0
          -2367.7286640737584 7224.552820685211 0 -1027.7504850671653 0 0
          -2360.384676661428 7211.050814487187 0 -1036.4317774504418 0 0
          -2359.6368511896744 7208.393763629079 0 -1040.097233852986 0 0
          -2355.0047156541214 7200.218033335126 0 -1040.2609887907035 0 0
          -2364.0685615291886 7220.421503724057 0 -1047.2059238126683 0 0
          -2361.080062436903 7212.886968488099 0 -1036.8770864254702 0 0
          -2360.4455342145357 7210.732196612229 0 -1040.4858667531025 0 0
          -2355.795924807896 7202.154015242615 0 -1041.3673490553745 0 0
          -2365.095569764614 7222.940347895064 0 -1047.4250864252006 0 0
          -2361.07185571171 7210.203017845007 0 -1023.5774393171935 0 0
          -2360.568584044101 7207.042411561877 0 -1019.181899034013 0 0
          -2365.3029997772965 7216.603938220538 0 -1015.6924699221698 0 0
          -2355.5212320059195 7198.900390176118 0 -1031.3764494681466 0 0
          -2353.886960650433 7191.67373822285 0 -1032.2866737594888 0 0
          -2350.8671411026053 7188.848213645177 0 -1027.5773628473669 0 0
          -2346.8795953197578 7170.397329290417 0 -1025.5250041327422 0 0
          -2348.016333652039 7183.359241195645 0 -1041.8127643317682 0 0
          -2343.731512747009 7165.132437086106 0 -1041.3369831047187 0 0
          -2354.0544596762993 7194.652255607525 0 -1044.1738711104206 0 0
          -2361.495811042161 7215.916173603888 0 -1058.1871811065723 0 0
          -2361.421811159741 7215.7256921688595 0 -1061.7490869727426 0 0
          -2367.825806820324 7236.4363514352135 0 -1052.3751551798744 0 0
          -2372.4257197823754 7239.210690190026 0 -1047.2246901427004 0 0
          -2373.9204740871137 7247.63156937879 0 -1044.356447531634 0 0
          -2355.340174355546 7198.288529014273 0 -1030.852111096213 0 0
          -2353.677164758266 7190.877183383522 0 -1031.4902671474715 0 0
          -2351.2666523896214 7189.268189807351 0 -1026.361570226034 0 0
          -2347.4238949246874 7171.279679683033 0 -1023.5426950121437 0 0
          -2347.499882719613 7177.730366647924 0 -1011.2651972266617 0 0
          -2347.1220520480365 7181.612770117702 0 -1037.7486723589896 0 0
          -2367.7325419460676 7226.319481055525 0 -1036.5570597076633 0 0
          -2368.511231274476 7228.632804783998 0 -1036.8942188916444 0 0
          -2370.3244680047083 7233.164810496123 0 -1025.4340356569683 0 0
          -2368.123753891504 7229.426567654659 0 -1014.6103687856698 0 0
          -2352.282379816342 7195.908764140126 0 -1069.6048416093079 0 0
          -2353.243841239223 7200.497565720132 0 -1070.666448908545 0 0
          -2342.3330333150234 7162.4048044863375 0 -1097.8208486585177 0 0
          -2361.1192556739634 7240.632628359478 0 -1120.5859347134651 0 0
          -2384.0271402443304 7267.814053266837 0 -1108.1593990046451 0 0
          -2381.302688217066 7261.141810634363 0 -1101.2351623867555 0 0
          -2431.619145715208 7370.174264851274 0 -1095.3167438723096 0 0
          -2376.479865092667 7254.647401734831 0 -1073.168173598863 0 0
          -2353.716412219126 7186.332447647685 0 -1010.2160226821463 0 0
          -2361.5735930175315 7204.526031350117 0 -1001.5154659854406 0 0
          -2340.698702624355 7145.302584234025 0 -1002.4327153494995 0 0
          -2341.666330890078 7157.1174732424115 0 -1036.786554645663 0 0
          -2352.5660337392064 7189.426531547129 0 -1042.365018852665 0 0
          -2359.5683498310664 7211.738333931589 0 -1057.8509811479157 0 0
          -2358.4327673209905 7207.1100368551015 0 -1061.5479400626339 0 0
          -2366.6983343801585 7233.620368118513 0 -1052.795944348321 0 0
          -2371.716151321467 7236.941036637441 0 -1047.7980788259686 0 0
          -2373.221924274324 7245.6373522816975 0 -1044.6005334981392 0 0
          -2362.6638375834787 7209.388917812765 0 -1000.9802683402909 0 0
          -2349.3889733661526 7189.474877428909 0 -1064.9852699372882 0 0
          -2347.518605227576 7181.550054771074 0 -1066.9122761384463 0 0
          -2373.799715131695 7248.223741787268 0 -1074.9773161473438 0 0
          -2442.9243058606603 7468.042617371053 0 -1030.4381392104274 0 0
          -2377.418810492116 7272.298657714438 0 -984.5291185996839 0 0
          -2459.93026921431 7428.83654454313 0 -1223.9006081381992 0 0
          -2391.207911630996 7283.7943209771665 0 -1011.7922074719531 0 0
          -2360.7640728842925 7203.451178576106 0 -1036.8117653671816 0 0
          -2401.6722425273956 7331.847539018403 0 -1025.5044048264333 0 0
          -2337.9951708358913 7058.6437294365205 0 -877.8849974541599 0 0
          -2419.988624097058 7342.122941433538 0 -1051.3992897809999 0 0
          -2357.0728438188253 7246.200001102889 0 -1066.1968159992043 0 0
          -2324.71667313896 7111.259521683524 0 -1027.2918166359664 0 0
          -2405.322143637471 7449.221855547282 0 -1184.3787722605161 0 0
          -2423.4529700117882 7354.2899031474535 0 -1053.3899979998748 0 0
          -2416.5520561870235 7332.812703934072 0 -1017.2794315502697 0 0
          -2398.0264304118364 7332.795163878453 0 -1099.364226799435 0 0
          -2391.3944873931805 7292.453040032952 0 -1112.3601143349276 0 0
          -2334.8532608158703 7153.823355418641 0 -1031.8469881107364 0 0
          -2323.4786678194623 7099.9141722769045 0 -899.009558580114 0 0
          -2316.9975940725994 7065.782661086678 0 -917.1345416525277 0 0
          -2288.483308194445 6948.091191663486 0 -1064.3387088337893 0 0
          -2346.838694978939 7148.998661907393 0 -957.347704064176 0 0
          -2399.143090356439 7320.186968389564 0 -1024.5254902654374 0 0
          -2395.1574229786183 7287.391120454369 0 -1025.4147402117032 0 0
          -2393.561297444795 7280.828458415988 0 -958.6159542332709 0 0
          -2369.4699633046193 7230.4153268984865 0 -1024.5211630987562 0 0
          -2367.010405696249 7226.629657422218 0 -1012.6645507175625 0 0
          -2380.154530918344 7261.795448780953 0 -1023.1541333931511 0 0
          -2337.4533086005385 7138.481138340033 0 -1005.0772069643278 0 0
          -2359.396853225444 7196.894919133413 0 -994.000478382053 0 0
          -2369.414999756248 7233.58263707735 0 -1041.701817071846 0 0
          -2370.1587211827054 7235.786356946593 0 -1041.5560121817086 0 0
          -2372.527631418273 7234.191453519365 0 -1020.8868066963894 0 0
          -2373.9045840461768 7243.766103513894 0 -1026.2577477162629 0 0
          -2379.6340548682338 7271.859367931329 0 -1063.7936108987735 0 0
          -2380.1005932474905 7268.170116204912 0 -1052.4118104428444 0 0
          -2354.572137742137 7180.946778911902 0 -980.978825609389 0 0
          -2346.3275473349695 7141.950555709262 0 -941.0229388746549 0 0
          -2321.9185589469407 7086.449859973083 0 -1009.8009728136874 0 0
          -2333.9317932356007 7159.335369566967 0 -1064.9197187071693 0 0
          -2336.6756180558614 7156.0679254527 0 -1022.806304811811 0 0
          -2375.176486456974 7240.399970280256 0 -997.8289883885353 0 0
          -2380.256471621407 7275.660266910146 0 -1064.951020415812 0 0
          -2379.629509726795 7267.278245800233 0 -1053.4684337252793 0 0
          -2399.7835257465167 7306.174624445547 0 -1015.1406758999585 0 0
          -2396.2262711254098 7320.1667749943335 0 -1068.5583679829413 0 0
          -2401.2084171387332 7319.594115303014 0 -1050.8327238239824 0 0
          -2360.3375895628865 7208.118116419826 0 -986.4620342835849 0 0
          -2371.9783978987134 7221.903578172163 0 -989.5606755165219 0 0
          -2375.671682554148 7235.0687641133245 0 -993.216669799949 0 0
          -2347.8335377344174 7164.941035895807 0 -976.2481320014006 0 0
          -2376.9202396498395 7251.276205190798 0 -1021.4726570434354 0 0
          -2378.4767828648905 7254.742478636643 0 -1021.3878533632933 0 0
          -2389.5520536869153 7293.778084197116 0 -1030.8195699765565 0 0
          -2387.2888691190356 7238.726755861653 0 -973.5536627066004 0 0
          -2403.444364599033 7325.635774294088 0 -1039.1509139679363 0 0
          -2391.782180939844 7296.809821944122 0 -1027.3905495305928 0 0
          -2379.9627084828057 7262.310197849726 0 -1023.0788437922953 0 0
          -2402.426428399638 7326.062081600325 0 -1047.4918329770555 0 0
          -2395.5130495292274 7317.313386251645 0 -1057.4398275860317 0 0
          -2405.628331951386 7332.780091941804 0 -1039.7486773259327 0 0
          -2382.21906300092 7271.650257368309 0 -1026.255034117389 0 0
          -2384.275943079623 7258.110953564422 0 -1008.7544894886743 0 0
          -2371.9425576266776 7232.05461865674 0 -1019.1391185265479 0 0
          -2373.373994237403 7242.270053615952 0 -1025.0212111336043 0 0
          -2377.1304217909255 7257.681259366843 0 -1052.7823281250764 0 0
          -2390.7513468190514 7305.716818059838 0 -1055.641623711866 0 0
          -2378.262603029766 7261.372540385342 0 -1068.3860426996946 0 0