<?xml version="1.0"?>
<VTKFile type="UnstructuredGrid" version="0.1" byte_order="LittleEndian" header_type="UInt32" compressor="vtkZLibDataCompressor">
  <UnstructuredGrid>
    <Piece NumberOfPoints="129" NumberOfCells="208">
      <PointData>
        <DataArray type="Float64" Name="proc" format="ascii" RangeMin="0" RangeMax="0">
          0 0 0 0 0 0
          0 0 0 0 0 0
          0 0 0 0 0 0
          0 0 0 0 0 0
          0 0 0 0 0 0
          0 0 0 0 0 0
          0 0 0 0 0 0
          0 0 0 0 0 0
          0 0 0 0 0 0
          0 0 0 0 0 0
          0 0 0 0 0 0
          0 0 0 0 0 0
          0 0 0 0 0 0
          0 0 0 0 0 0
          0 0 0 0 0 0
          0 0 0 0 0 0
          0 0 0 0 0 0
          0 0 0 0 0 0
          0 0 0 0 0 0
          0 0 0 0 0 0
          0 0 0 0 0 0
          0 0 0
        </DataArray>
        <DataArray type="Float64" Name="Displacement" NumberOfComponents="3" format="ascii" RangeMin="0" RangeMax="0.010224921551165894">
          -0.0021327507685275082 0 0 -0.001827207012049439 0 0
          -0.002132540146794663 0.0007680044335946217 0 -0.0016745197721916658 0.0006477134206895246 0
          -0.0015222942552981266 0 0 -0.0018411577633000303 0.0012845898451064619 0
          -0.0021325033024179384 0.0015367009884568626 0 -0.0013700115714995243 0.0006468839316138137 0
          -0.001521837536878498 0.0012944463317811716 0 -0.0017686811183364498 0.0019319804396723049 0
          -0.0012180654433291505 0 0 -0.00213320094206443 0.002306476699905086 0
          -0.00121786344459767 0.0012929293951013496 0 -0.001066125106609972 0.000646459816139834 0
          -0.001369301851879101 0.001939973483089614 0 -0.0018543354401030767 0.002576071786200506 0
          -0.0009141761574645124 0 0 -0.0015328319428637915 0.002583215681161981 0
          -0.0021357590429486395 0.0030778552372947698 0 -0.0009286831512720359 0.0012809020254876836 0
          -0.0010573010119546392 0.0019678460699778457 0 -0.0007623223173170578 0.0006466866884801169 0
          -0.001859226415239341 0.003459129034032226 0 -0.0012127280463638118 0.0028066769968035105 0
          -0.0006100715815421124 0 0 -0.0015096292396995642 0.003463601040415959 0
          -0.0007388766012099047 0.0018680389963088727 0 -0.0006107615844436849 0.0012938231244024865 0
          -0.00214212487621038 0.003849933161597158 0 -0.0008762851169469134 0.0026211474327065736 0
          -0.0004580216172053996 0.000647388572621496 0 -0.0018003378475263095 0.004086705059370576 0
          -0.00030534793328255484 0 0 -0.0012205931442685464 0.003770596497416791 0
          -0.0005887753401935176 0.00252105003026761 0 -0.0009408716333895894 0.0034348564529175195 0
          -0.0014867634205662375 0.004210474928758736 0 -0.00029174014241450203 0.0012838430765736916 0
          -0.00036078321957888724 0.0019223496076372624 0 -0.0007220312877521048 0.00317526994508593 0
          -0.002151374894003244 0.004618655886970631 0 -0.0018012857554498252 0.004836114061678233 0
          0 0 0 -0.0011934055127224767 0.0044652408802571516 0
          -3.113003889425945e-7 0.0007674560994863156 0 -0.00028895878876894346 0.0026470125026409807 0
          -0.0009218435868622137 0.004232455564006242 0 -0.0006804749990996522 0.0038755138876291947 0
          -7.008423049558788e-7 0.00153567951920155 0 -0.00042431114681411503 0.0034496729257042316 0
          -0.0014300740250324426 0.0050614781092972305 0 -0.0021514966000190597 0.005382532236403917 0
          -0.0010097090003463437 0.00459552618048365 0 -0.0012301443737952253 0.004998734512269502 0
          -5.645049303742183e-7 0.0023053319376630348 0 -0.0017853107000913662 0.005655575316089687 0
          -0.0010121881656090536 0.005400518502366669 0 -0.0005532625255086788 0.004548063192111458 0
          -0.00037686224257183035 0.004198057308631514 0 -0.0007885680992090474 0.004998975860376309 0
          0.0000021342615004687965 0.0030776335207336565 0 -0.0011931173910678836 0.0055377501972048385 0
          -0.0014367675466443663 0.005930477046927599 0 -0.002143446949398736 0.00615008539979717 0
          0.000010541135464748864 0.003850432635893572 0 -0.0008752342098807801 0.005701333888453491 0
          -0.0005229053369294557 0.005287411433661673 0 -0.000260210366768644 0.004863004516866967 0
          -0.0017450188211439346 0.006583138458075207 0 -0.0011472382330948688 0.006258638485136681 0
          0.000020389677394694832 0.004618474362839302 0 -0.0014070026287127547 0.006677537125222705 0
          -0.002135964965412014 0.006921962033998735 0 -0.0008522648009289473 0.006363297860617342 0
          -0.0005578439462104988 0.006037122496386861 0 -0.00026071233683024606 0.005692838283843782 0
          -0.001022624999142021 0.0068296928229370935 0 0.000019857585454215743 0.005382005168818582 0
          -0.0018551118173581204 0.0074406257389231 0 -0.0015340781645528513 0.007449139709249265 0
          -0.00059260398549491 0.006786285721797828 0 -0.0021331954445137063 0.00769366762966325 0
          -0.001234990550329333 0.007440408846499201 0 -0.0002910304540096565 0.006444913059134708 0
          0.000010190653079070257 0.006149978883006578 0 -0.0009022786091113517 0.007428164241650399 0
          -0.001770603783199029 0.008081090552651889 0 -0.0005858561109264752 0.00743278234127026 0
          -0.0013802841133200073 0.00810177177584431 0 -0.00030484460415652794 0.007226754643592318 0
          -0.0010638584793804004 0.00806767339308203 0 -0.0021326026898478468 0.008463399565223472 0
          0.0000018934679832323443 0.0069228903441603575 0 -0.0007474222079095973 0.008076871818093427 0
          -0.0018412774791824247 0.008715464471895876 0 -0.0015219728609140808 0.008705535301638829 0
          -0.0012037264984657702 0.008718754322258198 0 -0.0003544714255550815 0.008080464361378846 0
          -0.000914438586330334 0.008707198706846334 0 -6.628255362360049e-7 0.007694957628036028 0
          -0.0021326426285469937 0.009232032976502057 0 -0.0016746302187632196 0.009352291227561725 0
          -0.0005963997248559823 0.008717777594658423 0 -0.0013700940871845192 0.009353081070946952 0
          -0.0010661406075308153 0.00935348344720558 0 -0.0002801784078604821 0.008740967226617376 0
          -6.140298344926376e-7 0.008464502078399256 0 -0.000762265186663153 0.009353261917160823 0
          -0.0021328433434025856 0.010000000000000002 0 -0.001827311580727961 0.010000000000000002 0
          -0.0015223861210477607 0.010000000000000002 0 -0.00045791377773011675 0.009352599126190303 0
          -0.001218111162616803 0.010000000000000002 0 -0.0009141564861990188 0.010000000000000002 0
          -1.9675084272287602e-7 0.009232601890441072 0 -0.0006099898024284739 0.010000000000000002 0
          -0.00030523722818079303 0.010000000000000002 0 9.598991437152615e-8 0.010000000000000002 0
          -0.0011015572565344104 0.004530383530370401 0 -0.0010576245497923452 0.004348848222131697 0
          -0.0009718067493764943 0.00445923611474101 0 -0.0008552058430356305 0.004615715712191276 0
          -0.0009508713851473626 0.004998946955775258 0 -0.0008796390678957478 0.004869048206617167 0
          -0.0008788023691754898 0.005126900541001454 0 -0.000948163675299524 0.00550047315351902 0
          -0.0011026527783384687 0.005469134349785754 0 -0.0008319011545449138 0.005350154874414901 0
          -0.0010341758004743318 0.005619542042829165 0
          <InformationKey name="L2_NORM_RANGE" location="vtkDataArray" length="2">
            <Value index="0">
              0
            </Value>
            <Value index="1">
              0.010224921551
            </Value>
          </InformationKey>
        </DataArray>
        <DataArray type="Float64" Name="Pressure" format="ascii" RangeMin="-1829.6070565248622" RangeMax="-1025.3937089242713">
          -1188.6939137419258 -1188.2876403122318 -1189.0002492407589 -1188.198456670128 -1187.9220383873658 -1188.9323791644974
          -1190.198102282562 -1187.6108845632793 -1187.74219062927 -1189.0333661875984 -1187.5443451916535 -1191.9440543934834
          -1186.9425193778648 -1187.2905828749967 -1186.3299213836485 -1190.7329084982912 -1187.4278082623243 -1186.8838623769525
          -1192.7995720353165 -1186.7836159288827 -1185.350816322583 -1187.3679388999644 -1190.9040917705001 -1181.9198332382362
          -1187.5615973694667 -1185.450068606483 -1186.1465000442568 -1187.3593446070345 -1191.1005985490935 -1182.5558372262158
          -1187.6927762656323 -1192.4124189780491 -1187.660400801144 -1171.7259393733166 -1186.2521602412962 -1169.6880839359123
          -1193.0503797583378 -1188.4106308522041 -1188.6573469411705 -1180.6650345874186 -1190.2587553202425 -1199.207691716747
          -1187.9340049712314 -1172.3675758236673 -1188.310980448187 -1190.2564268119568 -1164.4327400328461 -1177.7817144142211
          -1189.8033276423766 -1189.121651870435 -1224.388810645315 -1188.926241602809 -1166.8258662382104 -1246.747413377494
          -1192.0761007929154 -1195.013301863176 -1169.4814280480823 -1212.9322203221468 -1195.1930718844815 -1259.3066193968643
          -1192.323098398012 -1163.3662580901544 -1187.0084661132073 -1190.9859359913207 -1192.1850885475387 -1172.4825718535421
          -1216.6053485718985 -1196.1762333428073 -1189.3068552276652 -1166.2891216229978 -1189.8803745553773 -1182.9034240318224
          -1191.8819541602852 -1169.006092422083 -1185.1609169306676 -1194.5582827024236 -1176.6645865498776 -1188.611735803238
          -1190.373728448742 -1186.8166628172748 -1183.571871769823 -1191.9415340857213 -1183.875014393811 -1190.5384975501365
          -1192.1776290450891 -1182.6405250974324 -1189.000947752279 -1186.2924241062392 -1186.538256397534 -1189.8260958744095
          -1185.5402946165832 -1190.1508580353925 -1193.123966550331 -1186.1212391833683 -1188.876745780638 -1187.7080572332266
          -1186.9072274766777 -1188.7546614364103 -1186.7862157702616 -1191.6517491273971 -1188.9282387928242 -1188.14668370015
          -1187.3873362562913 -1187.5746440351218 -1187.256819949187 -1188.347957458392 -1189.7476788881395 -1187.3464921436635
          -1188.6290263959477 -1188.2338069343223 -1187.8798240352282 -1187.640166232192 -1187.5104471006634 -1187.3989298425847
          -1188.197408049739 -1187.520796951032 -1187.5893045378753 -1187.8317084171651 -1169.5967210309386 -1168.4001579282567
          -1025.3937089242713 -1211.8696797148552 -1829.6070565248622 -1409.7642428131082 -1435.350742156576 -1051.2051805981005
          -1166.4238430691184 -1215.8945956252032 -1167.9244149718484
        </DataArray>
      </PointData>
      <CellData>
        <DataArray type="UInt8" Name="vtkGhostType" format="ascii" RangeMin="0" RangeMax="0">
          0 0 0 0 0 0
          0 0 0 0 0 0
          0 0 0 0 0 0
          0 0 0 0 0 0
          0 0 0 0 0 0
          0 0 0 0 0 0
          0 0 0 0 0 0
          0 0 0 0 0 0
          0 0 0 0 0 0
          0 0 0 0 0 0
          0 0 0 0 0 0
          0 0 0 0 0 0
          0 0 0 0 0 0
          0 0 0 0 0 0
          0 0 0 0 0 0
          0 0 0 0 0 0
          0 0 0 0 0 0
          0 0 0 0 0 0
          0 0 0 0 0 0
          0 0 0 0 0 0
          0 0 0 0 0 0
          0 0 0 0 0 0
          0 0 0 0 0 0
          0 0 0 0 0 0
          0 0 0 0 0 0
          0 0 0 0 0 0
          0 0 0 0 0 0
          0 0 0 0 0 0
          0 0 0 0 0 0
          0 0 0 0 0 0
          0 0 0 0 0 0
          0 0 0 0 0 0
          0 0 0 0 0 0
          0 0 0 0 0 0
          0 0 0 0
        </DataArray>
        <DataArray type="Float64" Name="Stress" NumberOfComponents="6" format="ascii" RangeMin="2217.0487979557056" RangeMax="6575.498849372911">
          -1378.120494412637 3982.407872199399 0 -63.94502831170864 0 0
          -1376.2277085247565 4208.214489637462 0 -1090.794711401243 0 0
          -1181.0340997214041 3776.4867609346165 0 -384.9892963474317 0 0
          -1144.9258339612013 3773.2764318963364 0 -699.3582076120194 0 0
          -1178.543259510729 3578.165051181777 0 -481.0261769528994 0 0
          -1233.0714900060311 3833.6137847987397 0 -583.1088187478305 0 0
          -1222.142536486172 3718.8670809493337 0 -582.5671130982109 0 0
          -1163.533205679656 3529.0551743249475 0 -479.7438673938874 0 0
          -1215.0131844389948 3676.4553350884985 0 -480.1399932268087 0 0
          -1202.7952159237573 3671.488377987711 0 -499.1736071202424 0 0
          -1186.1506013758762 3586.545201784207 0 -469.2534659339449 0 0
          -1161.736319212278 3601.530438887654 0 -506.4073281907456 0 0
          -1176.3443229999189 3573.864392260266 0 -550.2654667288306 0 0
          -1187.6071312288327 3624.0850410610365 0 -518.3564471449489 0 0
          -1184.477289644678 3616.2947368844316 0 -516.210203135853 0 0
          -1186.5388393871176 3621.7368141979696 0 -517.9162722783457 0 0
          -1185.9260011423476 3619.701940498222 0 -516.380477161054 0 0
          -1184.05906461807 3615.306475365005 0 -516.9481237753018 0 0
          -1188.4161296763587 3626.4107128828437 0 -517.6324149894675 0 0
          -1183.621502844274 3614.103586489673 0 -516.2843819847773 0 0
          -1185.862926075241 3619.8914160575005 0 -517.8749430388979 0 0
          -1186.5216109558 3621.5138807118956 0 -516.8045147377082 0 0
          -1184.5936735385008 3616.707272364839 0 -517.0429057310572 0 0
          -1187.5330179262578 3623.5799366034744 0 -517.0618245329725 0 0
          -1183.4491227240906 3613.7153526718685 0 -516.255244111612 0 0
          -1188.364051207818 3626.414416124312 0 -518.4654113459993 0 0
          -1184.2202798475396 3615.475904070974 0 -516.0361409653048 0 0
          -1169.606638647866 3546.238884131797 0 -564.799989463866 0 0
          -1175.9332494580492 3612.540359975925 0 -507.4210853475974 0 0
          -1193.1757101619337 3638.9553346260823 0 -515.8808073796394 0 0
          -1178.845934923031 3552.959645229708 0 -458.7065267988995 0 0
          -1198.3644523707503 3648.8995760196526 0 -499.75992396775547 0 0
          -1191.6688743265954 3640.5079918840256 0 -544.1204678747657 0 0
          -1177.9449642481823 3597.7297268706366 0 -505.3590600924503 0 0
          -1203.027547771067 3655.732313217888 0 -525.7588178825041 0 0
          -1235.6362094130884 3809.782921120758 0 -538.7645956545276 0 0
          -1204.089315196663 3682.928271874919 0 -548.5894106909324 0 0
          -1219.1426889331585 3708.827221807424 0 -489.8633281504152 0 0
          -1180.8898750106964 3578.707996787907 0 -518.1737736711499 0 0
          -1185.3861638988587 3618.4841744617597 0 -515.0486678838 0 0
          -1185.237121044067 3617.5920036461316 0 -513.966118514268 0 0
          -1183.5881838178811 3614.3283099718637 0 -515.738428242003 0 0
          -1183.143224787328 3612.158485045212 0 -514.9750416346129 0 0
          -1183.6535351244147 3614.4953523717368 0 -515.439064264831 0 0
          -1183.2446007059448 3612.4844552328423 0 -514.6537587223373 0 0
          -1186.6813012818616 3620.68669554214 0 -512.8620277358921 0 0
          -1183.4718232615032 3613.67593597106 0 -513.1543892493457 0 0
          -1183.9411463250842 3614.7157725446295 0 -512.6957394498821 0 0
          -1183.4293662918153 3612.1362207071306 0 -511.39832768314875 0 0
          -1185.833005500437 3617.5292477917583 0 -509.0930302782035 0 0
          -1181.7130926108673 3609.3819914921496 0 -511.04615255001715 0 0
          -1186.861584862374 3621.4374175192647 0 -516.1849745369558 0 0
          -1187.5883252137626 3623.598472954498 0 -516.3773105158192 0 0
          -1185.4502887962399 3619.361040979978 0 -518.831750798632 0 0
          -1185.2918784484668 3618.8015406188406 0 -519.6248835424669 0 0
          -1184.0621762768342 3616.4626589317654 0 -519.9934217079523 0 0
          -1186.6443340162714 3622.3685699432035 0 -521.663693832869 0 0
          -1184.7574352727263 3617.60003438187 0 -518.5704859065826 0 0
          -1184.5085958520017 3616.6801482383153 0 -519.6114153919084 0 0
          -1183.2421891461504 3614.527210404479 0 -519.497427075432 0 0
          -1185.8070630212092 3620.26895141552 0 -521.7758833799926 0 0
          -1184.8788992279956 3617.1371794243587 0 -515.0502972206992 0 0
          -1184.6933130905898 3616.0397358457076 0 -513.7696984419641 0 0
          -1185.8888965619267 3618.53492724165 0 -512.7177102288896 0 0
          -1183.4054434612603 3614.1794238597595 0 -516.9199183385065 0 0
          -1182.9217910991201 3612.0180463304714 0 -517.0758175672403 0 0
          -1182.4037771942471 3611.913428149614 0 -515.4627426533774 0 0
          -1181.330700678728 3606.8627021686834 0 -514.5641701197142 0 0
          -1181.1387360848792 3609.4154057797195 0 -518.5552651466764 0 0
          -1179.4230339656615 3601.669964148774 0 -517.5328176018778 0 0
          -1182.5301421378672 3611.3625085238023 0 -520.0238061446971 0 0
          -1184.5994780669926 3617.8859695961273 0 -524.713477959839 0 0
          -1184.2805010045386 3616.448637033869 0 -525.5396145301999 0 0
          -1186.5463471894532 3623.9504464573606 0 -523.2279005681272 0 0
          -1187.9124999537075 3624.903829579698 0 -521.9497708373818 0 0
          -1188.4599704994898 3627.7911179164175 0 -521.1837053733507 0 0
          -1183.818102760888 3615.208725256278 0 -517.3205404425546 0 0
          -1183.4015401765264 3613.349245512087 0 -517.4652269671273 0 0
          -1182.671862099518 3612.623432147793 0 -516.4185967939935 0 0
          -1181.691876633086 3608.075327003202 0 -515.8591596715482 0 0
          -1181.4825068938003 3609.195890705041 0 -512.9736192135653 0 0
          -1182.195462725358 3611.893077683816 0 -519.9780881643054 0 0
          -1187.5632625297426 3624.0341682333046 0 -518.9504702399241 0 0
          -1186.8641595628897 3621.976580490421 0 -518.6837181359472 0 0
          -1187.3594645294725 3623.1133055575 0 -515.2609083604742 0 0
          -1186.576262343861 3621.63568941483 0 -512.2323107675057 0 0
          -1181.580663448613 3611.0400006992886 0 -526.9849392721841 0 0
          -1181.3348321893886 3609.707468463017 0 -526.4393380206552 0 0
          -1178.6998720711058 3600.4631335725167 0 -533.0693628958207 0 0
          -1184.070336479086 3619.783984972385 0 -536.5619859673208 0 0
          -1190.1618549395744 3627.09954442265 0 -538.9643491040415 0 0
          -1190.878110866482 3631.0138369735373 0 -537.7625229270487 0 0
          -1207.2985033687778 3666.6175255364838 0 -536.8932913982653 0 0
          -1189.240993419644 3629.7456135821494 0 -529.7929564496727 0 0
          -1182.7434850298564 3610.144406176295 0 -511.8151638468589 0 0
          -1184.6237548680215 3614.8723294126494 0 -509.0086986139903 0 0
          -1179.684737997281 3600.727908418925 0 -511.2778170546803 0 0
          -1181.051542049592 3606.8431971344635 0 -520.0383308890938 0 0
          -1183.5672790246836 3614.282275840852 0 -520.4816607405174 0 0
          -1185.7546039903564 3620.4818900954697 0 -524.344963516745 0 0
          -1185.748595040102 3620.525139198307 0 -524.8158523024915 0 0
          -1187.3980211776532 3625.9919206509076 0 -522.6088129395528 0 0
          -1188.5156425754421 3626.7043558173864 0 -521.4438368164451 0 0
          -1189.122941578838 3629.6542907459793 0 -520.9592918047186 0 0
          -1184.4682632863385 3614.1181742386157 0 -508.74422531478 0 0
          -1184.0522408417917 3616.3939512184543 0 -527.0401310738082 0 0
          -1184.3828315712894 3617.7622058771185 0 -526.5705302947331 0 0
          -1189.5567692040286 3630.1747874236453 0 -527.5836134519272 0 0
          -1210.661758847451 3697.8924011059844 0 -514.8847299207788 0 0
          -1188.2089408522477 3631.7282235459975 0 -500.04754550041446 0 0
          -1212.0720979688936 3675.9633742129568 0 -587.0177874212031 0 0
          -1193.5247946333548 3636.7705960266785 0 -508.65858139353463 0 0
          -1182.050372591843 3606.649416128528 0 -518.2644012184909 0 0
          -1197.1761628943027 3653.660306636614 0 -513.2382418947669 0 0
          -1184.708176049547 3602.0177173363627 0 -490.35288833486476 0 0
          -1204.0368417741406 3658.860721891865 0 -524.6690317957351 0 0
          -1181.762335767674 3623.5292186157217 0 -528.6625913303607 0 0
          -1174.7433392403098 3585.651750181848 0 -509.64356958767894 0 0
          -1193.7076511290425 3670.4811114890044 0 -556.2311041529598 0 0
          -1199.1718585823526 3651.5433437278325 0 -526.1760658713005 0 0
          -1198.5588675906529 3650.5959848252005 0 -519.6800061360033 0 0
          -1193.9959757086262 3647.1317938628586 0 -535.3140595242139 0 0
          -1194.390320054334 3642.4793224127125 0 -530.7092354510763 0 0
          -1178.477983702829 3602.6028184610595 0 -513.0631482594179 0 0
          -1166.8222370141639 3543.5857708938574 0 -513.2249609370792 0 0
          -1179.375020908475 3601.895530539765 0 -513.7116043941955 0 0
          -1177.3945666511163 3590.6804935009063 0 -530.339545245217 0 0
          -1180.7206737559113 3601.715431090316 0 -502.16479438501733 0 0
          -1194.7305076954767 3644.9290491787497 0 -513.7726456541315 0 0
          -1192.4452141590837 3632.556788315248 0 -514.7802112949371 0 0
          -1193.7567210299007 3636.020833640935 0 -496.00293748696924 0 0
          -1188.0339353870777 3625.2591378443776 0 -515.8822512294727 0 0
          -1187.50580277964 3624.4642061201866 0 -512.9731964616182 0 0
          -1190.9076151189765 3633.8706442422117 0 -515.7205507247921 0 0
          -1180.1135516961763 3601.8409121284 0 -508.89280365160175 0 0
          -1185.9921629601274 3618.1717410844694 0 -508.587518551128 0 0
          -1187.9803432978451 3625.8675615026095 0 -519.9271864978715 0 0
          -1187.353908650768 3624.0938035853906 0 -520.1541682750743 0 0
          -1187.8389058707003 3623.0455104939047 0 -513.7596607686813 0 0
          -1188.3240248913019 3626.110881566591 0 -515.3287459829384 0 0
          -1189.8530913186223 3633.621721316431 0 -526.0116974719396 0 0
          -1190.426670949324 3634.605884017656 0 -523.8687505858369 0 0
          -1182.606717506918 3608.8150119866045 0 -505.6542431999477 0 0
          -1175.804843985289 3577.75832566066 0 -495.27278631106475 0 0
          -1175.9244931683625 3588.347238038651 0 -515.3617762377809 0 0
          -1181.9841939892844 3612.2386609740097 0 -529.457089636043 0 0
          -1179.6917682049188 3605.8152516521127 0 -517.4480536942201 0 0
          -1188.337650037387 3624.418784787152 0 -506.8320939035863 0 0
          -1190.9735167831273 3635.966882600127 0 -524.170569120472 0 0
          -1190.7130034568133 3634.9514808693457 0 -522.8370597749873 0 0
          -1195.8972023964634 3643.3552529320805 0 -511.1780527739639 0 0
          -1195.3744913171681 3650.6370466438166 0 -530.1385558134361 0 0
          -1197.6277643720123 3651.985966924519 0 -523.8181066667107 0 0
          -1183.2289694250849 3611.826516448993 0 -506.7219772314998 0 0
          -1186.5053923715554 3615.0357005315336 0 -503.5468643828092 0 0
          -1190.020364206485 3627.2756346341557 0 -508.84395605953375 0 0
          -1183.9066882983716 3609.997230467284 0 -502.46498913379554 0 0
          -1188.895890198853 3627.6089035331256 0 -513.6261656463834 0 0
          -1190.171292566838 3631.2898862642833 0 -515.4793514215697 0 0
          -1193.0740667670234 3641.357783150547 0 -518.165881406845 0 0
          -1193.0602962888977 3630.3356044406337 0 -506.80832522466795 0 0
          -1195.7284734987466 3645.6937828395407 0 -517.77985002834 0 0
          -1194.1459517928838 3643.973864716711 0 -515.4114708877553 0 0
          -1190.1594014183088 3632.0566296296115 0 -514.1559247413044 0 0
          -1195.5117058596365 3646.9541561105043 0 -522.4584629925449 0 0
          -1193.9233641238166 3644.9869923835495 0 -524.7855554630443 0 0
          -1196.5872788559323 3648.8080996350327 0 -521.9800425049444 0 0
          -1190.977345579508 3635.2789546582007 0 -517.0992899640308 0 0
          -1190.934941865506 3627.3163155129428 0 -507.3482279936644 0 0
          -1188.63258672758 3625.690080370504 0 -514.5363505951442 0 0
          -1189.2133944134712 3628.934896943075 0 -515.9304502439221 0 0
          -1189.784465398037 3631.6711552886413 0 -522.227235170352 0 0
          -1193.206625443302 3643.2957448219836 0 -522.4676421770216 0 0
          -1189.0702737824286 3629.636175265055 0 -530.4774942563864 0 0
          -1193.1462259878817 3635.61803768704 0 -523.8785885804508 0 0
          -1183.0286643151578 3607.954396584287 0 -514.3504465715492 0 0
          -1193.9185803705936 3646.261740003134 0 -524.8235992762867 0 0
          -1189.2620923045706 3630.579475671825 0 -522.9793531598019 0 0
          -1192.051841155715 3634.6793414763897 0 -528.1867744591926 0 0
          -1197.681152620863 3650.952359763166 0 -519.9391021151763 0 0
          -1189.6404023917353 3624.5103273635787 0 -507.5753348462725 0 0
          -1195.3216778642832 3639.8123456447893 0 -509.3788773982134 0 0
          -1191.5161713016669 3637.4487948127608 0 -517.532807202188 0 0
          -1191.6366688012886 3635.5982216718076 0 -514.9988928107932 0 0
          -1191.2704968609928 3636.1168884745384 0 -523.8053234488665 0 0
          -1191.4588372842763 3636.0388987861834 0 -526.5279576401828 0 0
          -1192.4763815848173 3633.20451670202 0 -534.3778731663796 0 0
          -1187.4986766610632 3623.8346896060307 0 -506.1588099629376 0 0
          -1768.3233147318933 6258.811139557414 0 -968.2462971951414 0 0
          -1774.686757143096 6218.763325993364 0 -825.0246422081124 0 0
          -1280.321292541472 4165.928582210128 0 -596.0503672439913 0 0
          -1171.9758273890484 4036.711600135456 0 -563.9230927343666 0 0
          -984.2539352288213 2592.249217758641 0 -131.69940332600734 0 0
          -878.772561787109 2181.2765262992343 0 -191.91820786405694 0 0
          -1108.4427888431474 3248.799437499031 0 -384.8265391825327 0 0
          -1002.9614154014323 2837.8267460396214 0 -445.0453437205883 0 0
          -1155.4231316692176 3721.569869572051 0 -532.6014382540151 0 0
          -1332.6950900475608 3586.0333677999274 0 469.68119230216035 0 0
          -1305.446446830911 3806.1028798581697 0 -335.53057926478715 0 0
          -1299.704469390208 4007.622388306702 0 -556.6437918295144 0 0
          -1260.5899010225635 3695.210172287253 0 -1621.937861901619 0 0
          -1148.8176709890981 3689.386385979351 0 -539.6199288400175 0 0
          -1292.253334966332 3814.7367164859634 0 -842.0583023721072 0 0
          -1296.4205455720105 3975.718562298082 0 -668.1539113354129 0 0
          -842.6327457883265 2028.8785946273126 0 -298.20643270252475 0 0
          -952.3159737704336 2528.552577260358 0 -510.74185057081763 0 0
          -1120.281245252277 3309.1330267141047 0 -493.0831690630629 0 0
          -1010.5980172701691 2809.4590440810553 0 -280.5477511947701 0 0
          <InformationKey name="L2_NORM_RANGE" location="vtkDataArray" length="2">
            <Value index="0">
              2217.048798
            </Value>
            <Value index="1">
              6575.4988494
            </Value>
          </InformationKey>
        </DataArray>
        <DataArray type="Float64" Name="Damage" format="ascii" RangeMin="0" RangeMax="1.1102230246251568e-16">
          0 0 0 0 0 0
          0 0 0 0 0 0
          0 0 0 0 0 0
          0 0 0 0 0 0
          0 0 0 0 0 0
          0 0 0 0 0 0
          0 0 0 0 0 0
          0 0 0 0 0 0
          0 0 0 0 0 0
          0 0 0 0 0 0
          0 0 0 0 0 0
          0 0 0 0 0 0
          0 0 0 0 0 0
          0 0 0 0 0 0
          0 0 0 0 0 0
          0 0 0 0 0 0
          0 0 0 0 0 0
          0 0 0 0 0 0
          0 0 0 0 0 0
          0 0 0 0 0 0
          0 0 0 0 0 0
          0 0 0 0 0 0
          0 0 0 0 0 0
          0 0 0 0 0 0
          0 0 0 0 0 0
          0 0 0 0 0 0
          0 0 0 0 0 0
          0 0 0 0 0 0
          0 0 0 0 0 0
          0 0 0 0 0 0
          0 0 0 0 0 0
          0 0 1.1102230246251568e-16 0 0 0
          1.1102230246251568e-16 0 0 0 1.1102230246251568e-16 0
          0 0 1.1102230246251568e-16 0 0 0
          1.1102230246251568e-16 0 0 0
        </DataArray>
        <DataArray type="Float64" Name="Tau" format="ascii" RangeMin="10000" RangeMax="10000">
          10000 10000 10000 10000 10000 10000
          10000 10000 10000 10000 10000 10000
          10000 10000 10000 10000 10000 10000
          10000 10000 10000 10000 10000 10000
          10000 10000 10000 10000 10000 10000
          10000 10000 10000 10000 10000 10000
          10000 10000 10000 10000 10000 10000
          10000 10000 10000 10000 10000 10000
          10000 10000 10000 10000 10000 10000
          10000 10000 10000 10000 10000 10000
          10000 10000 10000 10000 10000 10000
          10000 10000 10000 10000 10000 10000
          10000 10000 10000 10000 10000 10000
          10000 10000 10000 10000 10000 10000
          10000 10000 10000 10000 10000 10000
          10000 10000 10000 10000 10000 10000
          10000 10000 10000 10000 10000 10000
          10000 10000 10000 10000 10000 10000
          10000 10000 10000 10000 10000 10000
          10000 10000 10000 10000 10000 10000
          10000 10000 10000 10000 10000 10000
          10000 10000 10000 10000 10000 10000
          10000 10000 10000 10000 10000 10000
          10000 10000 10000 10000 10000 10000
          10000 10000 10000 10000 10000 10000
          10000 10000 10000 10000 10000 10000
          10000 10000 10000 10000 10000 10000
          10000 10000 10000 10000 10000 10000
          10000 10000 10000 10000 10000 10000
          10000 10000 10000 10000 10000 10000
          10000 10000 10000 10000 10000 10000
          10000 10000 10000 10000 10000 10000
          10000 10000 10000 10000 10000 10000
          10000 10000 10000 10000 10000 10000
          10000 10000 10000 10000
        </DataArray>
        <DataArray type="Float64" Name="ComparisonRatio" format="ascii" RangeMin="0.23303526383363904" RangeMax="0.29738342827819086">