<?xml version="1.0"?>
<VTKFile type="UnstructuredGrid" version="0.1" byte_order="LittleEndian" header_type="UInt32" compressor="vtkZLibDataCompressor">
  <UnstructuredGrid>
    <Piece NumberOfPoints="153" NumberOfCells="238">
      <PointData>
        <DataArray type="Float64" Name="proc" format="ascii" RangeMin="0" RangeMax="0">
          0 0 0 0 0 0
          0 0 0 0 0 0
          0 0 0 0 0 0
          0 0 0 0 0 0
          0 0 0 0 0 0
          0 0 0 0 0 0
          0 0 0 0 0 0
          0 0 0 0 0 0
          0 0 0 0 0 0
          0 0 0 0 0 0
          0 0 0 0 0 0
          0 0 0 0 0 0
          0 0 0 0 0 0
          0 0 0 0 0 0
          0 0 0 0 0 0
          0 0 0 0 0 0
          0 0 0 0 0 0
          0 0 0 0 0 0
          0 0 0 0 0 0
          0 0 0 0 0 0
          0 0 0 0 0 0
          0 0 0 0 0 0
          0 0 0 0 0 0
          0 0 0 0 0 0
          0 0 0 0 0 0
          0 0 0
        </DataArray>
        <DataArray type="Float64" Name="Displacement" NumberOfComponents="3" format="ascii" RangeMin="0" RangeMax="0.015335548375584596">
          -0.0031903247123063407 0 0 -0.002732856392546343 0 0
          -0.003189687716318862 0.0011498471016939914 0 -0.002504173706674031 0.000969461880739403 0
          -0.0022767952404454386 0 0 -0.0027529170073652062 0.0019232050364162397 0
          -0.0031890179976846273 0.0023013080686089572 0 -0.0020490483920258575 0.0009677947011216955 0
          -0.0022753487516105433 0.0019368116919958466 0 -0.0026434803684760085 0.002892424736601184 0
          -0.0018221683986184448 0 0 -0.0031895997824747937 0.0034555038369687456 0
          -0.0018215571424273155 0.0019338584159617296 0 -0.0015951647556263408 0.0009670914866015999 0
          -0.0020468239814371244 0.0029012840590792958 0 -0.0027714131199341966 0.003858340840925063 0
          -0.001368148323464368 0 0 -0.002289796327490808 0.003864211387844388 0
          -0.003193966399563201 0.004614194890979244 0 -0.0013900033614250174 0.001916245639719424 0
          -0.0015820726772420727 0.002942660384492088 0 -0.0011412630536519407 0.0009678163056363086 0
          -0.0027800667416353567 0.005183280704672126 0 -0.001812989985335072 0.004193988156291933 0
          -0.0009135054787087614 0 0 -0.002254216172563424 0.005180436505085907 0
          -0.0011068535100792788 0.0027954515427090565 0 -0.0009149323113725411 0.0019368382181700673 0
          -0.0032082753731975198 0.005776224474681034 0 -0.0013125355096580281 0.0039202756273512334 0
          -0.0006861172161006872 0.0009694764407367793 0 -0.0026963925883507966 0.006125816758939126 0
          -0.0004574386106766637 0 0 -0.001822442706275985 0.005624218637274623 0
          -0.0008828467050099257 0.0037743457523341283 0 -0.0014096316673952547 0.005134081319590055 0
          -0.0022216326659560697 0.006299487312993533 0 -0.000437371084980858 0.001923207077252265 0
          -0.0005411221094698603 0.002879660626618707 0 -0.0010824335530134842 0.0047519581088405075 0
          -0.003232061587624564 0.006930775092783758 0 -0.002708486068199331 0.0072548851151997 0
          0 0 0 -0.0017662416171379393 0.006614095095270816 0
          -6.151733215054154e-7 0.0011498605336325806 0 -0.0004332181584461813 0.003966549335835353 0
          -0.0013840406598386247 0.006324702425395981 0 -0.0010198884601732637 0.005802877860527635 0
          -0.0000012906172380030034 0.0023012824265475408 0 -0.0006352753866801287 0.0051693881240543 0
          -0.00215703504142045 0.007595355798424094 0 -0.003232620382892841 0.008072232154091212 0
          -0.0014984585321186172 0.006885973462336626 0 -0.0018772411504140644 0.00749524496407198 0
          -8.974317582485386e-7 0.003455561331432906 0 -0.0026792310785677285 0.008485576130498034 0
          -0.0015011522940353585 0.00810825464628733 0 -0.0008236006395361751 0.006820056842212438 0
          -0.0005604022881433299 0.006294864097244668 0 -0.0011743321044417254 0.007499598152286508 0
          0.000004273696283026537 0.004615005133457068 0 -0.0017669078028773604 0.008391517465523572 0
          -0.0021439727027858253 0.008916987253840842 0 -0.0032122361247202322 0.009223224445069157 0
          0.000019870710576160193 0.0057757672182767155 0 -0.001313449129921909 0.008569191169598341 0
          -0.0007772456522128581 0.007932458324774181 0 -0.00038278890040357896 0.007294345012400641 0
          -0.0026084372566407095 0.009882481859880738 0 -0.0017146497258518937 0.00941936628272606 0
          0.000037963743922729356 0.006928265702720567 0 -0.002101015939873959 0.01003430873726981 0
          -0.0031944265320415725 0.010384780885339083 0 -0.00127758279062143 0.009560553942822465 0
          -0.0008344062404933863 0.009061893714490486 0 -0.0003852852642806379 0.00854052179476612 0
          -0.0015310771543023667 0.010263458825035359 0 0.000037052943115344756 0.008072696225981214 0
          -0.0027724764958870474 0.011166888897391408 0 -0.002291822860912782 0.011184249571905912 0
          -0.0008885209153152531 0.010187490983155734 0 -0.0031893591037679405 0.011544696804499661 0
          -0.0018463741672169066 0.011173885552851204 0 -0.00043440440579787447 0.009670571839401058 0
          0.000019371828622687204 0.009224994757303276 0 -0.0013513729874623142 0.01115441753186679 0
          -0.0026463448142523653 0.01212721112345629 0 -0.0008782889565779154 0.011156279835445856 0
          -0.0020633624761231127 0.012160950951241515 0 -0.00045697288216190086 0.010844223534680057 0
          -0.001591709759587969 0.012110399004860755 0 -0.0031891250514566333 0.012698886066611629 0
          0.000003997793988721193 0.010385831253362888 0 -0.0011196491254885556 0.012122313374799416 0
          -0.002753078026319273 0.013076892494878162 0 -0.0022755623399321294 0.0130631340729577 0
          -0.0018004364346902542 0.013083588604007934 0 -0.0005316277661061821 0.012124502957404675 0
          -0.0013686788822039552 0.013065929106886993 0 -0.0000010321289432925627 0.011544839503504968 0
          -0.0031898375124620273 0.013850224359952812 0 -0.002504335517715937 0.014030538579485555 0
          -0.0008934295041069939 0.013080498378817779 0 -0.0020491559138315664 0.014032136617496579 0
          -0.001595155366336532 0.014032823078987372 0 -0.0004200241058049546 0.013113922331247405 0
          -0.0000011253310066526716 0.012698976039209966 0 -0.0011411492113736087 0.014032119088754139 0
          -0.0031904614054859446 0.015 0 -0.002733012095286644 0.015 0
          -0.0022769228589744027 0.015 0 -0.0006859402148694615 0.014030511408147405 0
          -0.0018222124754614696 0.015 0 -0.0013680911703751605 0.015 0
          -4.210431852309072e-7 0.013850213340794768 0 -0.0009133629836213684 0.015 0
          -0.0004572578040138137 0.015 0 1.593743005072167e-7 0.015 0
          -0.0016468741529899063 0.006730552192120879 0 -0.001575141138488282 0.006469398760333399 0
          -0.001464998944392889 0.00666398496831605 0 -0.0012791863821401748 0.006912150288841244 0
          -0.0014532893370583313 0.007498246530402848 0 -0.0013108328606248165 0.007305554453627328 0
          -0.0013095310139691742 0.007691754301256209 0 -0.001426996343043949 0.008269244044872196 0
          -0.001647755546723701 0.00826526043710074 0 -0.001243890617181817 0.008034394660942424 0
          -0.0015401784663996345 0.008480354317560956 0 -0.0018217413837760016 0.007054670029671397 0
          -0.0017316795656698745 0.006818897808715658 0 -0.001732835917795129 0.00817548084634779 0
          -0.0018220744766457124 0.007943381214797776 0 -0.0017065578850639228 0.0066723236436958475 0
          -0.0016110076457390944 0.0065999754762271386 0 -0.0015726663425542618 0.006808262827228752 0
          -0.0015559365486913978 0.0066972685802184646 0 -0.0016706913778131104 0.006541746927802107 0
          -0.001497579601510349 0.006814229762365297 0 -0.0013879159025088528 0.0069847697109716896 0
          -0.0014545690803196114 0.007246542633976753 0 -0.001382061098841574 0.007401900492015088 0
          -0.0014555859624577608 0.007749988502851688 0 -0.0013814101755137529 0.007595000415829528 0
          -0.0013998648396799224 0.007178060761405319 0 -0.0014004565891996457 0.00781667421965812 0
          -0.0013682636785065615 0.007980499173064204 0 -0.0014790278881004343 0.008142400034337244 0
          -0.001537375944883825 0.008267252240986468 0 -0.0015744539203795297 0.008186757541694034 0
          -0.0017073316748005306 0.008328388951312157 0 -0.0015939670065616678 0.008372807377330848 0
          -0.0016535431346384976 0.008435935891542266 0
          <InformationKey name="L2_NORM_RANGE" location="vtkDataArray" length="2">
            <Value index="0">
              0
            </Value>
            <Value index="1">
              0.015335548376
            </Value>
          </InformationKey>
        </DataArray>
        <DataArray type="Float64" Name="Pressure" format="ascii" RangeMin="-3003.6032373412754" RangeMax="-949.7792467067604">
          -1780.0359058648523 -1779.2705285010024 -1780.82291650244 -1779.2714934849494 -1778.909013525845 -1780.8695165669933
          -1783.759593296439 -1778.4254017625676 -1778.5846121767067 -1781.33050209548 -1778.4263808521728 -1788.5677751297596
          -1777.1921928882562 -1778.023070947044 -1775.545320025236 -1785.9241474545615 -1778.4292696974971 -1776.3088679012203
          -1791.5681778919088 -1777.1297864563323 -1773.9650154417373 -1778.423140561576 -1786.661641939882 -1764.9138090367678
          -1778.9035748796384 -1771.0746667185367 -1776.3407771927507 -1778.651606310434 -1788.4427527961138 -1769.2508594431783
          -1779.2787981208069 -1791.167702802455 -1779.240553401131 -1737.639543017424 -1777.2825028279613 -1746.3737122627963
          -1790.957691626971 -1780.884827738801 -1781.5486976107877 -1767.1111628634335 -1787.555706282401 -1811.8474967315235
          -1779.9356358839373 -1770.0283779906522 -1780.7481956743336 -1785.302458863028 -1746.1360566525432 -1765.5209698906683
          -1783.8534143325805 -1783.7462967922054 -1887.342199326177 -1783.672679338998 -1039.806314556659 -1949.3516231347126
          -1788.663995672762 -1798.9054113881248 -1027.2987561188768 -1827.8943849213856 -1796.003484558665 -1913.5018692961632
          -1789.8300003720067 -1749.8099375590173 -1774.4768781142993 -1788.1151945541806 -1789.775295731371 -1762.1036797143918
          -1833.1517924063728 -1798.46813262238 -1781.9845302644135 -1726.7430286130807 -1785.6096213190149 -1765.0145014657826
          -1789.4065071283658 -1750.150311793395 -1779.1554250439456 -1794.8077193334116 -1755.1659453523957 -1782.881664215659
          -1785.0237361591678 -1776.2468593410536 -1773.351316336345 -1788.783568912797 -1770.4367522111875 -1786.5925450653654
          -1789.5068788779367 -1768.7719707380238 -1781.3459389116206 -1777.4996826099223 -1776.0781170610387 -1784.5127897026775
          -1774.3695771516213 -1783.7829182615324 -1791.2533889039703 -1776.0989867290778 -1780.793098241032 -1778.578573228238
          -1777.1164824371983 -1781.8316641847096 -1777.140486258102 -1787.9052123041308 -1780.7021249697514 -1779.1956770159668
          -1778.6553924753475 -1778.3760923768843 -1777.9640138974482 -1780.824977111416 -1783.8381204687053 -1778.3820632791294
          -1779.920979877832 -1779.1824130935972 -1778.847550770744 -1779.2004784072533 -1778.3714489891072 -1778.3776585670353
          -1780.5823708536668 -1778.8389435833983 -1779.1366229839402 -1779.787081778253 -953.1232810006142 -1758.0822173215977
          -1641.5784501338417 -1829.8189629743533 -2919.308030597397 -2140.5338872388897 -2170.3019698223525 -1716.6720563612644
          -949.7792467067604 -1837.8027745052775 -1755.9568086367046 -1859.6900005626824 -972.1987296506386 -985.286145504017
          -1849.5807803468651 -1361.5758294956331 -1355.602749161106 -996.4647977786366 -1297.3508655672279 -1764.0552976561248
          -1355.3298857617197 -1891.0561686863655 -3003.6032373412754 -2529.9209589181437 -2962.186799347821 -2544.805000209875
          -2242.2556439543373 -2305.3793962955147 -1943.4870130918084 -1457.922575148285 -1333.2256515340123 -988.5390014128186
          -1349.794592132889 -1352.8680276717325 -1752.8833730978608
        </DataArray>
      </PointData>
      <CellData>
        <DataArray type="UInt8" Name="vtkGhostType" format="ascii" RangeMin="0" RangeMax="0">
          0 0 0 0 0 0
          0 0 0 0 0 0
          0 0 0 0 0 0
          0 0 0 0 0 0
          0 0 0 0 0 0
          0 0 0 0 0 0
          0 0 0 0 0 0
          0 0 0 0 0 0
          0 0 0 0 0 0
          0 0 0 0 0 0
          0 0 0 0 0 0
          0 0 0 0 0 0
          0 0 0 0 0 0
          0 0 0 0 0 0
          0 0 0 0 0 0
          0 0 0 0 0 0
          0 0 0 0 0 0
          0 0 0 0 0 0
          0 0 0 0 0 0
          0 0 0 0 0 0
          0 0 0 0 0 0
          0 0 0 0 0 0
          0 0 0 0 0 0
          0 0 0 0 0 0
          0 0 0 0 0 0
          0 0 0 0 0 0
          0 0 0 0 0 0
          0 0 0 0 0 0
          0 0 0 0 0 0
          0 0 0 0 0 0
          0 0 0 0 0 0
          0 0 0 0 0 0
          0 0 0 0 0 0
          0 0 0 0 0 0
          0 0 0 0 0 0
          0 0 0 0 0 0
          0 0 0 0 0 0
          0 0 0 0 0 0
          0 0 0 0 0 0
          0 0 0 0
        </DataArray>
        <DataArray type="Float64" Name="Stress" NumberOfComponents="6" format="ascii" RangeMin="2759.2056142282268" RangeMax="11840.331202875157">
          -1852.773074837381 6124.48817827084 0 -487.8290141159242 0 0
          -1758.481599650303 6108.433311418585 0 -1292.7811275685892 0 0
          -1676.1594830388676 5092.18007699782 0 -746.7260986988884 0 0
          -1868.766637444793 5824.583458185729 0 -890.7602431926958 0 0
          -1907.9529866803728 5770.255442913258 0 -1062.8544416058737 0 0
          -1725.1693571976496 5258.373945939192 0 -744.558998974784 0 0
          -1835.1440625583014 5538.241844210106 0 -705.3939423601084 0 0
          -1827.0495657170081 5580.813001273463 0 -742.4140481933242 0 0
          -1755.0067292885817 5174.404810873945 0 -531.7981819651287 0 0
          -1742.1042863481982 5411.329194467261 0 -756.0496903331699 0 0
          -1717.708015496409 5151.492041954035 0 -912.9123850134835 0 0
          -1779.2607544526147 5429.820509357445 0 -776.9336378519021 0 0
          -1771.1371588798584 5409.100870972073 0 -771.6898505221722 0 0
          -1775.4025586160035 5420.355372638541 0 -775.853081985886 0 0
          -1775.459996397764 5419.893166605317 0 -772.760699157608 0 0
          -1771.186347291783 5409.662028288556 0 -773.8544286732224 0 0
          -1779.3037473158906 5429.309753984282 0 -774.3265205622943 0 0
          -1769.618327681039 5405.401972034511 0 -772.1919792937548 0 0
          -1775.3807129168686 5420.393090675579 0 -775.8884175755196 0 0
          -1775.3540784538545 5419.671131556503 0 -772.673833893639 0 0
          -1771.3534182876988 5410.002332040951 0 -773.8443709730158 0 0
          -1779.1616582901581 5428.994536707316 0 -774.3959924909674 0 0
          -1769.3537851673377 5404.808197941855 0 -772.1305930472687 0 0
          -1779.2110103772816 5429.521771446682 0 -776.9086092558107 0 0
          -1771.4018153692357 5409.7078131661865 0 -771.8034349150927 0 0
          -1750.7550614998004 5304.035682550874 0 -879.6339397319317 0 0
          -1755.079721097924 5411.050665956525 0 -753.1654616213812 0 0
          -1794.4035974836916 5473.888836309765 0 -775.5373268048835 0 0
          -1771.5240285512068 5325.529609410341 0 -662.3560448027079 0 0
          -1795.8622116016672 5465.395792406431 0 -712.9011153301751 0 0
          -1775.3118129483657 5439.748192376554 0 -843.6524308743031 0 0
          -1745.0585488934332 5338.678618187609 0 -765.4780992555242 0 0
          -1823.0980937808467 5518.971041709469 0 -812.8779463004045 0 0
          -1879.2626457734118 5812.70490810931 0 -830.3907744193199 0 0
          -1812.7230429130077 5546.99914642073 0 -829.3752118459595 0 0
          -1905.3406986643072 5733.013382552026 0 -623.8484091945811 0 0
          -1695.7765987728349 5120.535972704265 0 -649.1142362889183 0 0
          -1772.8516820556663 5413.355055151807 0 -769.2594680588121 0 0
          -1772.4126154993357 5410.774859486876 0 -766.3106650109813 0 0
          -1769.7584690570786 5406.43695852739 0 -770.667119458905 0 0
          -1768.7881088261825 5401.678994478097 0 -768.8721311127532 0 0
          -1769.4561895773468 5405.793033292443 0 -770.5753164908698 0 0
          -1768.441857352599 5400.8188676723485 0 -768.6960188180143 0 0
          -1775.4086583923327 5417.303020105972 0 -763.8117003757731 0 0
          -1769.8277375509992 5405.672057342302 0 -764.6708803558446 0 0
          -1769.3869995568975 5404.775301607596 0 -764.2469524558893 0 0
          -1767.8160939403733 5396.934406107688 0 -760.6496689309093 0 0
          -1772.8190993239664 5408.8710439438 0 -754.4785022982529 0 0
          -1763.6432134878917 5392.066338572514 0 -762.0992718728106 0 0
          -1777.6266018456347 5423.947511053453 0 -772.2397188669767 0 0
          -1777.6243492977803 5423.928484394426 0 -772.110523608901 0 0
          -1772.9813168360272 5415.263219279919 0 -777.5184139230859 0 0
          -1772.5321254050996 5413.662745317919 0 -779.6977165474572 0 0
          -1769.6534702442893 5408.5267382676375 0 -779.9059512500259 0 0
          -1775.302989105183 5421.197354297423 0 -784.1605287169593 0 0
          -1772.9083678111813 5415.159126222705 0 -777.6551813630309 0 0
          -1772.4597837663127 5413.587501298443 0 -779.9649617587573 0 0
          -1769.511080620536 5408.276828020054 0 -780.274157482709 0 0
          -1775.3973060204808 5421.431736335926 0 -784.5151956795983 0 0
          -1773.0581346666095 5413.814067155359 0 -769.4623283336745 0 0
          -1772.7227922170225 5411.738178210852 0 -766.683979135103 0 0
          -1775.5572321606703 5417.519280773118 0 -764.4747103240079 0 0
          -1769.4984204473171 5406.583309475309 0 -774.106154221617 0 0
          -1768.4501070115855 5401.930337883967 0 -774.6030674748234 0 0
          -1766.730366862374 5400.5402629757245 0 -771.4571555110025 0 0
          -1764.2575029206791 5389.035252722435 0 -769.9301409312037 0 0
          -1764.5991231705325 5396.4342191208725 0 -779.806433421492 0 0
          -1761.4902942283752 5382.910676878321 0 -778.9046256187927 0 0
          -1768.2584654877942 5402.817357814808 0 -781.8876041383435 0 0
          -1772.9703713518834 5416.6867653292375 0 -791.2869961649711 0 0
          -1772.7177255701276 5415.614363671033 0 -793.4980813591068 0 0
          -1777.1175753322889 5429.951094519911 0 -787.6992034204642 0 0
          -1780.0418895215726 5431.772278673199 0 -784.5365384855951 0 0
          -1781.08397592935 5437.4787712793795 0 -782.7741020400487 0 0
          -1769.7406103588116 5407.06801545206 0 -774.0706470831989 0 0
          -1768.7269628183576 5402.543967227474 0 -774.4264168772278 0 0
          -1767.216780562628 5401.436517589113 0 -771.4239319440225 0 0
          -1764.9023941459118 5390.612001815885 0 -769.764554199338 0 0
          -1764.881191380166 5394.2944036647 0 -762.5374642672344 0 0
          -1764.9545104707852 5397.293572656936 0 -778.4962170689197 0 0
          -1777.5865227144707 5424.910414506205 0 -777.6257320320411 0 0
          -1777.622444566202 5425.098082391083 0 -777.7451085041888 0 0
          -1778.7393618939134 5427.8094703529 0 -770.4147753802724 0 0
          -1777.2422166359424 5425.157433571008 0 -763.6288847309348 0 0
          -1766.741998972426 5402.993663765029 0 -797.9733730770457 0 0
          -1767.0269981970582 5404.359952551193 0 -798.29849574566 0 0
          -1760.9579532667983 5382.208341218841 0 -814.9508174014353 0 0
          -1773.1714124634077 5428.140100854833 0 -824.8684593238012 0 0
          -1785.9911643824637 5443.412252075753 0 -821.8751014069926 0 0
          -1786.1559705418488 5445.89003492904 0 -819.3920723437026 0 0
          -1817.699059982354 5515.798365499399 0 -817.3387689534992 0 0
          -1782.813466170829 5442.032224386258 0 -801.4878205977112 0 0
          -1768.4309665170517 5398.797598508122 0 -761.4529500911782 0 0
          -1773.035598046022 5409.740088733524 0 -755.8113053641081 0 0
          -1760.8586165208867 5375.183330041509 0 -757.7349432404898 0 0
          -1761.760212576328 5382.921993815264 0 -777.8425637193717 0 0
          -1768.1939631777714 5402.053333233238 0 -781.0702411908331 0 0
          -1772.56671380376 5415.865775415271 0 -790.5881521363059 0 0
          -1771.8781898974275 5413.002648372703 0 -792.4505258746045 0 0
          -1776.9433771410288 5429.369740778191 0 -787.397119476566 0 0
          -1779.897654824535 5431.29498367107 0 -784.3977461504193 0 0
          -1780.971013359873 5437.091566868725 0 -782.6996351297687 0 0
          -1773.3395312534046 5411.033227364218 0 -755.3105755435457 0 0
          -1766.6995802831073 5402.741442800576 0 -794.7316005868998 0 0
          -1765.4774806112248 5397.211383483087 0 -794.5924031987485 0 0
          -1781.2268327561355 5438.282430888345 0 -800.8988278763646 0 0
          -1825.7115344533809 5580.202359346306 0 -777.5749074231243 0 0
          -1783.8825786334062 5454.251547154102 0 -747.3338634922445 0 0
          -1829.3694495255622 5539.456080382988 0 -916.2245257535435 0 0
          -1793.2183606530389 5463.351440165637 0 -761.6965908002111 0 0
          -1771.9967795313355 5406.45055481981 0 -778.1557311137182 0 0
          -1799.2311637691705 5491.983326589268 0 -769.9971091589626 0 0
          -1761.742002532775 5342.175858743423 0 -696.7820690281038 0 0
          -1811.0277674212216 5498.559050513303 0 -786.0066351763618 0 0
          -1772.7726936978522 5439.611805239613 0 -794.9251487247535 0 0
          -1750.1619988510533 5349.485689153138 0 -768.5817094541163 0 0
          -1805.908180423036 5583.587716581935 0 -878.2292064600693 0 0
          -1814.4131688572438 5510.493163728472 0 -788.9607444044785 0 0
          -1806.1422691362145 5480.821578627045 0 -759.1401298379943 0 0
          -1797.8051938241183 5496.994474036761 0 -822.3031922945894 0 0
          -1789.0426455875154 5453.56680067191 0 -819.4926119507737 0 0
          -1756.9891000636385 5378.441630401932 0 -772.0458143295366 0 0
          -1739.4830473320555 5293.722175157676 0 -727.2085705604522 0 0
          -1752.4923203668236 5352.817276362963 0 -733.8071753958568 0 0
          -1741.657161603714 5305.543823730077 0 -795.1174583743456 0 0
          -1764.0863445483951 5377.491121719419 0 -732.9508708481279 0 0
          -1797.6012840373496 5485.022875813642 0 -768.4443291239073 0 0
          -1793.378243147577 5457.374036421412 0 -769.5765624916932 0 0
          -1792.8547170652882 5455.977152756985 0 -727.609396900393 0 0
          -1778.7200620683452 5427.703665282184 0 -770.2565245294153 0 0
          -1777.2177153146663 5425.4178816491485 0 -762.9493902908222 0 0
          -1785.3140501790663 5447.437364061068 0 -769.3000754159551 0 0
          -1759.1444614489465 5370.969412333616 0 -757.3313525957539 0 0
          -1772.4656171045963 5406.798804890692 0 -751.656447351998 0 0
          -1778.627375761733 5429.418658499564 0 -780.6731953355765 0 0
          -1778.6903894219909 5429.7325377734805 0 -780.7911695226825 0 0
          -1779.9815222721484 5428.142960216549 0 -767.3979328277745 0 0
          -1780.9031477819622 5434.343484768354 0 -770.7745095656804 0 0
          -1784.6262639529282 5452.2928912549505 0 -794.7510917602041 0 0
          -1785.173807343569 5451.285344697271 0 -788.1569205230047 0 0
          -1768.584276083272 5395.468211280862 0 -744.9574463729783 0 0
          -1759.267464798248 5352.322238352921 0 -720.4261055331775 0 0
          -1750.6079877909904 5342.839805495582 0 -763.2357318594924 0 0
          -1758.9921880067334 5386.444951249831 0 -793.9705773898512 0 0
          -1759.067476614901 5382.56635196344 0 -769.9535272073687 0 0
          -1781.3584000161693 5431.593653867298 0 -752.3852793006125 0 0
          -1784.7697383885686 5453.123213677792 0 -794.2589945379494 0 0
          -1784.9016661818428 5450.746280449419 0 -788.2577295995609 0 0
          -1796.7690744366523 5471.594602418525 0 -762.1584970646767 0 0
          -1795.6263335047188 5484.665337968904 0 -798.3332202389003 0 0
          -1799.2477398821698 5485.538640240212 0 -786.8093159376459 0 0
          -1771.3355974792003 5408.479442647071 0 -747.8443667397609 0 0
          -1778.5713633135251 5416.488300478237 0 -746.3920909991845 0 0
          -1782.4393280421498 5430.439016148942 0 -750.8543580755487 0 0
          -1765.866320143997 5387.51630805978 0 -740.257975149476 0 0
          -1782.6064887666091 5438.667663030287 0 -767.4202318119812 0 0
          -1784.046116034603 5442.515033404142 0 -768.3884285969804 0 0
          -1791.1123570904952 5467.696239582948 0 -774.0434959291789 0 0
          -1789.212365209864 5431.7420479830735 0 -738.8222105183672 0 0
          -1800.2445551504156 5487.136332350956 0 -778.9499699400245 0 0
          -1792.696237790055 5469.818128434401 0 -771.1786650489406 0 0
          -1784.778601999648 5446.512616772536 0 -768.5337330932751 0 0
          -1799.4510414410975 5488.681379667234 0 -784.4689340042377 0 0
          -1795.0712037775725 5480.857596909738 0 -788.5587288871378 0 0
          -1800.3792874272776 5489.001907128644 0 -779.0691542681662 0 0
          -1786.0752710197735 5452.347249545163 0 -770.7646534361511 0 0
          -1787.7407713483713 5443.316542003375 0 -758.9734823433429 0 0
          -1780.1566949121454 5428.629705506054 0 -766.9369996328852 0 0
          -1781.1507560562372 5435.198954051639 0 -770.4430468350687 0 0
          -1782.9991911684606 5443.680615346741 0 -787.4367556698624 0 0
          -1791.893527832041 5475.121010107674 0 -789.3831058899865 0 0
          -1784.3018336719015 5446.863124627618 0 -799.0263810225807 0 0
          -1792.4835541370499 5460.725033532359 0 -787.6566420259572 0 0
          -1768.6474959623479 5392.176042646412 0 -767.8865302652954 0 0
          -1792.1450172974291 5474.2337859493655 0 -790.2155491969276 0 0
          -1783.1850268511585 5444.240648846659 0 -786.848593836272 0 0
          -1793.0111435258432 5463.7712160058345 0 -802.3094874440202 0 0
          -1799.5693451567718 5484.729661093616 0 -781.9961471762334 0 0
          -1785.981003168454 5435.567711945907 0 -751.5391138469641 0 0
          -1795.4144020262906 5463.364088917217 0 -758.0336104987251 0 0
          -1788.2367439672623 5459.386793683979 0 -775.4427993775138 0 0
          -1786.641751589326 5451.716862466302 0 -764.5159047765541 0 0
          -1786.8347928074713 5455.428902323483 0 -793.9035060518835 0 0
          -1787.7382971259526 5455.571181933894 0 -793.6508232073877 0 0
          -1786.5530909647905 5441.774820930346 0 -821.5686844468511 0 0
          -1772.1413217032102 5412.6760591005095 0 -745.0229891829041 0 0
          -1918.0326050716062 6239.173603294793 0 -888.4840512857077 0 0
          -1959.4138501527495 6286.687783340497 0 -891.561229387746 0 0
          -1618.6610230972576 4973.429792876181 0 -839.2257145680863 0 0
          -1439.7132203669062 4268.666730333029 0 -949.603135537789 0 0
          -1739.84071987658 5658.7436401469395 0 -851.9992991751675 0 0
          -2015.075691857 5807.843804266403 0 -477.08399896951727 0 0
          -2007.6831983857128 6194.340517188262 0 -889.9984036888998 0 0
          -1740.0254681768618 5636.83286081265 0 -760.6471856121958 0 0
          -2014.0066666666166 5869.4101282295405 0 -1366.6747800863077 0 0
          -2028.0567257935513 6206.911133652073 0 -1027.5512127318832 0 0
          -1672.6198349965016 5067.868833822392 0 -508.55088832171 0 0
          -1492.169552305303 4230.718602415142 0 -144.40817862988632 0 0
          -2049.8132154672253 6073.006171213156 0 2569.902553824457 0 0
          -1488.3039133766629 2748.2782112285886 0 -1880.0136218098714 0 0
          -2155.256405289527 6473.568155052944 0 -307.8665810760041 0 0
          -1202.0707031377938 2102.919083752203 0 1360.1515165025962 0 0
          -1480.9477704152914 2138.079002221746 0 1188.8553232772128 0 0
          -2062.809307153032 7573.821468844844 0 -4526.907728121885 0 0
          -2170.7306945519076 6800.485843442575 0 -1546.7606329715688 0 0
          -1200.6833670545648 2790.5669375884704 0 -2035.1206427986033 0 0
          -3009.1890948075447 11172.412028690938 0 -2513.0526151739164 0 0
          -2310.0232578655323 7991.991437095199 0 -1531.8848905687742 0 0
          -2239.2419704840495 7243.277980592166 0 -994.3763939083559 0 0
          -2050.808683596855 7102.877192383903 0 -1360.1610785611379 0 0
          -3009.960983628301 10751.123006888094 0 -634.0693387360548 0 0
          -2240.924772700046 7224.907279838651 0 -1111.02147398541 0 0
          -2323.4696692489006 7851.928261155622 0 -751.5397314903474 0 0
          -2049.9166557621047 6916.343031050539 0 -650.5795593598453 0 0
          -1401.724863542106 3838.59807840315 0 -410.69472914323535 0 0
          -1401.7248635421038 3838.5980784031462 0 -410.69472914322125 0 0
          -1401.7248635420929 3838.598078403106 0 -410.69472914323717 0 0
          -1401.7248635420983 3838.5980784031267 0 -410.6947291432319 0 0
          -1161.2731602887898 2930.4632653736044 0 -482.36451662805325 0 0
          -1572.4230759895222 4850.471237219899 0 -1084.4798443281875 0 0
          -1401.428754229271 3731.1234359255486 0 -492.1535830230879 0 0
          -1332.2674820490504 4049.811066667986 0 -1074.6907779331366 0 0
          -1988.7281361378568 5519.561055226681 0 1497.9672718039033 0 0
          -2195.318414284451 6073.444542694262 0 -137.43713630406222 0 0
          -1990.7264500991919 6119.632151320142 0 -766.7738687168309 0 0
          -2272.2457734868995 6801.106517304688 0 -634.7474891049325 0 0
          -1839.2414857246345 5836.706886841252 0 -3331.050244728767 0 0