<?xml version="1.0"?>
<VTKFile type="UnstructuredGrid" version="0.1" byte_order="LittleEndian" header_type="UInt32" compressor="vtkZLibDataCompressor">
  <UnstructuredGrid>
    <Piece NumberOfPoints="44" NumberOfCells="60">
      <PointData>
      </PointData>
      <CellData>
        <DataArray type="UInt8" Name="vtkGhostType" format="ascii" RangeMin="0" RangeMax="0">
          0 0 0 0 0 0
          0 0 0 0 0 0
          0 0 0 0 0 0
          0 0 0 0 0 0
          0 0 0 0 0 0
          0 0 0 0 0 0
          0 0 0 0 0 0
          0 0 0 0 0 0
          0 0 0 0 0 0
          0 0 0 0 0 0
        </DataArray>
        <DataArray type="Float64" Name="MOSGS" NumberOfComponents="3" format="ascii" RangeMin="0" RangeMax="0.5720769148478021">
          6.9249040148393e-310 6.9249040148393e-310 4.6537025833369e-310 0.03934298319619812 -0.004244512153676604 0
          -0.0403363136613955 0.006328790636998587 0 0.017784881424969486 -0.009059239315155255 0
          -0.08059148668835452 0.027019907074107515 0 0.0008241346481097957 -0.010763017104959896 0
          -0.0712649630053265 0.03057411341411464 0 -0.005100795446342628 -0.010022722403526939 0
          -0.050792849817434454 0.023630072284136227 0 -0.007168280611631113 -0.008827759817734994 0
          -0.03555967766595352 0.015095106875941537 0 -0.004287139062114987 -0.007970708087022816 0
          -0.026249796858469468 0.009304697306881002 0 -0.0004906754606000957 -0.0075441611046656205 0
          -0.01642008796008524 0.005942431804856254 0 0.0010878800959855592 -0.007315344134633701 0
          -0.010687132081337569 0.004352326837359206 0 0.024328188817700987 -0.008750578221647126 0
          -0.0161601209335202 0.00296610284802787 0 -0.06071579806330957 0.019846627027388666 0
          -0.07919582443174247 0.022113684613686894 0 0.060060706413799375 -0.023225872117625376 0
          -0.255271683990667 0.08862243161718973 0 0.05295073974362846 -0.016843683998320803 0
          -0.10043607108984726 0.03918846527477873 0 0.03838571945479011 -0.01335592963189755 0
          -0.007967893767101272 0.0043773970494351885 0 0.026108935480231292 -0.013344029228013327 0
          0.032256290428866366 -0.01364156678722693 0 0.019847160895371276 -0.014774198845410869 0
          0.04209976679286817 -0.020156082270163453 0 0.02086013643818964 -0.016217531076346024 0
          0.03983029829450238 -0.021392268239279557 0 0.027733663743443406 -0.017677395392485532 0
          0.03686814146235366 -0.021300640562259984 0 0.03253531778989397 -0.019240409844044903 0
          0.03732804896263421 -0.021559792684780813 0 0.03427961579821457 -0.022718053725243527 0
          0.03509967989773032 -0.02041295202946192 0 -0.025051976402922387 -0.0036635075905765407 0
          0.006698032497203601 -0.007230092282712193 0 0.03562960575683481 0.005137205395925375 0
          -0.47727517041052847 0.3154051493101855 0 -0.004564009704475421 0.012241042494591688 0
          0.2417807257389209 -0.09042135345630035 0 -0.019011462021038195 0.01745771021974061 0
          0.1583171986739422 -0.059574355314693336 0 -0.02572335885585814 0.017960231100809597 0
          0.09735840488969263 -0.035556384115294506 0 -0.02919257254749098 0.016434400728983032 0
          0.059058162106676235 -0.019278686680342518 0 -0.02842176564465834 0.015263473385551 0
          0.03684028050215974 -0.00977952999295607 0 -0.024158454139973008 0.014613096028545138 0
          0.02323852160128135 -0.004905389080146287 0 -0.022183127869711203 0.014521196605640937 0
          0.016110769436355324 -0.0027406437819136494 0 -0.029811630351890397 0.01770186521235711 0
          0.013917001584418807 -0.002041346391115322 0 -0.09359040726387798 0.04566715921729024 0
          0.011616132185392283 -0.001054210010448595 0
          <InformationKey name="L2_NORM_RANGE" location="vtkDataArray" length="2">
            <Value index="0">
              0
            </Value>
            <Value index="1">
              0.57207691485
            </Value>
          </InformationKey>
        </DataArray>
      </CellData>
      <Points>
        <DataArray type="Float32" Name="Points" NumberOfComponents="3" format="ascii" RangeMin="0" RangeMax="4.2201894765504395">
          4.099999904632568 1 0 4.099999904632568 0.6666666865348816 0
          3.690000057220459 1 0 3.690000057220459 0.6666666865348816 0
          4.099999904632568 0.3333333134651184 0 3.690000057220459 0.3333333134651184 0
          3.2799999713897705 1 0 3.2799999713897705 0.6666666865348816 0
          4.099999904632568 0 0 3.2799999713897705 0.3333333134651184 0
          3.690000057220459 0 0 2.869999885559082 1 0
          2.869999885559082 0.6666666865348816 0 3.2799999713897705 0 0
          2.869999885559082 0.3333333134651184 0 2.869999885559082 0 0
          2.4600000381469727 1 0 2.4600000381469727 0.6666666865348816 0
          2.4600000381469727 0.3333333134651184 0 2.4600000381469727 0 0
          2.049999952316284 1 0 2.049999952316284 0.6666666865348816 0
          2.049999952316284 0.3333333134651184 0 2.049999952316284 0 0
          1.6399999856948853 1 0 1.6399999856948853 0.6666666865348816 0
          1.6399999856948853 0.3333333134651184 0 1.6399999856948853 0 0
          1.2300000190734863 1 0 1.2300000190734863 0.6666666865348816 0
          1.2300000190734863 0.3333333134651184 0 1.2300000190734863 0 0
          0.8199999928474426 1 0 0.8199999928474426 0.6666666865348816 0
          0.8199999928474426 0.3333333134651184 0 0.8199999928474426 0 0
          0.4099999964237213 1 0 0.4099999964237213 0.6666666865348816 0
          0.4099999964237213 0.3333333134651184 0 0.4099999964237213 0 0
          0 1 0 0 0.6666666865348816 0
          0 0.3333333134651184 0 0 0 0
          <InformationKey name="L2_NORM_RANGE" location="vtkDataArray" length="2">
            <Value index="0">
              0
            </Value>
            <Value index="1">
              4.2201894766
            </Value>
          </InformationKey>
        </DataArray>
      </Points>
      <Cells>
        <DataArray type="Int64" Name="connectivity" format="ascii" RangeMin="0" RangeMax="43">
          39 38 43 38 42 43
          35 34 39 34 38 39
          31 30 35 30 34 35
          27 26 31 26 30 31
          23 22 27 22 26 27
          19 18 23 18 22 23
          15 14 19 14 18 19
          13 9 15 9 14 15
          10 5 13 5 9 13
          8 4 10 4 5 10
          38 37 42 37 41 42
          34 33 38 33 37 38
          30 29 34 29 33 34
          26 25 30 25 29 30
          22 21 26 21 25 26
          18 17 22 17 21 22
          14 12 18 12 17 18
          9 7 14 7 12 14
          5 3 9 3 7 9
          4 1 5 1 3 5
          37 36 41 36 40 41
          33 32 37 32 36 37
          29 28 33 28 32 33
          25 24 29 24 28 29
          21 20 25 20 24 25
          17 16 21 16 20 21
          12 11 17 11 16 17
          7 6 12 6 11 12
          3 2 7 2 6 7
          1 0 3 0 2 3
        </DataArray>
        <DataArray type="Int64" Name="offsets" format="ascii" RangeMin="3" RangeMax="180">
          3 6 9 12 15 18
          21 24 27 30 33 36
          39 42 45 48 51 54
          57 60 63 66 69 72
          75 78 81 84 87 90
          93 96 99 102 105 108
          111 114 117 120 123 126
          129 132 135 138 141 144
          147 150 153 156 159 162
          165 168 171 174 177 180
        </DataArray>
        <DataArray type="UInt8" Name="types" format="ascii" RangeMin="5" RangeMax="5">
          5 5 5 5 5 5
          5 5 5 5 5 5
          5 5 5 5 5 5
          5 5 5 5 5 5
          5 5 5 5 5 5
          5 5 5 5 5 5
          5 5 5 5 5 5
          5 5 5 5 5 5
          5 5 5 5 5 5
          5 5 5 5 5 5
        </DataArray>
      </Cells>
    </Piece>
  </UnstructuredGrid>
</VTKFile>
