<?xml version="1.0"?>
<VTKFile type="UnstructuredGrid" version="0.1" byte_order="LittleEndian" header_type="UInt32" compressor="vtkZLibDataCompressor">
  <UnstructuredGrid>
    <Piece NumberOfPoints="44" NumberOfCells="60">
      <PointData>
      </PointData>
      <CellData>
        <DataArray type="UInt8" Name="vtkGhostType" format="ascii" RangeMin="0" RangeMax="0">
          0 0 0 0 0 0
          0 0 0 0 0 0
          0 0 0 0 0 0
          0 0 0 0 0 0
          0 0 0 0 0 0
          0 0 0 0 0 0
          0 0 0 0 0 0
          0 0 0 0 0 0
          0 0 0 0 0 0
          0 0 0 0 0 0
        </DataArray>
        <DataArray type="Float64" Name="MOSGS" NumberOfComponents="3" format="ascii" RangeMin="0" RangeMax="0.5720769148478021">
          6.9249040148512e-310 6.9249040148512e-310 4.6537026286858e-310 -0.005877180187194627 0.0015705681894783575 0
          -0.029134321434226427 0.006910400460724141 0 -0.005877180187194627 0.001570568189478351 0
          -0.016897355230488388 0.004249610509790425 0 -0.005877180187194627 0.001570568189478365 0
          -0.01689735523048841 0.004249610509790464 0 -0.005877180187194561 0.001570568189478365 0
          -0.016897355230488246 0.0042496105097904555 0 -0.005877180187194561 0.001570568189478364 0
          -0.016897355230488242 0.004249610509790453 0 -0.005877180187194627 0.0015705681894783614 0
          -0.016897355230488388 0.004249610509790445 0 -0.005877180187194627 0.0015705681894783697 0
          -0.016897355230488395 0.004249610509790471 0 -0.005877180187194624 0.0015705681894783558 0
          -0.01689735523048836 0.0042496105097904295 0 -0.0033339287281026857 0.0010432402355118682 0
          -0.0047694975486575605 0.0018212091544192476 0 -0.010743958485492193 0.0027788561241393573 0
          -0.04618589427631749 0.010506173604246664 0 0.006520796052008587 0.0015552122002729773 0
          -0.22010568405430803 0.07607237196405081 0 -0.0041569794469924065 0.006758763132027605 0
          -0.12618933240490454 0.042007332370679544 0 -0.004156979446992504 0.006758763132027758 0
          -0.07207291415291105 0.02733936918615951 0 -0.004156979446992573 0.006758763132027688 0
          -0.07207291415291096 0.0273393691861597 0 -0.004156979446992573 0.006758763132027699 0
          -0.07207291415291095 0.027339369186159604 0 -0.004156979446992615 0.006758763132027681 0
          -0.07207291415291098 0.02733936918615961 0 -0.004156979446992504 0.0067587631320277855 0
          -0.07207291415291059 0.027339369186159576 0 -0.004156979446992656 0.0067587631320277924 0
          -0.07207291415291144 0.027339369186159593 0 0.007381005268150734 0.004115408268880828 0
          -0.08201344907229183 0.028823481474386757 0 -0.01890912094892168 0.01100913226138931 0
          -0.12017891919943492 0.04190582332322089 0 0.10728471517640348 -0.017640207052024293 0
          -0.47727517041052847 0.3154051493101855 0 0.10758397857212218 -0.03246079731699968 0
          0.23931565899500057 -0.09083558650124438 0 0.13702004343421995 -0.042013465638485716 0
          0.17772258472707636 -0.0717471851953069 0 0.13702004343421956 -0.04201346563848547 0
          0.17772258472707628 -0.07174718519530698 0 0.13702004343421953 -0.04201346563848548 0
          0.17772258472707622 -0.07174718519530687 0 0.13702004343421983 -0.042013465638485493 0
          0.1777225847270764 -0.07174718519530687 0 0.13702004343422014 -0.04201346563848546 0
          0.1777225847270764 -0.07174718519530686 0 0.13702004343421906 -0.04201346563848551 0
          0.17772258472707642 -0.07174718519530685 0 0.12524872433427328 -0.03996819905336984 0
          0.1777225847270762 -0.07174718519530689 0 0.058701200042317374 -0.019190380130444065 0
          0.17344838159404266 -0.07083921255704308 0
          <InformationKey name="L2_NORM_RANGE" location="vtkDataArray" length="2">
            <Value index="0">
              0
            </Value>
            <Value index="1">
              0.57207691485
            </Value>
          </InformationKey>
        </DataArray>
      </CellData>
      <Points>
        <DataArray type="Float32" Name="Points" NumberOfComponents="3" format="ascii" RangeMin="0" RangeMax="4.2201894765504395">
          4.099999904632568 1 0 4.099999904632568 0.6666666865348816 0
          3.690000057220459 1 0 3.690000057220459 0.6666666865348816 0
          4.099999904632568 0.3333333134651184 0 3.690000057220459 0.3333333134651184 0
          3.2799999713897705 1 0 3.2799999713897705 0.6666666865348816 0
          4.099999904632568 0 0 3.2799999713897705 0.3333333134651184 0
          3.690000057220459 0 0 2.869999885559082 1 0
          2.869999885559082 0.6666666865348816 0 3.2799999713897705 0 0
          2.869999885559082 0.3333333134651184 0 2.869999885559082 0 0
          2.4600000381469727 1 0 2.4600000381469727 0.6666666865348816 0
          2.4600000381469727 0.3333333134651184 0 2.4600000381469727 0 0
          2.049999952316284 1 0 2.049999952316284 0.6666666865348816 0
          2.049999952316284 0.3333333134651184 0 2.049999952316284 0 0
          1.6399999856948853 1 0 1.6399999856948853 0.6666666865348816 0
          1.6399999856948853 0.3333333134651184 0 1.6399999856948853 0 0
          1.2300000190734863 1 0 1.2300000190734863 0.6666666865348816 0
          1.2300000190734863 0.3333333134651184 0 1.2300000190734863 0 0
          0.8199999928474426 1 0 0.8199999928474426 0.6666666865348816 0
          0.8199999928474426 0.3333333134651184 0 0.8199999928474426 0 0
          0.4099999964237213 1 0 0.4099999964237213 0.6666666865348816 0
          0.4099999964237213 0.3333333134651184 0 0.4099999964237213 0 0
          0 1 0 0 0.6666666865348816 0
          0 0.3333333134651184 0 0 0 0
          <InformationKey name="L2_NORM_RANGE" location="vtkDataArray" length="2">
            <Value index="0">
              0
            </Value>
            <Value index="1">
              4.2201894766
            </Value>
          </InformationKey>
        </DataArray>
      </Points>
      <Cells>
        <DataArray type="Int64" Name="connectivity" format="ascii" RangeMin="0" RangeMax="43">
          39 38 43 38 42 43
          35 34 39 34 38 39
          31 30 35 30 34 35
          27 26 31 26 30 31
          23 22 27 22 26 27
          19 18 23 18 22 23
          15 14 19 14 18 19
          13 9 15 9 14 15
          10 5 13 5 9 13
          8 4 10 4 5 10
          38 37 42 37 41 42
          34 33 38 33 37 38
          30 29 34 29 33 34
          26 25 30 25 29 30
          22 21 26 21 25 26
          18 17 22 17 21 22
          14 12 18 12 17 18
          9 7 14 7 12 14
          5 3 9 3 7 9
          4 1 5 1 3 5
          37 36 41 36 40 41
          33 32 37 32 36 37
          29 28 33 28 32 33
          25 24 29 24 28 29
          21 20 25 20 24 25
          17 16 21 16 20 21
          12 11 17 11 16 17
          7 6 12 6 11 12
          3 2 7 2 6 7
          1 0 3 0 2 3
        </DataArray>
        <DataArray type="Int64" Name="offsets" format="ascii" RangeMin="3" RangeMax="180">
          3 6 9 12 15 18
          21 24 27 30 33 36
          39 42 45 48 51 54
          57 60 63 66 69 72
          75 78 81 84 87 90
          93 96 99 102 105 108
          111 114 117 120 123 126
          129 132 135 138 141 144
          147 150 153 156 159 162
          165 168 171 174 177 180
        </DataArray>
        <DataArray type="UInt8" Name="types" format="ascii" RangeMin="5" RangeMax="5">
          5 5 5 5 5 5
          5 5 5 5 5 5
          5 5 5 5 5 5
          5 5 5 5 5 5
          5 5 5 5 5 5
          5 5 5 5 5 5
          5 5 5 5 5 5
          5 5 5 5 5 5
          5 5 5 5 5 5
          5 5 5 5 5 5
        </DataArray>
      </Cells>
    </Piece>
  </UnstructuredGrid>
</VTKFile>
