<?xml version="1.0"?>
<VTKFile type="UnstructuredGrid" version="0.1" byte_order="LittleEndian" header_type="UInt32" compressor="vtkZLibDataCompressor">
  <UnstructuredGrid>
    <Piece NumberOfPoints="44" NumberOfCells="60">
      <PointData>
      </PointData>
      <CellData>
        <DataArray type="UInt8" Name="vtkGhostType" format="ascii" RangeMin="0" RangeMax="0">
          0 0 0 0 0 0
          0 0 0 0 0 0
          0 0 0 0 0 0
          0 0 0 0 0 0
          0 0 0 0 0 0
          0 0 0 0 0 0
          0 0 0 0 0 0
          0 0 0 0 0 0
          0 0 0 0 0 0
          0 0 0 0 0 0
        </DataArray>
        <DataArray type="Float64" Name="MOSGS" NumberOfComponents="3" format="ascii" RangeMin="0" RangeMax="0.5720769148478021">
          6.92490401483695e-310 6.92490401483695e-310 4.653702583344e-310 0.017430706622559147 -0.002395455498722132 0
          -0.034352556845033744 0.006953579486081397 0 -0.00015058607654927156 -0.002452456024687009 0
          -0.06365702849550461 0.02086396629307599 0 -0.013337395998064182 -0.0004195453215728416 0
          -0.06201112481301893 0.019680874273903953 0 -0.01115934441637128 0.001030289859164736 0
          -0.0527047060298256 0.014861845748959079 0 -0.01115934441637121 0.0010302898591647916 0
          -0.03733374846299842 0.011632326905958595 0 -0.01137327507690905 0.001036123946793763 0
          -0.03725759239963532 0.011622813798800022 0 -0.012108996506865834 0.0010891582486053635 0
          -0.036623237465441626 0.011551322921493938 0 -0.012716450999618743 0.0012587547997428387 0
          -0.034541639298579035 0.011093439878206324 0 0.005543851490037978 0.0005641507659662707 0
          -0.03379913823616463 0.008936935199049003 0 -0.05982723801308599 0.014840481793853113 0
          -0.08702216427687295 0.02499512553676017 0 0.05319507199303938 -0.017889491665937167 0
          -0.24886259343159534 0.08622138057114748 0 0.0473793752150945 -0.011899979935127836 0
          -0.09984179158126599 0.039268584142631124 0 0.038390829264111206 -0.010332304503729482 0
          -0.026979908087753707 0.011199428886135567 0 0.037286756946858124 -0.011132988910086652 0
          -0.0029295361311197244 -0.00024262558914841148 0 0.04303135392764647 -0.01248131544191855 0
          0.007887387128518776 -0.004422534356728141 0 0.043113753297909896 -0.012493859803248263 0
          0.017087219644429656 -0.006702680186490204 0 0.0439143262987113 -0.012616264936278033 0
          0.016886223265947076 -0.00667739216827911 0 0.04694634156155528 -0.013405471732224745 0
          0.01546752684080076 -0.006492018212105631 0 0.05433149234294842 -0.01711144808166194 0
          0.008391156897640143 -0.004794819979731611 0 0.009357177226577862 -0.00404041575645865 0
          -0.03563453328817061 0.011664094265255831 0 0.04833345977238197 0.0005041446134556801 0
          -0.47727517041052847 0.3154051493101855 0 0.023861106207754938 0.0005936432026210914 0
          0.24046630705354266 -0.09114063535236802 0 0.01624141764682445 -0.001973422396777804 0
          0.16105365971075786 -0.06255679388179441 0 0.017075687551486765 -0.005399810422942686 0
          0.11229449947118325 -0.04329956518197195 0 0.02690167034161063 -0.00806984826845042 0
          0.0852976186691071 -0.03369181510847298 0 0.03336495885637421 -0.00941320112675642 0
          0.07549338518044992 -0.030813174259305964 0 0.03306912521619894 -0.00936148354424117 0
          0.07548724136681045 -0.030811719408234454 0 0.030891558782633825 -0.008947839711139258 0
          0.07540553106369773 -0.03079167023750333 0 0.019038366358767253 -0.005629403928617618 0
          0.07494381449470186 -0.030644718904426164 0 -0.06286011964611618 0.024716315523643055 0
          0.07223164793845391 -0.029569974887156434 0
          <InformationKey name="L2_NORM_RANGE" location="vtkDataArray" length="2">
            <Value index="0">
              0
            </Value>
            <Value index="1">
              0.57207691485
            </Value>
          </InformationKey>
        </DataArray>
      </CellData>
      <Points>
        <DataArray type="Float32" Name="Points" NumberOfComponents="3" format="ascii" RangeMin="0" RangeMax="4.2201894765504395">
          4.099999904632568 1 0 4.099999904632568 0.6666666865348816 0
          3.690000057220459 1 0 3.690000057220459 0.6666666865348816 0
          4.099999904632568 0.3333333134651184 0 3.690000057220459 0.3333333134651184 0
          3.2799999713897705 1 0 3.2799999713897705 0.6666666865348816 0
          4.099999904632568 0 0 3.2799999713897705 0.3333333134651184 0
          3.690000057220459 0 0 2.869999885559082 1 0
          2.869999885559082 0.6666666865348816 0 3.2799999713897705 0 0
          2.869999885559082 0.3333333134651184 0 2.869999885559082 0 0
          2.4600000381469727 1 0 2.4600000381469727 0.6666666865348816 0
          2.4600000381469727 0.3333333134651184 0 2.4600000381469727 0 0
          2.049999952316284 1 0 2.049999952316284 0.6666666865348816 0
          2.049999952316284 0.3333333134651184 0 2.049999952316284 0 0
          1.6399999856948853 1 0 1.6399999856948853 0.6666666865348816 0
          1.6399999856948853 0.3333333134651184 0 1.6399999856948853 0 0
          1.2300000190734863 1 0 1.2300000190734863 0.6666666865348816 0
          1.2300000190734863 0.3333333134651184 0 1.2300000190734863 0 0
          0.8199999928474426 1 0 0.8199999928474426 0.6666666865348816 0
          0.8199999928474426 0.3333333134651184 0 0.8199999928474426 0 0
          0.4099999964237213 1 0 0.4099999964237213 0.6666666865348816 0
          0.4099999964237213 0.3333333134651184 0 0.4099999964237213 0 0
          0 1 0 0 0.6666666865348816 0
          0 0.3333333134651184 0 0 0 0
          <InformationKey name="L2_NORM_RANGE" location="vtkDataArray" length="2">
            <Value index="0">
              0
            </Value>
            <Value index="1">
              4.2201894766
            </Value>
          </InformationKey>
        </DataArray>
      </Points>
      <Cells>
        <DataArray type="Int64" Name="connectivity" format="ascii" RangeMin="0" RangeMax="43">
          39 38 43 38 42 43
          35 34 39 34 38 39
          31 30 35 30 34 35
          27 26 31 26 30 31
          23 22 27 22 26 27
          19 18 23 18 22 23
          15 14 19 14 18 19
          13 9 15 9 14 15
          10 5 13 5 9 13
          8 4 10 4 5 10
          38 37 42 37 41 42
          34 33 38 33 37 38
          30 29 34 29 33 34
          26 25 30 25 29 30
          22 21 26 21 25 26
          18 17 22 17 21 22
          14 12 18 12 17 18
          9 7 14 7 12 14
          5 3 9 3 7 9
          4 1 5 1 3 5
          37 36 41 36 40 41
          33 32 37 32 36 37
          29 28 33 28 32 33
          25 24 29 24 28 29
          21 20 25 20 24 25
          17 16 21 16 20 21
          12 11 17 11 16 17
          7 6 12 6 11 12
          3 2 7 2 6 7
          1 0 3 0 2 3
        </DataArray>
        <DataArray type="Int64" Name="offsets" format="ascii" RangeMin="3" RangeMax="180">
          3 6 9 12 15 18
          21 24 27 30 33 36
          39 42 45 48 51 54
          57 60 63 66 69 72
          75 78 81 84 87 90
          93 96 99 102 105 108
          111 114 117 120 123 126
          129 132 135 138 141 144
          147 150 153 156 159 162
          165 168 171 174 177 180
        </DataArray>
        <DataArray type="UInt8" Name="types" format="ascii" RangeMin="5" RangeMax="5">
          5 5 5 5 5 5
          5 5 5 5 5 5
          5 5 5 5 5 5
          5 5 5 5 5 5
          5 5 5 5 5 5
          5 5 5 5 5 5
          5 5 5 5 5 5
          5 5 5 5 5 5
          5 5 5 5 5 5
          5 5 5 5 5 5
        </DataArray>
      </Cells>
    </Piece>
  </UnstructuredGrid>
</VTKFile>
