<?xml version="1.0"?>
<VTKFile type="UnstructuredGrid" version="0.1" byte_order="LittleEndian" header_type="UInt32" compressor="vtkZLibDataCompressor">
  <UnstructuredGrid>
    <Piece NumberOfPoints="44" NumberOfCells="60">
      <PointData>
      </PointData>
      <CellData>
        <DataArray type="UInt8" Name="vtkGhostType" format="ascii" RangeMin="0" RangeMax="0">
          0 0 0 0 0 0
          0 0 0 0 0 0
          0 0 0 0 0 0
          0 0 0 0 0 0
          0 0 0 0 0 0
          0 0 0 0 0 0
          0 0 0 0 0 0
          0 0 0 0 0 0
          0 0 0 0 0 0
          0 0 0 0 0 0
        </DataArray>
        <DataArray type="Float64" Name="MOSGS" NumberOfComponents="3" format="ascii" RangeMin="0" RangeMax="0.5720769148478021">
          6.9249040148314e-310 6.9249040148314e-310 4.65370258336614e-310 0.04485351945958772 -0.00468669780672412 0
          -0.041752271831590713 0.006289006660586355 0 0.02300295255694189 -0.010720442521614663 0
          -0.083986143804359 0.02807639325860274 0 0.0025165398904515406 -0.013842567966101449 0
          -0.07250968528666513 0.03270645177366147 0 -0.004140222945031642 -0.013990021968181998 0
          -0.04706577219653371 0.025601107795713514 0 -0.004286239701486571 -0.012967617284084767 0
          -0.026584134450403807 0.015356009524764782 0 -0.002744255416548099 -0.012097712309074643 0
          -0.014618207741599897 0.007542950634638453 0 0.0024433041840230237 -0.011498516016196381 0
          -0.006747692197946635 0.0029008141417713757 0 0.008109526789757114 -0.011091258057121084 0
          0.00042577484332453897 0.00002491120061923896 0 0.03285570703608352 -0.012846173503870625 0
          -0.002599647653960072 -0.0018284773078970007 0 -0.09756265349436355 0.025880555947586672 0
          -0.07509871211068583 0.01758956238583372 0 0.06026916945160024 -0.02392240197564016 0
          -0.25572925780092537 0.08890032532502777 0 0.05250929500941065 -0.01722879183255347 0
          -0.10103248080081081 0.0390225361408158 0 0.034661810255535885 -0.012690270582933972 0
          -0.0057990685793845535 0.003107200765414909 0 0.017524614392967656 -0.01153440078304597 0
          0.03780808340756379 -0.016004022041510576 0 0.007425904144220416 -0.01235059401624558 0
          0.04851479417492909 -0.022856587049725527 0 0.004427207999930311 -0.013655975848820258 0
          0.04495699738469714 -0.023785060600932315 0 0.00842561239184638 -0.014986128713683542 0
          0.03802123356957958 -0.022885889895290598 0 0.015210234034684272 -0.016897738173478106 0
          0.03361524821800774 -0.02207592890706596 0 0.017445733263618673 -0.0204309238474777 0
          0.03203540759956611 -0.02089478386501599 0 -0.056381449472561226 0.0009985449383818866 0
          0.009238667601772832 -0.00963841279959434 0 0.034461046150915504 0.00571804285105592 0
          -0.47727517041052847 0.3154051493101855 0 -0.008416794321265061 0.013801417808854643 0
          0.24208327079330932 -0.09028431264612533 0 -0.02348176461292515 0.020435613106816356 0
          0.15880472982572866 -0.05903444209697843 0 -0.02954873746347535 0.022012348846907958 0
          0.09632819967956233 -0.034416972186214714 0 -0.033618613198669337 0.0207441133086175 0
          0.05547821410434514 -0.01727209655846898 0 -0.035123283788946726 0.019304650695849898 0
          0.03167060576456762 -0.006677409587364309 0 -0.03341783367440006 0.01869477351491553 0
          0.01744170523491712 -0.0008705360577867076 0 -0.03120108899176459 0.018766095747508066 0
          0.00821659188926446 0.0021341707587839527 0 -0.03542607262386781 0.02148096742940639 0
          0.003381399255679176 0.003608554678612862 0 -0.09096717776115187 0.0467282707184396 0
          0.0004272348266385166 0.004760800758054963 0
          <InformationKey name="L2_NORM_RANGE" location="vtkDataArray" length="2">
            <Value index="0">
              0
            </Value>
            <Value index="1">
              0.57207691485
            </Value>
          </InformationKey>
        </DataArray>
      </CellData>
      <Points>
        <DataArray type="Float32" Name="Points" NumberOfComponents="3" format="ascii" RangeMin="0" RangeMax="4.2201894765504395">
          4.099999904632568 1 0 4.099999904632568 0.6666666865348816 0
          3.690000057220459 1 0 3.690000057220459 0.6666666865348816 0
          4.099999904632568 0.3333333134651184 0 3.690000057220459 0.3333333134651184 0
          3.2799999713897705 1 0 3.2799999713897705 0.6666666865348816 0
          4.099999904632568 0 0 3.2799999713897705 0.3333333134651184 0
          3.690000057220459 0 0 2.869999885559082 1 0
          2.869999885559082 0.6666666865348816 0 3.2799999713897705 0 0
          2.869999885559082 0.3333333134651184 0 2.869999885559082 0 0
          2.4600000381469727 1 0 2.4600000381469727 0.6666666865348816 0
          2.4600000381469727 0.3333333134651184 0 2.4600000381469727 0 0
          2.049999952316284 1 0 2.049999952316284 0.6666666865348816 0
          2.049999952316284 0.3333333134651184 0 2.049999952316284 0 0
          1.6399999856948853 1 0 1.6399999856948853 0.6666666865348816 0
          1.6399999856948853 0.3333333134651184 0 1.6399999856948853 0 0
          1.2300000190734863 1 0 1.2300000190734863 0.6666666865348816 0
          1.2300000190734863 0.3333333134651184 0 1.2300000190734863 0 0
          0.8199999928474426 1 0 0.8199999928474426 0.6666666865348816 0
          0.8199999928474426 0.3333333134651184 0 0.8199999928474426 0 0
          0.4099999964237213 1 0 0.4099999964237213 0.6666666865348816 0
          0.4099999964237213 0.3333333134651184 0 0.4099999964237213 0 0
          0 1 0 0 0.6666666865348816 0
          0 0.3333333134651184 0 0 0 0
          <InformationKey name="L2_NORM_RANGE" location="vtkDataArray" length="2">
            <Value index="0">
              0
            </Value>
            <Value index="1">
              4.2201894766
            </Value>
          </InformationKey>
        </DataArray>
      </Points>
      <Cells>
        <DataArray type="Int64" Name="connectivity" format="ascii" RangeMin="0" RangeMax="43">
          39 38 43 38 42 43
          35 34 39 34 38 39
          31 30 35 30 34 35
          27 26 31 26 30 31
          23 22 27 22 26 27
          19 18 23 18 22 23
          15 14 19 14 18 19
          13 9 15 9 14 15
          10 5 13 5 9 13
          8 4 10 4 5 10
          38 37 42 37 41 42
          34 33 38 33 37 38
          30 29 34 29 33 34
          26 25 30 25 29 30
          22 21 26 21 25 26
          18 17 22 17 21 22
          14 12 18 12 17 18
          9 7 14 7 12 14
          5 3 9 3 7 9
          4 1 5 1 3 5
          37 36 41 36 40 41
          33 32 37 32 36 37
          29 28 33 28 32 33
          25 24 29 24 28 29
          21 20 25 20 24 25
          17 16 21 16 20 21
          12 11 17 11 16 17
          7 6 12 6 11 12
          3 2 7 2 6 7
          1 0 3 0 2 3
        </DataArray>
        <DataArray type="Int64" Name="offsets" format="ascii" RangeMin="3" RangeMax="180">
          3 6 9 12 15 18
          21 24 27 30 33 36
          39 42 45 48 51 54
          57 60 63 66 69 72
          75 78 81 84 87 90
          93 96 99 102 105 108
          111 114 117 120 123 126
          129 132 135 138 141 144
          147 150 153 156 159 162
          165 168 171 174 177 180
        </DataArray>
        <DataArray type="UInt8" Name="types" format="ascii" RangeMin="5" RangeMax="5">
          5 5 5 5 5 5
          5 5 5 5 5 5
          5 5 5 5 5 5
          5 5 5 5 5 5
          5 5 5 5 5 5
          5 5 5 5 5 5
          5 5 5 5 5 5
          5 5 5 5 5 5
          5 5 5 5 5 5
          5 5 5 5 5 5
        </DataArray>
      </Cells>
    </Piece>
  </UnstructuredGrid>
</VTKFile>
