<?xml version="1.0"?>
<VTKFile type="UnstructuredGrid" version="0.1" byte_order="LittleEndian" header_type="UInt32" compressor="vtkZLibDataCompressor">
  <UnstructuredGrid>
    <Piece NumberOfPoints="367" NumberOfCells="0">
      <PointData>
        <DataArray type="Float64" Name="tem_BC" format="ascii" RangeMin="0" RangeMax="0">
          0 0 0 0 0 0
          0 0 0 0 0 0
          0 0 0 0 0 0
          0 0 0 0 0 0
          0 0 0 0 0 0
          0 0 0 0 0 0
          0 0 0 0 0 0
          0 0 0 0 0 0
          0 0 0 0 0 0
          0 0 0 0 0 0
          0 0 0 0 0 0
          0 0 0 0 0 0
          0 0 0 0 0 0
          0 0 0 0 0 0
          0 0 0 0 0 0
          0 0 0 0 0 0
          0 0 0 0 0 0
          0 0 0 0 0 0
          0 0 0 0 0 0
          0 0 0 0 0 0
          0 0 0 0 0 0
          0 0 0 0 0 0
          0 0 0 0 0 0
          0 0 0 0 0 0
          0 0 0 0 0 0
          0 0 0 0 0 0
          0 0 0 0 0 0
          0 0 0 0 0 0
          0 0 0 0 0 0
          0 0 0 0 0 0
          0 0 0 0 0 0
          0 0 0 0 0 0
          0 0 0 0 0 0
          0 0 0 0 0 0
          0 0 0 0 0 0
          0 0 0 0 0 0
          0 0 0 0 0 0
          0 0 0 0 0 0
          0 0 0 0 0 0
          0 0 0 0 0 0
          0 0 0 0 0 0
          0 0 0 0 0 0
          0 0 0 0 0 0
          0 0 0 0 0 0
          0 0 0 0 0 0
          0 0 0 0 0 0
          0 0 0 0 0 0
          0 0 0 0 0 0
          0 0 0 0 0 0
          0 0 0 0 0 0
          0 0 0 0 0 0
          0 0 0 0 0 0
          0 0 0 0 0 0
          0 0 0 0 0 0
          0 0 0 0 0 0
          0 0 0 0 0 0
          0 0 0 0 0 0
          0 0 0 0 0 0
          0 0 0 0 0 0
          0 0 0 0 0 0
          0 0 0 0 0 0
          0
        </DataArray>
        <DataArray type="Float64" Name="tem_FIXNO" format="ascii" RangeMin="-1" RangeMax="1">
          -1 -1 -1 -1 1 -1
          -1 -1 -1 -1 -1 -1
          -1 -1 -1 -1 -1 -1
          -1 -1 -1 -1 1 -1
          -1 -1 -1 -1 -1 -1
          -1 -1 -1 -1 -1 -1
          -1 -1 -1 1 -1 -1
          -1 -1 -1 -1 -1 -1
          -1 -1 -1 -1 -1 -1
          -1 -1 -1 -1 -1 1
          -1 -1 -1 -1 -1 -1
          -1 -1 -1 -1 -1 -1
          -1 -1 -1 -1 -1 -1
          -1 1 -1 -1 -1 -1
          -1 -1 -1 -1 -1 -1
          -1 -1 -1 -1 -1 -1
          -1 -1 -1 -1 1 -1
          -1 -1 -1 -1 -1 -1
          -1 -1 -1 -1 -1 -1
          -1 -1 -1 -1 -1 -1
          -1 -1 -1 -1 1 -1
          -1 -1 -1 -1 -1 -1
          -1 -1 -1 -1 -1 -1
          -1 -1 -1 -1 -1 -1
          -1 -1 -1 -1 -1 1
          1 -1 1 -1 -1 -1
          -1 1 -1 -1 -1 1
          -1 -1 -1 1 -1 -1
          -1 1 -1 -1 -1 -1
          -1 1 -1 -1 -1 -1
          -1 1 -1 -1 -1 -1
          1 -1 -1 -1 -1 -1
          -1 -1 1 -1 -1 -1
          -1 -1 -1 1 -1 -1
          -1 -1 -1 -1 1 -1
          -1 -1 -1 -1 -1 -1
          1 -1 -1 -1 -1 -1
          -1 -1 -1 1 -1 -1
          -1 -1 -1 -1 -1 1
          -1 -1 -1 -1 -1 -1
          -1 1 -1 -1 -1 -1
          -1 -1 -1 -1 1 -1
          -1 -1 -1 -1 -1 -1
          1 -1 -1 -1 -1 -1
          -1 -1 1 1 -1 -1
          -1 -1 -1 -1 1 1
          -1 -1 -1 -1 -1 -1
          -1 1 1 -1 -1 -1
          -1 -1 1 1 -1 -1
          -1 -1 -1 1 1 -1
          -1 1 1 -1 -1 -1
          1 1 -1 -1 1 1
          -1 1 1 1 -1 -1
          -1 -1 -1 1 -1 -1
          -1 -1 -1 -1 -1 -1
          -1 -1 -1 -1 -1 -1
          -1 -1 -1 -1 -1 -1
          -1 -1 -1 -1 -1 -1
          -1 -1 -1 -1 -1 -1
          -1 -1 -1 -1 -1 -1
          -1 -1 -1 1 -1 -1
          -1
        </DataArray>
      </PointData>
      <CellData>
        <DataArray type="UInt8" Name="vtkGhostType" format="ascii" RangeMin="0" RangeMax="1">
          0 0 0 0 0 0
          0 0 0 0 0 0
          0 0 0 1 1 1
          0 0 1 1 0 1
          1 1 1 0 0 0
          0 0 0 0 1 0
          0 0 0 0 0 0
          0 0 0 0 0 0
          0 0 0 1 0 1
          1 1 1 1 1 1
          0 0 0 1 1 0
          0 1 1 0 0 0
          0 0 0 0 0 0
          0 0 0 0 0 0
          0 0 0 0 0 0
          0 0 0 0 0 0
          0 0 0 0 0 0
          0 0 0 0 1 0
          0 0 0 0 0 0
          0 0 0 0 0 0
          0 0 0 0 0 0
          0 0 0 0 0 0
          0 0 0 1 1 1
          1 1 0 0 1 1
          1 0 0 0 0 0
          0 0 0 0 0 0
          0 0 0 0 0 0
          0 0
        </DataArray>
      </CellData>
      <Points>
        <DataArray type="Float32" Name="Points" NumberOfComponents="3" format="ascii" RangeMin="0" RangeMax="1.0400157019775003">
          0.27317410707473755 0.9119526147842407 0 0.2641870975494385 0.9646266102790833 0
          0.2734264135360718 0.876847505569458 0 0.27366459369659424 0.8417372107505798 0
          0.25 1 0 0.27395251393318176 0.8066279292106628 0
          0.33587411046028137 0.6314802765846252 0 0.24265989661216736 0.929253101348877 0
          0.27429860830307007 0.7715033888816833 0 0.36631059646606445 0.578691303730011 0
          0.3050363063812256 0.6839975118637085 0 0.24291209876537323 0.8941481113433838 0
          0.3973715901374817 0.5281100869178772 0 0.2431643009185791 0.8590430021286011 0
          0.2746860980987549 0.7363777160644531 0 0.22847279906272888 0.9646266102790833 0
          0.24345210194587708 0.8239337205886841 0 0.3359907865524292 0.5962226986885071 0
          0.30535370111465454 0.6488757133483887 0 0.36676961183547974 0.544697105884552 0
          0.27477559447288513 0.701285183429718 0 0.2437400072813034 0.7888243198394775 0
          0.2142857015132904 1 0 0.21194419264793396 0.9216393232345581 0
          0.30567100644111633 0.6137539744377136 0 0.24412739276885986 0.7536985874176025 0
          0.33593571186065674 0.561255693435669 0 0.21219639480113983 0.8865342736244202 0
          0.27481481432914734 0.6662256121635437 0 0.36722859740257263 0.510702908039093 0
          0.21292629837989807 0.8411989212036133 0 0.19775709509849548 0.9570127725601196 0
          0.24451489746570587 0.7185729146003723 0 0.21321409940719604 0.8060895800590515 0
          0.3056159019470215 0.5787870287895203 0 0.2751322090625763 0.6311038136482239 0
          0.33639469742774963 0.5272613763809204 0 0.24455410242080688 0.6835132837295532 0
          0.21354669332504272 0.770983874797821 0 0.1785714030265808 1 0
          0.18122850358486176 0.914025604724884 0 0.18195840716362 0.8686901926994324 0
          0.2756381928920746 0.5967879295349121 0 0.21393409371376038 0.7358582019805908 0
          0.30556079745292664 0.5438200235366821 0 0.2445933073759079 0.6484537124633789 0
          0.3373483121395111 0.49247971177101135 0 0.18268829584121704 0.8233547806739807 0
          0.1620427966117859 0.9570127725601196 0 0.21418729424476624 0.701009213924408 0
          0.18302080035209656 0.7882491946220398 0 0.27558308839797974 0.561820924282074 0
          0.24509939551353455 0.6141377091407776 0 0.3065144121646881 0.5090383291244507 0
          0.1512535959482193 0.9212021231651306 0 0.18335339426994324 0.7531434893608093 0
          0.2142266035079956 0.6659495830535889 0 0.33826521039009094 0.45736759901046753 0
          0.1514471024274826 0.8860874772071838 0 0.14285710453987122 1 0
          0.15217700600624084 0.840752124786377 0 0.2456054985523224 0.5798218250274658 0
          0.1836065948009491 0.7182945013046265 0 0.2765240967273712 0.5266807079315186 0
          0.21422049403190613 0.6308379173278809 0 0.13206790387630463 0.9641892910003662 0
          0.30746808648109436 0.47425660490989685 0 0.15251509845256805 0.8056249022483826 0
          0.18385979533195496 0.683445394039154 0 0.15284770727157593 0.7705193161964417 0
          0.2465464025735855 0.5446816086769104 0 0.1212788000702858 0.928378701210022 0
          0.2147264927625656 0.5965219736099243 0 0.2774777114391327 0.4918990135192871 0
          0.12147220224142075 0.8932639956474304 0 0.15304400026798248 0.7353973984718323 0
          0.18385370075702667 0.6483337879180908 0 0.1216655969619751 0.8581494092941284 0
          0.30736491084098816 0.4391449987888336 0 0.10714290291070938 1 0
          0.12200380116701126 0.823022186756134 0 0.15329720079898834 0.7005482912063599 0
          0.2474873960018158 0.5095415115356445 0 0.21566960215568542 0.5614845752716064 0
          0.12234190106391907 0.7878950238227844 0 0.1838476061820984 0.6132221817970276 0
          0.2770405113697052 0.456844300031662 0 0.09635365754365921 0.9641892910003662 0
          0.15372629463672638 0.6654561758041382 0 0.12253829836845398 0.752773106098175 0
          0.09098634868860245 0.9106178879737854 0 0.30726170539855957 0.4040333926677704 0
          0.2166105955839157 0.5263444185256958 0 0.09117978811264038 0.8755033016204834 0
          0.184790700674057 0.5781847834587097 0 0.24705010652542114 0.47448670864105225 0
          0.12273459881544113 0.7176513075828552 0 0.09144192188978195 0.8403428792953491 0
          0.15372009575366974 0.6303446292877197 0 0.2769373059272766 0.42173269391059875 0
          0.0714285671710968 1 0 0.09178006649017334 0.8052157163619995 0
          0.12316370010375977 0.682559072971344 0 0.21721850335597992 0.49120810627937317 0
          0.18573379516601562 0.5431473851203918 0 0.06606125831604004 0.9464285969734192 0
          0.3080922067165375 0.3691492974758148 0 0.09194646030664444 0.7699251174926758 0
          0.1541634052991867 0.5952281951904297 0 0.24661290645599365 0.4394319951534271 0
          0.12359269708395004 0.6474670171737671 0 0.060693949460983276 0.8928570747375488 0
          0.09214281290769577 0.7348031997680664 0 0.27790340781211853 0.3866485059261322 0
          0.06095607951283455 0.8576967716217041 0 0.18634170293807983 0.5080111026763916 0
          0.15510649979114532 0.5601907968521118 0 0.21678130328655243 0.45615339279174805 0
          0.06121820956468582 0.8225365281105042 0 0.09258121997117996 0.6997339129447937 0
          0.12403599917888641 0.612350583076477 0 0.3089227080345154 0.33426520228385925 0
          0.24757899343967438 0.40434780716896057 0 0.06138459965586662 0.7872458100318909 0
          0.035714291036129 1 0 0.035714291036129 0.964285671710968 0
          0.09301024675369263 0.664641797542572 0 0.15563230216503143 0.5250951051712036 0
          0.18694959580898285 0.4728747010231018 0 0.2787337899208069 0.35176441073417664 0
          0.061550989747047424 0.7519552111625671 0 0.12447930127382278 0.5772342085838318 0
          0.03034696914255619 0.910714328289032 0 0.21682590246200562 0.4212617874145508 0
          0.03034696914255619 0.875 0 0.09345251321792603 0.6296133995056152 0
          0.061989400535821915 0.7168859243392944 0 0.24854500591754913 0.3692637085914612 0
          0.030609099194407463 0.8398396968841553 0 0.309928297996521 0.29935380816459656 0
          0.15624019503593445 0.489958792924881 0 0.12500500679016113 0.5421385169029236 0
          0.1869942992925644 0.4379832148551941 0 0.030609099194407463 0.8041254281997681 0
          0.062427811324596405 0.681816577911377 0 0.0938958004117012 0.5944970846176147 0
          0.2795824110507965 0.31664401292800903 0 0.21779200434684753 0.38617759943008423 0
          0.030775489285588264 0.7688347101211548 0 0 1 0
          0 0.964285671710968 0 0.0628700703382492 0.6467882990837097 0
          0 0.9285714030265808 0 0.24939359724521637 0.33414319157600403 0
          0.12553079426288605 0.5070428252220154 0 0.1567797064781189 0.45483988523483276 0
          0.030775489285588264 0.7331205010414124 0 0 0.8928570747375488 0
          0.0943637490272522 0.5592312812805176 0 0.3109338879585266 0.2644422948360443 0
          0.18703889846801758 0.4030916094779968 0 0 0.8571429252624512 0
          0.06331232935190201 0.6117599010467529 0 0.031213900074362755 0.6980510950088501 0
          0.2186090052127838 0.3510687053203583 0 0 0.8214285969734192 0
          0.2805880010128021 0.2817324995994568 0 0.1260703057050705 0.4719238877296448 0
          0.09488952904939651 0.5241355895996094 0 0 0.785714328289032 0
          0.15682439506053925 0.4199483096599579 0 0.031213900074362755 0.6623368859291077 0
          0.2502422034740448 0.2990227937698364 0 0.063780277967453 0.5764940977096558 0
          0.18785589933395386 0.3679826855659485 0 0 0.75 0
          0.3118413984775543 0.23031030595302582 0 0.031656160950660706 0.6273084878921509 0
          0.21945759654045105 0.3159481883049011 0 0.09543579071760178 0.48910391330718994 0
          0.12660980224609375 0.43680500984191895 0 0 0.714285671710968 0
          0.2807007133960724 0.2466554045677185 0 0.06424824148416519 0.5412282943725586 0
          0.1571144014596939 0.3849610984325409 0 0.18867290019989014 0.33287370204925537 0
          0 0.6785714030265808 0 0.2503548860549927 0.263945609331131 0
          0.031656160950660706 0.5915942788124084 0 0.09597530215978622 0.4539850056171417 0
          0.3127489984035492 0.19617819786071777 0 0.06479450315237045 0.5061966776847839 0
          0.12689989805221558 0.40181779861450195 0 0.2199500948190689 0.28138670325279236 0
          0 0.6428570747375488 0 0.1579314023256302 0.34985220432281494 0
          0.032124120742082596 0.5563284158706665 0 0.28160831332206726 0.21252340078353882 0
          0.18916550278663635 0.2983121871948242 0 0.06534075736999512 0.4711650013923645 0
          0.0963982492685318 0.419059693813324 0 0 0.6071429252624512 0
          0.2504675090312958 0.2288684993982315 0 0.1271899938583374 0.36683058738708496 0
          0.032124120742082596 0.5206142067909241 0 0.3136594891548157 0.16141369938850403 0
          0.22006280720233917 0.24630959331989288 0 0.1583046019077301 0.31472399830818176 0
          0 0.5714285969734192 0 0.2828468084335327 0.17766429483890533 0
          0.06576371192932129 0.4362398087978363 0 0.09668830782175064 0.38407251238822937 0
          0.1896580010652542 0.2637506127357483 0 0.03267037868499756 0.48558250069618225 0
          0.12756310403347015 0.33170241117477417 0 0.2517060935497284 0.19400939345359802 0
          0 0.535714328289032 0 0.15879720449447632 0.28016239404678345 0
          0.2213723063468933 0.2112300992012024 0 0.06618665903806686 0.40131449699401855 0
          0.3145700991153717 0.12664909660816193 0 0.03267037868499756 0.44986820220947266 0
          0.09698276966810226 0.3489932119846344 0 0.2837572991847992 0.14289970695972443 0
          0.1909676045179367 0.22867119312286377 0 0 0.5 0
          0.12793630361557007 0.296574205160141 0 0.25294458866119385 0.15915030241012573 0
          0.06648112088441849 0.3662351071834564 0 0.15998630225658417 0.24517710506916046 0
          0.03309332951903343 0.4149428904056549 0 0.22261090576648712 0.1763709932565689 0
          0.09735594689846039 0.3138650059700012 0 0 0.4642857015132904 0
          0.3153283894062042 0.09158041328191757 0 0.19227710366249084 0.19359169900417328 0
          0.12912550568580627 0.2615889012813568 0 0.2877838909626007 0.10633719712495804 0
          0.06677558273077011 0.3311556875705719 0 0.03309332951903343 0.37922871112823486 0
          0.25697121024131775 0.12258780002593994 0 0 0.4285714030265808 0
          0.1612958014011383 0.21009759604930878 0 0.09802400320768356 0.27804461121559143 0
          0.22275950014591217 0.14130659401416779 0 0.13031460344791412 0.22660349309444427 0
          0.31608670949935913 0.05651174113154411 0 0.19242580235004425 0.1585271954536438 0
          0.033387791365385056 0.34414929151535034 0 0.06744363158941269 0.29533541202545166 0
          0 0.3928571045398712 0 0.2885422110557556 0.07126854360103607 0
          0.16200189292430878 0.17593079805374146 0 0.2609977126121521 0.08602534979581833 0
          0.0992131307721138 0.24305930733680725 0 0.22678610682487488 0.10474409908056259 0
          0.1310206949710846 0.19243669509887695 0 0.033387791365385056 0.30843499302864075 0
          0 0.3571428954601288 0 0.06811168044805527 0.25951510667800903 0
          0.19257450103759766 0.12346280366182327 0 0.30090048909187317 0.028255870565772057 0
          0.10026100277900696 0.20889170467853546 0 0.16215060651302338 0.14086629450321198 0
          0.27335599064826965 0.043012671172618866 0 0.23254689574241638 0.06820174306631088 0
          0 0.3214285969734192 0 0.3214285969734192 0 0
          0.034055840224027634 0.2726146876811981 0 0.13172680139541626 0.15826989710330963 0
          0.06915955245494843 0.22534750401973724 0 0.19833530485630035 0.08692044764757156 0
          0.10096710175275803 0.17472490668296814 0 0.16343119740486145 0.10575740039348602 0
          0 0.2857142984867096 0 0.2857142984867096 0 0
          0.034055840224027634 0.23690040409564972 0 0.07020741701126099 0.19117990136146545 0
          0.24490520358085632 0.025189070031046867 0 0.13300730288028717 0.12316089868545532 0
          0.20409619808197021 0.050378140062093735 0 0.10203970223665237 0.13975270092487335 0
          0.16919200122356415 0.06921505182981491 0 0 0.25 0
          0.25 0 0 0.03510370850563049 0.20273280143737793 0
          0.07128006219863892 0.15620769560337067 0 0.20919090509414673 0.025189070031046867 0
          0.13428789377212524 0.08805195242166519 0 0.10332030057907104 0.10464370250701904 0
          0 0.2142857015132904 0 0.2142857015132904 0 0
          0.03510370850563049 0.16701850295066833 0 0.07235270738601685 0.12123549729585648 0
          0.1734766960144043 0.025189070031046867 0 0.13857249915599823 0.044025968760252 0
          0.10447970032691956 0.06961219757795334 0 0 0.1785714030265808 0
          0.1785714030265808 0 0 0.036176349967718124 0.13204629719257355 0
          0.07351215183734894 0.08620396256446838 0 0 0.14285710453987122 0
          0.14285710453987122 0 0 0.1087644025683403 0.02558623068034649 0
          0.036176349967718124 0.09633202105760574 0 0.07467158138751984 0.05117246136069298 0
          0 0.10714290291070938 0 0.10714290291070938 0 0
          0.03733579069375992 0.06130050867795944 0 0.07305008172988892 0.02558623068034649 0
          0 0.0714285671710968 0 0.0714285671710968 0 0
          0.03733579069375992 0.02558623068034649 0 0 0.035714291036129 0
          0.035714291036129 0 0 0 0 0
          0.3041648864746094 0.8244314193725586 0 0.3048573136329651 0.7541825175285339 0
          0.30451110005378723 0.7893069982528687 0 0.3036884069442749 0.8946521282196045 0
          0.3039267063140869 0.8595417141914368 0 0.2857142984867096 1 0
          0.29470130801200867 0.9473260045051575 0 0.3656007945537567 0.7194644212722778 0
          0.3352290987968445 0.7368234992027283 0 0.30494681000709534 0.7190899848937988 0
          0.33531859517097473 0.7017310261726379 0 0.36607709527015686 0.6492065787315369 0
          0.33555668592453003 0.6666020750999451 0 0.36583900451660156 0.684335470199585 0
          0.36906230449676514 0.44047871232032776 0 0.36814549565315247 0.4755907952785492 0
          0.42751461267471313 0.5455173254013062 0 0.3969126045703888 0.5621042847633362 0
          0.4277958869934082 0.4754262864589691 0 0.397512286901474 0.49306461215019226 0
          0.42765530943870544 0.5104718208312988 0 0.4258204996585846 0.6154376268386841 0
          0.42666760087013245 0.5804774761199951 0 0.39606550335884094 0.5970644950866699 0
          0.3959487974643707 0.6323220729827881 0 0.3661938011646271 0.6139490008354187 0
          0.39842909574508667 0.45795249938964844 0 0.3689466118812561 0.3703390061855316 0
          0.369004487991333 0.4054087996482849 0 0.33816200494766235 0.4222559928894043 0
          0.3381041884422302 0.387186199426651 0 0.33893460035324097 0.35230210423469543 0
          0.3716202974319458 0.3031041920185089 0 0.3402715027332306 0.3186846971511841 0
          0.3702835142612457 0.33672159910202026 0 0.3412770926952362 0.2837732136249542 0
          0.37454450130462646 0.16300830245018005 0 0.3445572853088379 0.1448287069797516 0
          0.3436467945575714 0.1795932948589325 0 0.37613019347190857 0.09274929016828537 0
          0.34535008668899536 0.10969919711351395 0 0.3753373920917511 0.127878800034523 0
          0.3680481016635895 0.23238609731197357 0 0.3712962865829468 0.1976972073316574 0
          0.3403986096382141 0.21428219974040985 0 0.33949100971221924 0.24841420352458954 0
          0.36983421444892883 0.26774510741233826 0 0.3571428954601288 0 0
          0.33661478757858276 0.028255870565772057 0 0.3666365146636963 0.046374641358852386 0
          0.34610840678215027 0.07463052123785019 0
          <InformationKey name="L2_NORM_RANGE" location="vtkDataArray" length="2">
            <Value index="0">
              0
            </Value>
            <Value index="1">
              1.040015702
            </Value>
          </InformationKey>
        </DataArray>
      </Points>
      <Cells>
        <DataArray type="Int64" Name="connectivity" format="ascii" RangeMin="1e+299" RangeMax="-1e+299">
        </DataArray>
        <DataArray type="Int64" Name="offsets" format="ascii" RangeMin="1e+299" RangeMax="-1e+299">
        </DataArray>
        <DataArray type="UInt8" Name="types" format="ascii" RangeMin="1e+299" RangeMax="-1e+299">
        </DataArray>
      </Cells>
    </Piece>
  </UnstructuredGrid>
</VTKFile>
