<?xml version="1.0"?>
<VTKFile type="UnstructuredGrid" version="0.1" byte_order="LittleEndian" header_type="UInt32" compressor="vtkZLibDataCompressor">
  <UnstructuredGrid>
    <Piece NumberOfPoints="32" NumberOfCells="44">
      <PointData>
        <DataArray type="Float64" Name="proc" format="ascii" RangeMin="0" RangeMax="1">
          0 0 0 0 0 0
          0 0 0 0 0 0
          0 0 0 0 0 0
          0 0 0 0 0 0
          0 0 0 1 1 1
          1 1
        </DataArray>
        <DataArray type="Float64" Name="Displacement" NumberOfComponents="3" format="ascii" RangeMin="1.7620486618819816e-11" RangeMax="5.95781830950992e-11">
          4.722585494280085e-11 0 0 2.969849510814031e-11 -8.469868040922215e-12 0
          4.171845314279825e-11 -2.7237659872541152e-11 0 2.6353100930699323e-11 -3.149841542056608e-11 0
          2.218131343462977e-11 -1.3520047321460132e-11 0 3.115536247278673e-11 -4.0471638472769514e-11 0
          1.8857762933487675e-11 -2.577084076796729e-11 0 3.612626582959507e-11 -4.580311175628727e-11 0
          2.5441820480649976e-11 -4.295952887635936e-11 0 2.969050512740643e-11 -4.6978701813192674e-11 0
          1.3958893682483023e-11 -1.6162648203415015e-11 0 1.9836065216561438e-11 -3.69187853527171e-11 0
          1.3943041176064613e-11 -3.031436348051055e-11 0 2.898479504832413e-11 -4.981874538932324e-11 0
          2.1253715201866187e-11 -4.572899891100264e-11 0 2.5009562515712272e-11 -4.952880322429249e-11 0
          6.010698604902116e-12 -1.6563606218605777e-11 0 1.6014569211960104e-11 -4.080275556605732e-11 0
          6.411656620092896e-12 -2.6001073924038024e-11 0 8.517820683987427e-12 -3.543727425861893e-11 0
          2.23793248280008e-11 -5.105927405932101e-11 0 2.356720137927252e-11 -5.317164067062299e-11 0
          1.884593111088802e-11 -4.787476091209307e-11 0 1.2626860402380803e-11 -4.3626331411666934e-11 0
          2.2043376389843162e-11 -5.1182257527731164e-11 0 1.8103976249403296e-11 -4.8729017280941895e-11 0
          2.4126130868432947e-11 -4.9987252235447866e-11 0 2.5253138263225546e-11 -5.039198931743759e-11 0
          2.3332535508715978e-11 -5.220253841428531e-11 0 2.2286325585876356e-11 -5.2242758487160837e-11 0
          2.2154188859404047e-11 -5.530598355417814e-11 0 2.993565804979062e-11 -4.7319260403686787e-11 0
          <InformationKey name="L2_NORM_RANGE" location="vtkDataArray" length="2">
            <Value index="0">
              1.7620486619e-11
            </Value>
            <Value index="1">
              5.9578183095e-11
            </Value>
          </InformationKey>
        </DataArray>
        <DataArray type="Float64" Name="TopologicalDerivative1" format="ascii" RangeMin="-0.07038875354722311" RangeMax="0.28499940115586253">
          0.28499940115586253 0.0617062336016274 0.05716892138914477 -0.026154086738494987 0.013796687331350518 -0.008402015996086906
          -0.008306908368816562 0.05727842979914689 -0.04550672031427063 0.001279412306143965 -0.054368687359574175 -0.0363168299244239
          -0.047076958673301875 0.03185835702416849 -0.047589387705164604 -0.04585433618532497 -0.07038875354722311 -0.027722952183650847
          -0.0641107864725747 -0.03116645986376397 -0.05377200098490313 -0.02264972524075594 -0.014388973738248531 0.014444877100922238
          -0.005128109317244875 0.054623713928003984 0.07828781331444189 0.00018682195660572887 -0.06007846800647101 -0.021999868957013655
          0.055122921578820275 0.07776590860051617
        </DataArray>
      </PointData>
      <CellData>
        <DataArray type="UInt8" Name="vtkGhostType" format="ascii" RangeMin="0" RangeMax="0">
          0 0 0 0 0 0
          0 0 0 0 0 0
          0 0 0 0 0 0
          0 0 0 0 0 0
          0 0 0 0 0 0
          0 0 0 0 0 0
          0 0 0 0 0 0
          0 0
        </DataArray>
        <DataArray type="Float64" Name="Stress" NumberOfComponents="6" format="ascii" RangeMin="0.000010997285351839849" RangeMax="0.09938279552333074">
          0.02459289267330212 -0.09426054868907592 0 0.019674314138641742 0 0
          -0.07070569784651917 0.0039308524867062745 0 0.0008553144241316545 0 0
          -0.03638108755047985 -0.00048774206237879765 0 -0.0010354002303036313 0 0
          -0.02787688699088911 -0.0003442005410053354 0 0.0020202583192896785 0 0
          -0.00003517150924536523 0.00001065944700698834 0 0.0000049547579254226035 0 0
          -0.000010520363197724094 0.0000030605499028600926 0 9.461910958505538e-7 0 0
          -0.0000397645542660199 0.000009818164433852383 0 -0.000002178668909270072 0 0
          -0.0000068735659746990175 -0.000006873565974698848 0 0.000006873565974698499 0 0
          -0.05777180845600499 0.003739714473592809 0 0.004481951869680643 0 0
          -0.0058771033065567555 -0.00006087038255823831 0 0.001214125069588828 0 0
          -0.0000309859569744854 0.000009967952708831867 0 0.000012263299437968574 0 0
          -0.005291614551749759 0.0003387450878816634 0 0.0009616366398220802 0 0
          -0.000012470672310779205 0.000003455477342787166 0 0.000008769851752283999 0 0
          -0.000016313709674211986 0.0000023269671648166683 0 0.000016518689866469424 0 0
          -0.000024875584433847994 -2.779250619968702e-7 0 0.000010293458301085185 0 0
          -0.000009659993881983548 0.000012824405438772688 0 0.00000758431032687439 0 0
          -0.000022309581863699722 0.000006724969110016074 0 0.000019022395527052278 0 0
          -0.000026074509851019217 -0.0000026684702809495135 0 0.000008982250128878918 0 0
          0.000026805136118483948 0.000012449111201640973 0 0.000008169037104664872 0 0
          -0.000012424977359148774 -0.000002284499874212104 0 0.000022336502280235576 0 0
          -0.000006772577415092647 0.00001555316917829825 0 0.0000020890331587384366 0 0
          0.006545210094847862 0.0005613021004641852 0 0.0007279634987585487 0 0
          -0.000011558433547586886 6.039794976608434e-7 0 0.00001905093972550836 0 0
          0.0000176519042115314 0.000010913418824032081 0 -0.0000022524003239979046 0 0
          0.000002221335263993555 0.0000058693911740777505 0 0.000022317114079481914 0 0
          0.0027853590860394606 -0.011302878284414519 0 0.020970352625918863 0 0
          -0.000011222621459193338 0.000019297261214878837 0 0.000014564886981890931 0 0
          0.000006528595762468881 0.000027393801973513253 0 0.000017084708799891143 0 0
          0.000008053412276797182 0.00000955438899181577 0 0.000009151528431260175 0 0
          0.00012269004054471524 0.00008527430601978431 0 0.000042515677074475095 0 0
          0.000024755123113474042 0.000052405212181247314 0 0.0000026723407044811554 0 0
          0.019422875984561435 0.003587035557514973 0 0.0002734827218813455 0 0
          0.07559590213253908 0.023459275441126998 0 -0.013520726894425782 0 0
          0.031420451521698534 0.044095463470214535 0 0.002855448204012756 0 0
          0.058804131670566154 0.0199941093536582 0 0.022999182019568944 0 0
          0.023262026219253308 0.0015329348514946475 0 0.007196294527398098 0 0
          -0.000007705610190539028 -3.4439844081360214e-7 0 0.000008407406868018378 0 0
          0.0005495060871588049 -0.0038690816125570284 0 0.001949395428274292 0 0
          0.012398109639475435 0.016999076505982706 0 -0.00049016230874481 0 0
          -0.0025920250189385603 -0.05868021820815618 0 0.014906946957151997 0 0
          -0.00000800546473498862 -0.000008043855069330664 0 0.000017986221722289837 0 0
          0.06270960213826966 0.01687747593877068 0 0.01263839080472002 0 0
          -0.0010228865628263487 -0.00597338092757793 0 0.013903512328478657 0 0
          -0.06866653719008599 0.0034926299540203737 0 -0.002839457529902254 0 0
          <InformationKey name="L2_NORM_RANGE" location="vtkDataArray" length="2">
            <Value index="0">
              1.0997285352e-05
            </Value>
            <Value index="1">
              0.099382795523
            </Value>
          </InformationKey>
        </DataArray>
        <DataArray type="Float64" Name="Strain" NumberOfComponents="6" format="ascii" RangeMin="5.520461474577796e-14" RangeMax="5.227858068277414e-13">
          2.2029607200010383e-13 -4.234934020461108e-13 0 2.1313840316861886e-13 0 0
          -3.0110773095148253e-13 1.0531577705484769e-13 0 9.315004167582855e-15 0 0
          -1.6048809366911923e-13 4.6180584456209653e-14 0 -1.1923368748028822e-14 0 0
          -1.5987226394775721e-13 4.6158688553150685e-14 0 3.0235752444919356e-14 0 0
          -1.5987226394775721e-13 8.837874908582461e-14 0 5.367654419207821e-14 0 0
          -4.766053403575883e-14 2.590274525907217e-14 0 1.0250403538380999e-14 0 0
          -1.6048809366911923e-13 8.171902253265495e-14 0 -2.1285202889615983e-14 0 0
          -2.0047900759539008e-14 -2.00479007595381e-14 0 7.446363139256708e-14 0 0
          -2.738557923511247e-13 9.79813384220902e-14 0 5.41867944122642e-14 0 0
          -1.4156809494639577e-13 4.113198200047373e-14 0 7.627643065040999e-14 0 0
          -1.4156809494639567e-13 8.026558250490619e-14 0 1.328524105779929e-13 0 0
          -2.0545198591966885e-13 7.337849002907642e-14 0 9.52456394024931e-14 0 0
          -5.628048130673065e-14 2.9986162650087187e-14 0 9.500672731640998e-14 0 0
          -7.088249926523746e-14 3.008783361283444e-14 0 1.7895247355341875e-13 0 0
          -1.0330086214687059e-13 2.993645945065638e-14 0 1.1151246492842285e-13 0 0
          -5.628048130673065e-14 6.55100150140323e-14 0 8.216336187447258e-14 0 0
          -1.013628024862689e-13 5.590768195469163e-14 0 2.0607595154306636e-13 0 0
          -1.0530820319472652e-13 2.147451114315105e-14 0 9.73077097295216e-14 0 0
          9.612667815829857e-14 1.8364876525399124e-14 0 8.849790196720277e-14 0 0
          -4.8915114153688094e-14 6.0124722230522015e-15 0 2.4197877470255203e-13 0 0
          -4.766053403575883e-14 7.327059334510851e-14 0 2.2631192552999734e-14 0 0
          1.105408801206189e-13 -2.4307910549553686e-14 0 3.280966136235811e-14 0 0
          -4.8915114153688094e-14 1.6964623174737126e-14 0 2.063851803596739e-13 0 0
          5.990782735134071e-14 2.3407698169052756e-14 0 -2.44010035099773e-14 0 0
          1.9188246323759586e-15 2.1679127478665347e-14 0 2.4176873586105407e-13 0 0
          4.154882352275669e-14 -8.165829635264893e-14 0 3.6678779351484693e-13 0 0
          -7.088249926523746e-14 9.443353188598682e-14 0 1.5778627563715177e-13 0 0
          -7.039770123271232e-15 1.0598009685321913e-13 0 1.8508434533215396e-13 0 0
          2.1612898246885204e-14 2.9743188786569234e-14 0 9.914155800531854e-14 0 0
          8.776551419577757e-14 4.3804506048479784e-14 0 9.990620523638281e-14 0 0
          2.1612898246885204e-14 1.0761201448873903e-13 0 1.6623377835724292e-14 0 0
          1.7922041408922247e-13 -2.1879756900675252e-14 0 6.9459429559784704e-15 0 0
          2.8565883125083743e-13 3.2521033390219903e-15 0 -1.4647454135627934e-13 0 0
          8.525449577140266e-14 1.624750739756274e-13 0 3.479276583591649e-14 0 0
          2.236874925281274e-13 9.966832661990334e-15 0 2.5330572177806903e-13 0 0
          1.587191019205672e-13 -3.790574532471435e-14 0 1.3023741197767904e-13 0 0
          -3.167621107622896e-14 8.19701923478378e-15 0 9.108024107019908e-14 0 0
          5.60179894357188e-14 -1.3213004409774411e-13 0 1.6601454642736575e-13 0 0
          5.997054483425519e-14 1.091182883045903e-13 0 -1.0471873459634296e-14 0 0
          6.546638803210539e-14 -2.5250896402689585e-13 0 1.690210162710853e-13 0 0
          -2.3301284225789262e-14 -2.3509231870141986e-14 0 1.9485073532480657e-13 0 0
          2.7322424755680327e-13 -9.17316374386099e-15 0 1.557444152044628e-13 0 0
          3.5346362645057266e-15 -2.6041278794445844e-14 0 1.66128499236785e-13 0 0
          -2.9047635906788376e-13 1.0038579629602571e-13 0 -3.076078990727442e-14 0 0
          <InformationKey name="L2_NORM_RANGE" location="vtkDataArray" length="2">
            <Value index="0">
              5.5204614746e-14
            </Value>
            <Value index="1">
              5.2278580683e-13
            </Value>
          </InformationKey>
        </DataArray>
      </CellData>
      <Points>
        <DataArray type="Float32" Name="Points" NumberOfComponents="3" format="ascii" RangeMin="92.44066980668491" RangeMax="215.40659228538016">
          200 0 0 200 20 0
          175 0 0 170.3333282470703 25.352571487426758 0
          200 40 0 157 13.358983993530273 0
          180 45.35898208618164 0 150 0 0
          150 28.038475036621094 0 142.39999389648438 13.887187004089355 0
          200 60 0 160 45.35898208618164 0
          171.6666717529297 62.23291015625 0 125 0 0
          140 45.35898208618164 0 130 28.038475036621094 0
          200 80 0 150 62.67949295043945 0
          180 80 0 160 80 0
          120 45.35898208618164 0 110.71759033203125 23.771137237548828 0
          130 62.67949295043945 0 140 80 0
          110 62.67949295043945 0 120 80 0
          100 80 0 90 62.67949295043945 0
          100 45.35898208618164 0 89.30555725097656 23.870376586914062 0
          100 0 0 80 80 0
          <InformationKey name="L2_NORM_RANGE" location="vtkDataArray" length="2">
            <Value index="0">
              92.440669807
            </Value>
            <Value index="1">
              215.40659229
            </Value>
          </InformationKey>
        </DataArray>
      </Points>
      <Cells>
        <DataArray type="Int64" Name="connectivity" format="ascii" RangeMin="0" RangeMax="31">
          0 1 2 25 26 24
          24 26 27 25 24 22
          22 24 20 20 24 28
          28 24 27 16 18 10
          25 22 23 23 22 17
          17 22 14 23 17 19
          14 22 20 17 14 11
          19 17 12 14 20 15
          17 11 12 19 12 18
          15 20 21 12 11 6
          21 20 28 15 21 13
          6 11 3 21 28 29
          3 11 8 6 3 1
          8 11 14 3 8 5
          8 14 15 5 8 9
          8 15 9 9 15 13
          9 13 7 9 7 5
          5 7 2 5 2 3
          18 12 10 4 10 6
          21 29 30 1 4 6
          12 6 10 30 13 21
          3 2 1 27 26 31
        </DataArray>
        <DataArray type="Int64" Name="offsets" format="ascii" RangeMin="3" RangeMax="132">
          3 6 9 12 15 18
          21 24 27 30 33 36
          39 42 45 48 51 54
          57 60 63 66 69 72
          75 78 81 84 87 90
          93 96 99 102 105 108
          111 114 117 120 123 126
          129 132
        </DataArray>
        <DataArray type="UInt8" Name="types" format="ascii" RangeMin="5" RangeMax="5">
          5 5 5 5 5 5
          5 5 5 5 5 5
          5 5 5 5 5 5
          5 5 5 5 5 5
          5 5 5 5 5 5
          5 5 5 5 5 5
          5 5 5 5 5 5
          5 5
        </DataArray>
      </Cells>
    </Piece>
  </UnstructuredGrid>
</VTKFile>
