<?xml version="1.0"?>
<VTKFile type="UnstructuredGrid" version="0.1" byte_order="LittleEndian" header_type="UInt32" compressor="vtkZLibDataCompressor">
  <UnstructuredGrid>
    <Piece NumberOfPoints="33" NumberOfCells="46">
      <PointData>
        <DataArray type="Float64" Name="proc" format="ascii" RangeMin="0" RangeMax="1">
          1 1 1 1 1 1
          1 1 1 1 1 1
          1 1 1 1 1 1
          1 1 1 1 1 1
          1 1 1 1 0 0
          0 0 0
        </DataArray>
        <DataArray type="Float64" Name="Displacement" NumberOfComponents="3" format="ascii" RangeMin="0" RangeMax="5.95781830950992e-11">
          2.2154188859404047e-11 -5.530598355417814e-11 0 2.3332535508715978e-11 -5.220253841428531e-11 0
          2.2286325585876356e-11 -5.2242758487160837e-11 0 1.5565577447864668e-11 -4.7692764353648914e-11 0
          2.5253138263225546e-11 -5.039198931743759e-11 0 2.4267707404069462e-11 -4.9411640951363064e-11 0
          2.116750072854869e-11 -4.69394893479833e-11 0 1.5797000191285697e-11 -4.2744057498096546e-11 0
          2.993565804979062e-11 -4.7319260403686787e-11 0 2.8239124151138838e-11 -4.573812865601771e-11 0
          2.518156319609257e-11 -4.2859249509041495e-11 0 9.345368268133953e-12 -4.0296735405218406e-11 0
          2.0769659710210938e-11 -3.865068669990484e-11 0 1.4474026365914967e-11 -3.513147151888976e-11 0
          3.487305090762677e-11 -4.1178145102266875e-11 0 3.070659444464133e-11 -3.7856396252604415e-11 0
          2.641903112582088e-11 -3.277969971579824e-11 0 4.6567180983876324e-12 -2.4143942149336546e-11 0
          2.029803236594577e-11 -2.4970522651617864e-11 0 3.833651858318604e-11 -3.2545918262371715e-11 0
          3.241249733057452e-11 -2.8094430086953463e-11 0 2.7611835630118184e-11 -2.147790236485707e-11 0
          4.007227738119625e-11 -2.301165422497966e-11 0 0 0 0
          1.5517160011877432e-11 -6.879174105491275e-12 0 2.4609702384484808e-11 -1.1112350284945522e-11 0
          3.2128906503004225e-11 -1.3181752956364808e-11 0 4.0402420199520234e-11 -1.3511895774688804e-11 0
          2.2043376389843162e-11 -5.1182257527731164e-11 0 2.4126130868432947e-11 -4.9987252235447866e-11 0
          2.23793248280008e-11 -5.105927405932101e-11 0 2.356720137927252e-11 -5.317164067062299e-11 0
          2.898479504832413e-11 -4.981874538932324e-11 0
          <InformationKey name="L2_NORM_RANGE" location="vtkDataArray" length="2">
            <Value index="0">
              0
            </Value>
            <Value index="1">
              5.9578183095e-11
            </Value>
          </InformationKey>
        </DataArray>
        <DataArray type="Float64" Name="TopologicalDerivative1" format="ascii" RangeMin="-0.066620893134996" RangeMax="0.5057958565670165">
          0.055122921578820275 -0.06007846800647101 -0.021999868957013655 0.06122998503236095 0.00018682195660572887 -0.054517176652080904
          -0.036788195328613715 0.056021539239763815 0.07776590860051617 -0.000029489381564995476 -0.03875963228255996 0.17395357854546978
          -0.01996547062851231 0.04670622171515061 0.04486595561624465 -0.009759593886456877 -0.01383729103820456 0.14676674726363226
          0.019949819847927264 -0.00984723221373314 -0.03499797002638902 -0.009813831686012409 -0.057013738975895026 0.5057958565670165
          0.1939232426516851 0.08253437596376985 -0.03914679451722501 -0.066620893134996 -0.005128109317244875 0.07828781331444189
          -0.05377200098490313 -0.02264972524075594 0.03185835702416849
        </DataArray>
      </PointData>
      <CellData>
        <DataArray type="UInt8" Name="vtkGhostType" format="ascii" RangeMin="0" RangeMax="1">
          1 1 1 0 0 1
          1 1 1 0 0 0
          1 0 0 0 0 0
          0 0 0 0 0 0
          0 0 0 0 0 0
          0 0 0 0 0 0
          0 0 0 0 0 0
          0 0 0 0
        </DataArray>
        <DataArray type="Float64" Name="Stress" NumberOfComponents="6" format="ascii" RangeMin="0.000009703204040810965" RangeMax="0.0809928173098183">
          -0.03638108755047985 -0.00048774206237879765 0 -0.0010354002303036313 0 0
          -0.000010520363197724094 0.0000030605499028600926 0 9.461910958505538e-7 0 0
          -0.0000397645542660199 0.000009818164433852383 0 -0.000002178668909270072 0 0
          -0.000010546111310640295 0.0000026487989123986055 0 -0.000005191710784204874 0 0
          -0.00000668900823029519 0.00001511018171315538 0 -0.0000062388314141635825 0 0
          -0.000006772577415092647 0.00001555316917829825 0 0.0000020890331587384366 0 0
          0.0000176519042115314 0.000010913418824032081 0 -0.0000022524003239979046 0 0
          0.012398109639475435 0.016999076505982706 0 -0.00049016230874481 0 0
          0.06270960213826966 0.01687747593877068 0 0.01263839080472002 0 0
          0.063677427867747 0.017303887359624452 0 -0.015442306503371861 0 0
          -0.0015287524611305948 -0.05125673989179012 0 -0.019955953764665343 0 0
          0.0028393805906374815 -0.008684363513399239 0 -0.01393828859834145 0 0
          -0.06866653719008599 0.0034926299540203737 0 -0.002839457529902254 0 0
          -0.03596693888471418 -0.0004565268772861956 0 -0.0044809023715173014 0 0
          -0.05830469658657604 0.0031466765670074386 0 -0.006145482808861501 0 0
          -0.00013112377723871783 0.000034301860932880165 0 -0.00003264194332096913 0 0
          -0.00001023588519007807 0.000002434614380664138 0 -0.00001151173513649228 0 0
          -0.000027686864002604188 0.000006409265064752411 0 -0.000013507248421283254 0 0
          -0.024391130897531074 -0.00027439675414542633 0 -0.006237378813062954 0 0
          -0.000012267071224456904 7.64367831436674e-7 0 -0.000016549272197496283 0 0
          0.000023769112954918543 0.000010517250038699375 0 -0.00001313115198806624 0 0
          -0.027714883527150756 0.0009699112852704795 0 -0.0056651762134411095 0 0
          -0.000019959231308242928 0.0000017053444098511106 0 -0.000016297659243706215 0 0
          -0.000008377935007928483 0.000008627781654496094 0 -0.000011284459474784936 0 0
          -0.00002053347014370646 -2.087850416939714e-7 0 -0.000008938117645242348 0 0
          0.000008321851476085036 0.000004841189780308191 0 -0.000013183901716509756 0 0
          -0.000021447251385929752 -0.0000020604860326905607 0 -0.000007807627889353424 0 0
          -0.000008798315637947168 0.000012117307682650138 0 -0.00001519398952229124 0 0
          0.005852363775559199 0.008047226025802996 0 -0.002129798812711124 0 0
          -0.0000070496154881954695 -6.406055264472601e-7 0 -0.000006636619221086141 0 0
          -0.000049427191928848255 0.00008139825518593306 0 -0.006327959117306507 0 0
          0.023386546601851 0.008803531528345695 0 -0.009838236426354044 0 0
          0.001900608481457781 0.010626565223874866 0 -0.011699567252111378 0 0
          0.030733865899628787 0.02611249334353431 0 -0.00470732339515333 0 0
          0.046943024478857155 0.006439942830974955 0 -0.014315924439129865 0 0
          0.06339029411734068 0.012254286639752738 0 0.005236483860999458 0 0
          0.02826533954119021 -0.0007962740153289617 0 -0.006251839604165523 0 0
          0.03332567429652024 0.004778777484156439 0 -0.00520704124052607 0 0
          0.0006548951784329259 -0.007395067443323614 0 -0.01898386742993608 0 0
          -0.0032832426751766234 -0.0027508976988171487 0 -0.006828180370445688 0 0
          -0.0036657141540334982 -0.016163224163521065 0 -0.009658941285181723 0 0
          -0.000007595650845420485 -0.000008902499240136963 0 -0.000014680326875414748 0 0
          -0.000006486527176456212 -1.30638767681611e-7 0 -0.000018095712786467726 0 0
          -0.000005659591171268246 -0.000005659591171268414 0 -0.000005659591171268532 0 0
          0.021911502159068886 -0.07597663861817464 0 -0.017529201727346788 0 0
          0.011920386154788612 0.0010356334451716762 0 -0.0025960714795778272 0 0
          <InformationKey name="L2_NORM_RANGE" location="vtkDataArray" length="2">
            <Value index="0">
              9.7032040408e-06
            </Value>
            <Value index="1">
              0.08099281731
            </Value>
          </InformationKey>
        </DataArray>
        <DataArray type="Float64" Name="Strain" NumberOfComponents="6" format="ascii" RangeMin="5.520461474577796e-14" RangeMax="4.3481664981688894e-13">
          -1.6048809366911923e-13 4.6180584456209653e-14 0 -1.1923368748028822e-14 0 0
          -4.766053403575883e-14 2.590274525907217e-14 0 1.0250403538380999e-14 0 0
          -1.6048809366911923e-13 8.171902253265495e-14 0 -2.1285202889615983e-14 0 0
          -4.6758594767674167e-14 2.3965830736027572e-14 0 -5.5654908807662624e-14 0 0
          -4.6758594767674167e-14 7.132035075934973e-14 0 -6.758734032010548e-14 0 0
          -4.766053403575883e-14 7.327059334510851e-14 0 2.2631192552999734e-14 0 0
          5.990782735134071e-14 2.3407698169052756e-14 0 -2.44010035099773e-14 0 0
          5.997054483425519e-14 1.091182883045903e-13 0 -1.0471873459634296e-14 0 0
          2.7322424755680327e-13 -9.17316374386099e-15 0 1.557444152044628e-13 0 0
          2.635444564615752e-13 -8.107995494331158e-15 0 -1.8091956661194936e-13 0 0
          5.770112294336019e-14 -2.1165880897271234e-13 0 -2.1618949911720787e-13 0 0
          2.2686206852738555e-14 -3.973407371079368e-14 0 -1.509981264820324e-13 0 0
          -2.9047635906788376e-13 1.0038579629602571e-13 0 -3.076078990727442e-14 0 0
          -1.4929929439566453e-13 4.3058701207550676e-14 0 -4.85456152127136e-14 0 0
          -2.468696428918075e-13 8.599204448516593e-14 0 -6.657608032260983e-14 0 0
          -1.4929929439566453e-13 7.774494586769128e-14 0 -8.960116828252783e-14 0 0
          -4.5692789601155456e-14 2.293908307369816e-14 0 -1.2471046397866637e-13 0 0
          -1.2337351467512463e-13 6.131385110639028e-14 0 -1.4632852456390194e-13 0 0
          -1.2337351467512463e-13 3.574475693609636e-14 0 -8.230641265257951e-14 0 0
          -5.2068256557866287e-14 1.851870499489061e-14 0 -1.7928378213954301e-13 0 0
          8.58914080971197e-14 1.4110483967599214e-14 0 -1.422541465373843e-13 0 0
          -1.7317338377796335e-13 5.740966515209317e-14 0 -9.107916668489652e-14 0 0
          -8.52951442966594e-14 3.205464084301662e-14 0 -1.765579751401507e-13 0 0
          -4.5692789601155456e-14 4.642150898697765e-14 0 -1.2224831097683681e-13 0 0
          -8.52951442966594e-14 2.479690000590818e-14 0 -9.682960782345873e-14 0 0
          2.8622893924969084e-14 9.769309739511165e-15 0 -1.4282560192885573e-13 0 0
          -8.678793990051072e-14 1.8223705762868184e-14 0 -8.458263546799542e-14 0 0
          -5.18062830947592e-14 6.14866765584762e-14 0 -1.646015531581551e-13 0 0
          3.2151476654328087e-14 5.883363263854495e-14 0 -5.1782406052540084e-14 0 0
          -2.857264095942204e-14 6.142829666714088e-15 0 -7.18967082284332e-14 0 0
          -1.0401499877015947e-15 1.355374644619058e-15 0 -2.3174057145818186e-13 0 0
          9.381364219800951e-14 8.083600118638783e-15 0 -1.1567325667111103e-13 0 0
          -6.307912048206316e-15 4.927504658125832e-14 0 -1.490487706398174e-13 0 0
          9.54171579023687e-14 7.038472322352366e-14 0 -5.09960034474944e-14 0 0
          1.875460067898528e-13 -3.184568546950913e-14 0 -1.5508918142390688e-13 0 0
          2.4880836718922857e-13 -2.8178339981039427e-14 0 5.672857516082743e-14 0 0
          1.1876759060745374e-13 -3.8649482823691774e-14 0 -6.772826237845985e-14 0 0
          1.5608044958106224e-13 -2.5541549020123377e-14 0 -6.625681545137673e-14 0 0
          1.2406864438607472e-14 -3.277881702002012e-14 0 -2.1311875019730993e-13 0 0
          -2.583822625135483e-14 -1.8563409861321942e-14 0 -1.8662243725007436e-13 0 0
          8.12767784283595e-15 -1.034701335709643e-13 0 -1.725010353554223e-13 0 0
          -2.0520421139080813e-14 -2.7599183277128407e-14 0 -1.5903687448365978e-13 0 0
          -2.6863898108965537e-14 7.563830771896885e-15 0 -1.9603688852006704e-13 0 0
          -1.650714091619884e-14 -1.650714091619975e-14 0 -6.131223768874243e-14 0 0
          1.8626872393550528e-13 -3.4395870527456376e-13 0 -1.8989968537959018e-13 0 0
          1.0513725783290578e-13 -2.3006575749485367e-14 0 -6.112597328060393e-14 0 0
          <InformationKey name="L2_NORM_RANGE" location="vtkDataArray" length="2">
            <Value index="0">
              5.5204614746e-14
            </Value>
            <Value index="1">
              4.3481664982e-13
            </Value>
          </InformationKey>
        </DataArray>
      </CellData>
      <Points>
        <DataArray type="Float32" Name="Points" NumberOfComponents="3" format="ascii" RangeMin="0" RangeMax="128.28654354956544">
          100 0 0 100 45.35898208618164 0
          89.30555725097656 23.870376586914062 0 75 0 0
          90 62.67949295043945 0 80 45.35898208618164 0
          70 28.038475036621094 0 57 13.358983993530273 0
          80 80 0 70 62.67949295043945 0
          60 45.35898208618164 0 50 0 0
          48.827545166015625 28.876956939697266 0 41.327545166015625 13.757295608520508 0
          60 80 0 50 62.67949295043945 0
          38.48822784423828 45.76527404785156 0 25 0 0
          24.63772964477539 27.38901710510254 0 40 80 0
          30 62.67949295043945 0 17.464101791381836 47.607696533203125 0
          20 80 0 0 0 0
          0 20 0 0 40 0
          0 60 0 0 80 0
          110 62.67949295043945 0 100 80 0
          120 45.35898208618164 0 110.71759033203125 23.771137237548828 0
          125 0 0
          <InformationKey name="L2_NORM_RANGE" location="vtkDataArray" length="2">
            <Value index="0">
              0
            </Value>
            <Value index="1">
              128.28654355
            </Value>
          </InformationKey>
        </DataArray>
      </Points>
      <Cells>
        <DataArray type="Int64" Name="connectivity" format="ascii" RangeMin="0" RangeMax="32">
          28 29 4 30 28 1
          1 28 4 4 5 1
          1 5 2 31 30 1
          31 1 2 31 2 0
          0 32 31 3 0 2
          25 24 18 18 24 17
          4 29 8 4 8 9
          9 8 14 4 9 5
          5 9 10 10 9 15
          15 9 14 10 15 16
          2 5 6 15 14 19
          16 15 20 6 5 10
          15 19 20 6 10 12
          20 19 22 12 10 16
          6 12 7 20 22 26
          12 16 18 7 12 13
          13 12 18 7 13 11
          11 13 17 7 11 3
          17 13 18 7 3 6
          25 18 21 21 18 16
          25 21 26 26 21 20
          20 21 16 27 26 22
          24 23 17 2 6 3
        </DataArray>
        <DataArray type="Int64" Name="offsets" format="ascii" RangeMin="3" RangeMax="138">
          3 6 9 12 15 18
          21 24 27 30 33 36
          39 42 45 48 51 54
          57 60 63 66 69 72
          75 78 81 84 87 90
          93 96 99 102 105 108
          111 114 117 120 123 126
          129 132 135 138
        </DataArray>
        <DataArray type="UInt8" Name="types" format="ascii" RangeMin="5" RangeMax="5">
          5 5 5 5 5 5
          5 5 5 5 5 5
          5 5 5 5 5 5
          5 5 5 5 5 5
          5 5 5 5 5 5
          5 5 5 5 5 5
          5 5 5 5 5 5
          5 5 5 5
        </DataArray>
      </Cells>
    </Piece>
  </UnstructuredGrid>
</VTKFile>
