<?xml version="1.0"?>
<VTKFile type="UnstructuredGrid" version="0.1" byte_order="LittleEndian" header_type="UInt32" compressor="vtkZLibDataCompressor">
  <UnstructuredGrid>
    <Piece NumberOfPoints="32" NumberOfCells="44">
      <PointData>
        <DataArray type="Float64" Name="proc" format="ascii" RangeMin="0" RangeMax="1">
          0 0 0 0 0 0
          0 0 0 0 0 0
          0 0 0 0 0 0
          0 0 0 0 0 0
          0 0 0 1 1 1
          1 1
        </DataArray>
        <DataArray type="Float64" Name="Displacement" NumberOfComponents="3" format="ascii" RangeMin="9.46363288402467e-11" RangeMax="8.85479501700198e-10">
          2.1070715866068073e-10 0 0 -9.4324590128646e-11 -7.675052665763733e-12 0
          2.0283868765799805e-10 -3.926961459935638e-10 0 -1.680702872612402e-10 -4.554970347130984e-10 0
          -3.8927449286864725e-10 -9.633948296402189e-12 0 1.9096621467230783e-11 -6.503011718025453e-10 0
          -4.686118418975255e-10 -3.0726383620556415e-10 0 1.639728342959964e-10 -7.365439777195443e-10 0
          -6.968246606161675e-11 -6.920296006169978e-10 0 5.519479799107239e-11 -7.945326626685043e-10 0
          -6.732887917514929e-10 -1.4275591995630371e-11 0 -2.19409540461001e-10 -5.559385992377359e-10 0
          -2.2614016786335685e-10 -3.987878973395218e-10 0 1.0907274885129469e-10 -8.787360715193461e-10 0
          -5.7507951598136424e-11 -6.408633525775186e-10 0 6.016120940443757e-11 -8.294149990991294e-10 0
          -4.052827127975269e-10 -1.0965305593875691e-10 0 1.0025665825598564e-10 -5.616833448809621e-10 0
          -3.099052488544004e-10 -1.959061287735467e-10 0 1.0244180338808575e-10 -5.577887001706183e-10 0
          5.4501241349621216e-11 -6.783105470347983e-10 0 1.3248990541407053e-10 -8.665047159061346e-10 0
          1.0239742210715404e-10 -5.533984809686501e-10 0 1.1091942423957244e-10 -5.578002265343744e-10 0
          1.0252391784389299e-10 -5.421232352267587e-10 0 1.1255462542057995e-10 -5.477554146420594e-10 0
          1.1431553935643607e-10 -5.352928186037406e-10 0 1.0250847862329344e-10 -5.2840773010967e-10 0
          1.2458762865708742e-10 -6.546883976891361e-10 0 1.7828170648792085e-10 -7.964497320316222e-10 0
          7.885339375466697e-11 -8.451372384138266e-10 0 1.1599086378459474e-10 -5.204611288287176e-10 0
          <InformationKey name="L2_NORM_RANGE" location="vtkDataArray" length="2">
            <Value index="0">
              9.463632884e-11
            </Value>
            <Value index="1">
              8.854795017e-10
            </Value>
          </InformationKey>
        </DataArray>
        <DataArray type="Float64" Name="TopologicalDerivative1" format="ascii" RangeMin="-0.053570213044029744" RangeMax="0.47438862901643736">
          -0.028251372379992836 -0.0409277593962257 0.03592298138321704 -0.03450394331779587 -0.05052393080225848 0.16145889878046743
          -0.021477093836004227 0.47438862901643736 -0.041320865502814996 0.318593296622301 0.0017386358971929333 -0.011838960030370639
          0.03573168184388389 0.35997851340994386 -0.03277595490859468 0.1729150521012381 -0.013619126982941418 -0.014886876648457427
          0.02909858207241036 0.024862669343670547 -0.03704618700985319 0.15746790204544436 -0.04642197858950881 -0.05162651638576996
          -0.04744534975504219 -0.053469970143310605 -0.053468918745032755 -0.04732924874801564 -0.03861072207094663 0.1048626188433564
          0.1768963993400965 -0.053570213044029744
        </DataArray>
      </PointData>
      <CellData>
        <DataArray type="UInt8" Name="vtkGhostType" format="ascii" RangeMin="0" RangeMax="0">
          0 0 0 0 0 0
          0 0 0 0 0 0
          0 0 0 0 0 0
          0 0 0 0 0 0
          0 0 0 0 0 0
          0 0 0 0 0 0
          0 0 0 0 0 0
          0 0
        </DataArray>
        <DataArray type="Float64" Name="Stress" NumberOfComponents="6" format="ascii" RangeMin="5.54941903203856e-7" RangeMax="5.688643374262864">
          0.013813944884485636 -0.02002275014596841 0 0.011051155907588189 0 0
          -0.000020484041720688193 0.0000021564183652848545 0 6.301454677314822e-7 0 0
          7.872230468679493e-8 -3.551611416926003e-7 0 -4.190750268244649e-7 0 0
          -0.0000016432096930872161 -4.175361740656932e-7 0 0.0000017550001316843978 0 0
          0.0005946889190776666 0.0019873562263951136 0 0.0002035547641618569 0 0
          -0.00035605971393570704 0.0016165897791796243 0 -0.000039852616351589847 0 0
          0.0005457329728796909 0.0018184923407749873 0 -0.0001809295277267322 0 0
          -1.1732388754988747 -1.1732388754988747 0 1.1732388754988747 0 0
          -0.000018727887279273033 0.000002981756309389745 0 0.000003413687930559218 0 0
          -0.000029414409499985645 -0.000012417477619883173 0 0.000012883694345803376 0 0
          0.0003523908908061907 0.001260266856734038 0 0.0008082553216234488 0 0
          -0.019191987627877695 0.005240995964852125 0 0.006998676040661489 0 0
          -0.0009919704838481848 0.0011737994384163563 0 0.0007265606662893063 0 0
          -0.0019672381765235237 -0.00008139703389716641 0 0.001664167194465393 0 0
          -3.7800928060676036 -2.002791352612589 0 1.327084398255511 0 0
          -0.48571822432737466 1.4841965626563995 0 -0.10791324041925796 0 0
          -1.9096142716223192 -0.05612506782615777 0 0.8561877175390308 0 0
          -5.205542150266011 -0.8579250778539171 0 2.12766513392922 0 0
          -0.16460771962934484 1.973239243948833 0 -0.1977246089895323 0 0
          -1.5168084281530163 -0.37427573142030174 0 0.8952624059046073 0 0
          -0.1263825217366646 1.4023270308125846 0 -0.19736247791174572 0 0
          -0.8072836312393048 0.11162742248017715 0 0.04407850342151638 0 0
          -0.003175290726330624 -0.0006162103636411047 0 0.0003167940763130772 0 0
          0.07910041366847276 1.8890008537789913 0 -0.4078018424748512 0 0
          -0.0013816569274620976 -0.00016005103050309617 0 0.0005849114204504321 0 0
          -0.000046059897932142046 0.000011711616767756744 0 0.000017709898159934565 0 0
          -0.0017072661324823671 0.0007851764462400274 0 0.000025424979166278138 0 0
          -0.891642175786137 0.18719015179643061 0 0.18765073883766203 0 0
          -0.7906403338835878 0.8902255034037514 0 0.23961188676835815 0 0
          -0.5584777878016491 0.2780234975941007 0 0.23384382045577573 0 0
          -1.399356271883018 0.4143330303849023 0 0.13823974671881428 0 0
          -0.4413705173203253 0.11833525234155359 0 0.2414131906533853 0 0
          0.49505905388076077 -0.106605887961252 0 -0.08709178172661936 0 0
          -0.6421622792674028 0.1086812607911958 0 0.05101455823342124 0 0
          0.3505818309829901 -0.07510120430741977 0 0.19333335664860715 0 0
          -0.16828244308202756 -0.010551077652741853 0 -0.02716921678423008 0 0
          -3.722741460273654 0.05283567004889787 0 1.527398039593375 0 0
          0.00008481299973752562 -0.00016888758696581503 0 0.00019922010986270537 0 0
          -0.5146005176000147 -0.016370920110756415 0 -0.005096717806329866 0 0
          -0.0000037174574515431695 -0.00002462198480312441 0 0.000009946618484476608 0 0
          -2.5565308614381195 -0.5585172183110965 0 1.2368372085940635 0 0
          0.29561986884936076 0.018380199739115186 0 0.03391597309121734 0 0
          -0.004133900354205828 0.01666034439508365 0 0.01086440378805744 0 0
          -0.000019667670599213647 0.00000145407512896729 0 -0.0000010653295417076144 0 0
          <InformationKey name="L2_NORM_RANGE" location="vtkDataArray" length="2">
            <Value index="0">
              5.549419032e-07
            </Value>
            <Value index="1">
              5.6886433743
            </Value>
          </InformationKey>
        </DataArray>
        <DataArray type="Float64" Name="Strain" NumberOfComponents="6" format="ascii" RangeMin="4.86807784115112e-15" RangeMax="3.1063840528915634e-11">
          3.147388401073065e-13 -3.837526332881866e-13 0 4.562584002762163e-13 0 0
          -8.804569679280683e-14 3.4590128672880464e-14 0 6.82657590042439e-15 0 0
          7.719610299773956e-16 -1.5782409712443279e-15 0 -4.5399794572650375e-15 0 0
          -6.324786836947949e-15 3.1427805775196455e-16 0 1.9012501426580974e-14 0 0
          -6.324786836947949e-15 7.53728979446589e-12 0 2.2051766117534503e-12 0 0
          -3.5043193653733106e-12 7.180865389001403e-12 0 -4.3173667714222324e-13 0 0
          7.719610299773956e-16 6.894885203796167e-12 0 -1.9600698837062655e-12 0 0
          -4.768873197156327e-12 -4.768873197156328e-12 0 1.7712957589437786e-11 0 0
          -8.176005905037481e-14 3.583384372154856e-14 0 3.698161924772487e-14 0 0
          -1.0703819255841953e-13 -1.4971478207864505e-14 0 1.395733554128699e-13 0 0
          -1.0703819255841953e-13 4.810623289550753e-12 0 8.756099317587363e-12 0 0
          -4.238810425743348e-13 2.2452467941547937e-13 0 3.714635647255319e-13 0 0
          -5.600459647387881e-12 6.130794098211714e-12 0 7.871073884800819e-12 0 0
          -8.095079443143228e-12 2.119893412749546e-12 0 1.802847794004176e-11 0 0
          -1.488473931792177e-11 -4.067404709263552e-12 0 1.6154283745116012e-11 0 0
          -5.6004596473878815e-12 9.805027040371508e-12 0 -1.6878455857040582e-12 0 0
          -1.4860910007931043e-11 4.0572730855910965e-12 0 1.747786387927571e-11 0 0
          -2.061735261212431e-11 2.932239863441189e-12 0 2.3049705617566546e-11 0 0
          -3.2619199769627836e-12 8.720339018615249e-12 0 -2.2164238274067977e-12 0 0
          -1.2460115071826219e-11 7.165148908765965e-13 0 2.0649809805633524e-11 0 0
          -3.5043193653733106e-12 9.225453983132144e-12 0 -3.2869286479257453e-12 0 0
          -3.5032160749306576e-12 1.4742187993832026e-12 0 4.775171203997606e-13 0 0
          -1.2460115071826219e-11 1.4015702260753447e-12 0 3.431935826725003e-12 0 0
          -2.145233615177144e-12 8.206404355016974e-12 0 -4.664805801826334e-12 0 0
          -5.556840076296536e-12 1.0601918655647216e-12 0 6.336540388213011e-12 0 0
          -2.0655576234362112e-13 1.0637327561416399e-13 0 1.9185723006595777e-13 0 0
          -8.095079443143231e-12 5.405651191603074e-12 0 2.7543727430134654e-13 0 0
          -6.016609570391924e-12 2.886316903085176e-12 0 3.097127677493512e-12 0 0
          -6.492183773302717e-12 6.920059577960706e-12 0 3.823901781928139e-12 0 0
          -2.7385226782572004e-12 1.90095607330463e-12 0 2.5939313068128457e-12 0 0
          -6.4921837733027155e-12 3.5542070898671268e-12 0 1.5314756795733172e-12 0 0
          -1.986962887594964e-12 1.0447766980735465e-12 0 2.6153095654116744e-12 0 0
          2.1960034177880678e-12 -1.063015017189501e-12 0 -9.434943020383759e-13 0 0
          -2.8115277396031723e-12 1.255541435714236e-12 0 5.526577141953968e-13 0 0
          1.5546341344800668e-12 -7.511489733429866e-13 0 2.0944446970265777e-12 0 0
          -7.528677528967339e-13 1.8208143012917732e-13 0 -3.22089864203426e-13 0 0
          -1.5577467338701342e-11 4.8735754505458085e-12 0 1.65468120955949e-11 0 0
          1.617973847400942e-13 -2.3208218496140906e-13 0 6.18593217841978e-13 0 0
          -2.1237051731949494e-12 5.750384798718667e-13 0 -5.521444290190689e-14 0 0
          1.5288074955808974e-14 -9.794478153192272e-14 0 1.0775503358182992e-13 0 0
          -1.524251100796654e-11 1.3299340367716756e-12 0 2.0517794499774012e-11 0 0
          1.2087742038651092e-12 -2.9294067048205435e-13 0 3.674230418215212e-13 0 0
          -1.5907864723053973e-13 3.118252832188267e-13 0 4.920679262429134e-13 0 0
          -8.376622140793264e-14 3.06432346197141e-14 0 -1.154107003516582e-14 0 0
          <InformationKey name="L2_NORM_RANGE" location="vtkDataArray" length="2">
            <Value index="0">
              4.8680778412e-15
            </Value>
            <Value index="1">
              3.1063840529e-11
            </Value>
          </InformationKey>
        </DataArray>
      </CellData>
      <Points>
        <DataArray type="Float32" Name="Points" NumberOfComponents="3" format="ascii" RangeMin="92.44066980668491" RangeMax="215.40659228538016">
          200 0 0 200 20 0
          175 0 0 170.3333282470703 25.352571487426758 0
          200 40 0 157 13.358983993530273 0
          180 45.35898208618164 0 150 0 0
          150 28.038475036621094 0 142.39999389648438 13.887187004089355 0
          200 60 0 160 45.35898208618164 0
          171.6666717529297 62.23291015625 0 125 0 0
          140 45.35898208618164 0 130 28.038475036621094 0
          200 80 0 150 62.67949295043945 0
          180 80 0 160 80 0
          120 45.35898208618164 0 110.71759033203125 23.771137237548828 0
          130 62.67949295043945 0 140 80 0
          110 62.67949295043945 0 120 80 0
          100 80 0 90 62.67949295043945 0
          100 45.35898208618164 0 89.30555725097656 23.870376586914062 0
          100 0 0 80 80 0
          <InformationKey name="L2_NORM_RANGE" location="vtkDataArray" length="2">
            <Value index="0">
              92.440669807
            </Value>
            <Value index="1">
              215.40659229
            </Value>
          </InformationKey>
        </DataArray>
      </Points>
      <Cells>
        <DataArray type="Int64" Name="connectivity" format="ascii" RangeMin="0" RangeMax="31">
          0 1 2 25 26 24
          24 26 27 25 24 22
          22 24 20 20 24 28
          28 24 27 16 18 10
          25 22 23 23 22 17
          17 22 14 23 17 19
          14 22 20 17 14 11
          19 17 12 14 20 15
          17 11 12 19 12 18
          15 20 21 12 11 6
          21 20 28 15 21 13
          6 11 3 21 28 29
          3 11 8 6 3 1
          8 11 14 3 8 5
          8 14 15 5 8 9
          8 15 9 9 15 13
          9 13 7 9 7 5
          5 7 2 5 2 3
          18 12 10 4 10 6
          21 29 30 1 4 6
          12 6 10 30 13 21
          3 2 1 27 26 31
        </DataArray>
        <DataArray type="Int64" Name="offsets" format="ascii" RangeMin="3" RangeMax="132">
          3 6 9 12 15 18
          21 24 27 30 33 36
          39 42 45 48 51 54
          57 60 63 66 69 72
          75 78 81 84 87 90
          93 96 99 102 105 108
          111 114 117 120 123 126
          129 132
        </DataArray>
        <DataArray type="UInt8" Name="types" format="ascii" RangeMin="5" RangeMax="5">
          5 5 5 5 5 5
          5 5 5 5 5 5
          5 5 5 5 5 5
          5 5 5 5 5 5
          5 5 5 5 5 5
          5 5 5 5 5 5
          5 5 5 5 5 5
          5 5
        </DataArray>
      </Cells>
    </Piece>
  </UnstructuredGrid>
</VTKFile>
