<?xml version="1.0"?>
<VTKFile type="UnstructuredGrid" version="0.1" byte_order="LittleEndian" header_type="UInt32" compressor="vtkZLibDataCompressor">
  <UnstructuredGrid>
    <Piece NumberOfPoints="32" NumberOfCells="44">
      <PointData>
        <DataArray type="Float64" Name="proc" format="ascii" RangeMin="0" RangeMax="1">
          0 0 0 0 0 0
          0 0 0 0 0 0
          0 0 0 0 0 0
          0 0 0 0 0 0
          0 0 0 1 1 1
          1 1
        </DataArray>
        <DataArray type="Float64" Name="Displacement" NumberOfComponents="3" format="ascii" RangeMin="2.5255221743344363e-10" RangeMax="8.725722987530746e-9">
          5.501648863280382e-9 0 0 4.055338590857605e-9 -2.8926368712188718e-11 0
          5.470701288349499e-9 -1.8538311243314808e-9 0 3.7146194707101987e-9 -2.178736059660431e-9 0
          2.8170121250315878e-9 -1.726466725422588e-10 0 4.543768488843235e-9 -3.100972145298961e-9 0
          2.451450712199133e-9 -1.5273967724660088e-9 0 5.443920509636558e-9 -3.5759280074905566e-9 0
          3.5655077519700672e-9 -3.5748413586027926e-9 0 4.50903632097162e-9 -4.082937620146948e-9 0
          1.4803049659776907e-9 -2.005366975537875e-10 0 2.4514523580122647e-9 -2.8543406788952937e-9 0
          1.3321860927551156e-9 -2.0802877956953076e-9 0 5.416316224767286e-9 -5.2285865998220674e-9 0
          2.4424310377989124e-9 -4.236834844291545e-9 0 3.5786101169421846e-9 -4.8989135815092975e-9 0
          1.534963899010989e-10 -2.005529376944631e-10 0 1.3026490518179345e-9 -3.517727607819738e-9 0
          1.5351263004177428e-10 -1.5274218342935608e-9 0 1.5359637685450207e-10 -2.8542597982897064e-9 0
          2.453574610323986e-9 -5.55156414789921e-9 0 3.861253234993644e-9 -6.16140714307266e-9 0
          1.3833163680447106e-9 -4.895745261980822e-9 0 1.5433904566177196e-10 -4.180823117282216e-9 0
          1.4930700972592482e-9 -6.213479767123932e-9 0 3.217120105026127e-10 -5.52732191247508e-9 0
          5.154596335806339e-10 -6.824420096650196e-9 0 1.6597358733526024e-9 -7.519126431138261e-9 0
          2.469978195377682e-9 -6.851085219987099e-9 0 3.858780654663112e-9 -7.542476402609623e-9 0
          5.397545340022787e-9 -6.856000726190218e-9 0 7.825741193881238e-10 -8.127514699060822e-9 0
          <InformationKey name="L2_NORM_RANGE" location="vtkDataArray" length="2">
            <Value index="0">
              2.5255221743e-10
            </Value>
            <Value index="1">
              8.7257229875e-09
            </Value>
          </InformationKey>
        </DataArray>
        <DataArray type="Float64" Name="TopologicalDerivative1" format="ascii" RangeMin="-0.0011051579021763111" RangeMax="0.0009046320140753735">
          0.0009046320140753735 0.00009439690311487787 0.0004965981819522749 -0.00022267616071225394 -0.0010089249057984029 -0.00010619916641342229
          -0.0010492767255815844 0.000105828050230897 -0.00038539017961168164 -0.0005865164892987672 -0.001100006971319322 -0.0010839663263529427
          -0.001105084950223383 -0.0005618495080440364 -0.0008448680549970344 -0.0007993481896239191 -0.0011051579021763111 -0.0010676265918507673
          -0.0011051480129816594 -0.0011048325415513387 -0.0007720643589342662 -0.0007986876300964038 -0.0009435181495496015 -0.0009867086579996552
          -0.0007142573469606961 -0.000807882442195584 -0.00047922827554052274 0.00004445658898992932 -0.0005118947192129474 -0.0007686083626720966
          -0.0005536630616057942 0.0007671448291796212
        </DataArray>
      </PointData>
      <CellData>
        <DataArray type="UInt8" Name="vtkGhostType" format="ascii" RangeMin="0" RangeMax="0">
          0 0 0 0 0 0
          0 0 0 0 0 0
          0 0 0 0 0 0
          0 0 0 0 0 0
          0 0 0 0 0 0
          0 0 0 0 0 0
          0 0 0 0 0 0
          0 0
        </DataArray>
        <DataArray type="Float64" Name="Stress" NumberOfComponents="6" format="ascii" RangeMin="4.0275357120576396e-7" RangeMax="2.209732201339">
          0.21204592524461466 -0.28350264697288025 0 0.16963674019572572 0 0
          -0.0023831151505465894 -0.00019381224536778216 0 0.00026026437619731946 0 0
          -0.011977076177671618 -0.00012888886372987123 0 0.002219861941471781 0 0
          -0.00132263719588223 -0.000018641484359253077 0 0.00013169094759898155 0 0
          -0.0014612270030470208 -0.0004806075082419007 0 0.0006704911538337965 0 0
          -0.0002718359917668512 -0.00024997657040831716 0 0.0008351786818151022 0 0
          -0.012872553915212257 -0.00505894560095535 0 0.0071754836507991575 0 0
          -2.7840241157870955e-7 -2.784024115804991e-7 0 2.7840241156677904e-7 0 0
          -0.002016752990857795 -0.00002759137589235184 0 0.00011091160404714045 0 0
          -0.0009453716004124548 0.00007545398102953014 0 0.000025339278528188092 0 0
          -0.0009262539083455996 0.0001391796212523805 0 0.0005006957530806473 0 0
          -0.000008943092889151732 -1.0355733970998647e-7 0 8.324237706203793e-7 0 0
          -0.00015400933891465077 -0.00006762156204590146 0 0.00039385514476444184 0 0
          0.0002462289305715935 0.0004599102933712137 0 0.0002823638434616766 0 0
          -9.225148651915543e-7 1.8964861083190477e-7 0 4.785271861446378e-7 0 0
          -0.0001254140496041073 0.00002769606898924345 0 0.00004253745285147215 0 0
          -8.065386289838196e-7 4.1461293330997555e-7 0 0.0000013848133648077167 0 0
          -0.0000010293975285455324 -8.145258604100612e-8 0 3.3206344059636907e-7 0 0
          -0.0000577922955779552 0.00000831665615047446 0 0.00003242000261404023 0 0
          -1.1157594940960384e-8 2.864054213815092e-8 0 0.0000014899579144671155 0 0
          -0.00019172274381491146 0.00001706758943146126 0 0.00001123588089817714 0 0
          -0.000035265973591818556 0.000009949580453766093 0 -0.000005441432481999446 0 0
          0.00003945899771912659 0.00013159582492236333 0 0.000296219183639977 0 0
          -0.00004254503648323928 0.0000050997459918322295 0 -0.00000353580133452616 0 0
          -0.00014111961254703972 0.0003940016069947869 0 0.00048045065939974314 0 0
          -0.003990610814368669 -0.015055753795499515 0 0.020937053104365146 0 0
          0.0002525942442529023 0.00048112800564224323 0 0.0004194707765125386 0 0
          -0.0003747542449354538 0.0000054762675571722996 0 0.00012338085723904201 0 0
          -0.00017258372273522662 -0.00005118447689937736 0 0.00009087820046856499 0 0
          -0.000025406086356361424 -0.00005859307554018851 0 0.00005477086336000364 0 0
          -0.00014510924614153026 0.00004039711174627716 0 -0.000010979740526468048 0 0
          0.00005309763659221627 0.000020555470915731962 0 0.000023016292936410427 0 0
          0.006678774437778841 -5.983879256643392e-7 0 -0.0014174984130407918 0 0
          0.0006868009755778602 0.005856663026048213 0 -0.0005885633264449088 0 0
          0.21856396366943737 -0.05289124891798217 0 0.07918622775310949 0 0
          0.012258077384306865 -0.006133817520491553 0 -0.0007940306576017492 0 0
          -1.2490309301486536e-7 -6.343334296139018e-8 0 3.7760543888437167e-7 0 0
          -0.00001285971701138941 -0.00033853821524176163 0 0.00004878383657969614 0 0
          -0.000037440795247335615 0.000022141082744977615 0 -0.000004185287669916199 0 0
          -0.0009945217379911343 -0.014189791067055566 0 0.002896480030292912 0 0
          -3.8005204869494726e-8 -3.5279931582950883e-7 0 0.0000012158027523007478 0 0
          0.00018775458313458467 0.00002518029862464844 0 0.00001196059420919324 0 0
          -0.1826658414441214 0.046893969260754724 0 0.22428922765702736 0 0
          -2.1563971173694596 -0.25910061705382603 0 0.4071053230768593 0 0
          <InformationKey name="L2_NORM_RANGE" location="vtkDataArray" length="2">
            <Value index="0">
              4.0275357121e-07
            </Value>
            <Value index="1">
              2.2097322013
            </Value>
          </InformationKey>
        </DataArray>
        <DataArray type="Float64" Name="Strain" NumberOfComponents="6" format="ascii" RangeMin="3.2272471913891847e-15" RangeMax="1.605239904067433e-11">
          1.237902997235328e-12 -1.446318435609436e-12 0 1.837731352120362e-12 0 0
          -9.687381153901061e-12 2.1713429158174773e-12 0 2.819530742137627e-12 0 0
          -8.333288804667713e-12 2.4181162722876962e-12 0 4.028740315338524e-12 0 0
          -5.4876864607268895e-12 1.5756236433558993e-12 0 1.4266519323223002e-12 0 0
          -5.487686460726876e-12 -1.7599753053247658e-13 0 7.263654166532795e-12 0 0
          -8.201792526848166e-13 -7.017740536594241e-13 0 9.04776905299694e-12 0 0
          -8.333288804667713e-12 -8.786046607950123e-13 0 1.3691744465519037e-11 0 0
          -8.120070337689992e-16 -8.120070337786927e-16 0 3.0160261253067724e-15 0 0
          -8.368648242042037e-12 2.4059771723541107e-12 0 1.201542377177355e-12 0 0
          -4.033365811338807e-12 1.4961060881386102e-12 0 2.7450885072203775e-13 0 0
          -4.033365811338807e-12 1.7377324739835844e-12 0 5.424203991707013e-12 0 0
          -3.7133440363494737e-14 1.0747377195981387e-14 0 9.017924181720777e-15 0 0
          -5.57178626253668e-13 -8.924483488127593e-14 0 4.266764068281454e-12 0 0
          4.510660106676222e-13 1.6085067258322323e-12 0 3.0589416375014965e-12 0 0
          -4.0808727018380245e-15 1.9433461266223794e-15 0 5.184044516566909e-15 0 0
          -5.57178626253668e-13 2.7216784946031515e-13 0 4.608224058909481e-13 0 0
          -3.8788437874033845e-15 2.735727175021339e-15 0 1.5002144785416932e-14 0 0
          -4.1873406363884605e-15 9.473611355110567e-16 0 3.5973539397939985e-15 0 0
          -2.5119705176290636e-13 1.0689310343275424e-13 0 3.512166949854359e-13 0 0
          -8.229065659335692e-17 1.33282585918496e-16 0 1.614121074006042e-14 0 0
          -8.20179252684791e-13 3.107683857330612e-13 0 1.2172204306358567e-13 0 0
          -1.5937853219978493e-13 8.553905221379856e-14 0 -5.894885188832733e-14 0 0
          -8.229065659335692e-17 4.989921900276055e-13 0 3.209041156099751e-12 0 0
          -1.8364566783662055e-13 7.443023723668338e-14 0 -3.830451445736674e-14 0 0
          -1.080500394356149e-12 1.8180728781620782e-12 0 5.204882143497218e-12 0 0
          8.580439342106223e-14 -2.260200729664028e-12 0 8.878047744869785e-12 0 0
          4.510660106676222e-13 1.688957218193219e-12 0 4.5442667455525024e-12 0 0
          -1.5683213550108559e-12 4.91260587657535e-13 0 1.3366259534229552e-12 0 0
          -6.551182486058892e-13 2.460999671627617e-15 0 9.84513838409454e-13 0 0
          -3.26173487262703e-14 -2.123802068053337e-13 0 5.933510197333728e-13 0 0
          -6.551182486058892e-13 3.4970785661973424e-13 0 -1.189471890367372e-13 0 0
          1.955458138229028e-13 1.927574974194617e-14 0 2.4934317347777966e-13 0 0
          1.1041713947708991e-12 -3.3134144117732805e-13 0 -6.092898899206674e-13 0 0
          -5.774822165340093e-14 3.049094043797261e-13 0 -8.257356836794188e-14 0 0
          1.0712311485176123e-12 -5.413035303587872e-13 0 9.407853113166674e-13 0 0
          1.0319998623472322e-13 -7.181897567520577e-14 0 -1.5112137399377947e-14 0 0
          -4.4113787552686777e-16 -1.0817672940387745e-16 0 4.090725587914026e-15 0 0
          3.695906148380794e-13 -1.3945012505764363e-12 0 5.284915629467082e-13 0 0
          -1.8367966696178702e-13 1.3905550549657624e-13 0 -4.534061642409214e-14 0 0
          1.6876419679405395e-12 -7.186015191503503e-12 0 3.895694754995614e-12 0 0
          2.8264412449732466e-16 -1.422490643202751e-15 0 1.3171196483258101e-14 0 0
          7.508353897799588e-13 -1.2977531798219565e-13 0 1.2957310393292675e-13 0 0
          -1.0471700494616204e-12 5.412923141628989e-13 0 3.1039840606736654e-12 0 0
          -1.33557242903745e-11 2.49178794487863e-12 0 6.8008417107435976e-12 0 0
          <InformationKey name="L2_NORM_RANGE" location="vtkDataArray" length="2">
            <Value index="0">
              3.2272471914e-15
            </Value>
            <Value index="1">
              1.6052399041e-11
            </Value>
          </InformationKey>
        </DataArray>
      </CellData>
      <Points>
        <DataArray type="Float32" Name="Points" NumberOfComponents="3" format="ascii" RangeMin="92.44066980668491" RangeMax="215.40659228538016">
          200 0 0 200 20 0
          175 0 0 170.3333282470703 25.352571487426758 0
          200 40 0 157 13.358983993530273 0
          180 45.35898208618164 0 150 0 0
          150 28.038475036621094 0 142.39999389648438 13.887187004089355 0
          200 60 0 160 45.35898208618164 0
          171.6666717529297 62.23291015625 0 125 0 0
          140 45.35898208618164 0 130 28.038475036621094 0
          200 80 0 150 62.67949295043945 0
          180 80 0 160 80 0
          120 45.35898208618164 0 110.71759033203125 23.771137237548828 0
          130 62.67949295043945 0 140 80 0
          110 62.67949295043945 0 120 80 0
          100 80 0 90 62.67949295043945 0
          100 45.35898208618164 0 89.30555725097656 23.870376586914062 0
          100 0 0 80 80 0
          <InformationKey name="L2_NORM_RANGE" location="vtkDataArray" length="2">
            <Value index="0">
              92.440669807
            </Value>
            <Value index="1">
              215.40659229
            </Value>
          </InformationKey>
        </DataArray>
      </Points>
      <Cells>
        <DataArray type="Int64" Name="connectivity" format="ascii" RangeMin="0" RangeMax="31">
          0 1 2 25 26 24
          24 26 27 25 24 22
          22 24 20 20 24 28
          28 24 27 16 18 10
          25 22 23 23 22 17
          17 22 14 23 17 19
          14 22 20 17 14 11
          19 17 12 14 20 15
          17 11 12 19 12 18
          15 20 21 12 11 6
          21 20 28 15 21 13
          6 11 3 21 28 29
          3 11 8 6 3 1
          8 11 14 3 8 5
          8 14 15 5 8 9
          8 15 9 9 15 13
          9 13 7 9 7 5
          5 7 2 5 2 3
          18 12 10 4 10 6
          21 29 30 1 4 6
          12 6 10 30 13 21
          3 2 1 27 26 31
        </DataArray>
        <DataArray type="Int64" Name="offsets" format="ascii" RangeMin="3" RangeMax="132">
          3 6 9 12 15 18
          21 24 27 30 33 36
          39 42 45 48 51 54
          57 60 63 66 69 72
          75 78 81 84 87 90
          93 96 99 102 105 108
          111 114 117 120 123 126
          129 132
        </DataArray>
        <DataArray type="UInt8" Name="types" format="ascii" RangeMin="5" RangeMax="5">
          5 5 5 5 5 5
          5 5 5 5 5 5
          5 5 5 5 5 5
          5 5 5 5 5 5
          5 5 5 5 5 5
          5 5 5 5 5 5
          5 5 5 5 5 5
          5 5
        </DataArray>
      </Cells>
    </Piece>
  </UnstructuredGrid>
</VTKFile>
