<?xml version="1.0"?>
<VTKFile type="UnstructuredGrid" version="0.1" byte_order="LittleEndian" header_type="UInt32" compressor="vtkZLibDataCompressor">
  <UnstructuredGrid>
    <Piece NumberOfPoints="164" NumberOfCells="275">
      <PointData>
        <DataArray type="Float64" Name="Velocity" NumberOfComponents="3" format="ascii" RangeMin="0" RangeMax="1.4781677232121844">
          1.0000848088727206 0 0 1.000061809074194 0.000005620202195607637 0
          1.0000857626448973 0 0 1.00006479162645 0.000026300208266527666 0
          1.000026255128923 0.000012922535751134404 0 1.0001356127723902 0 0
          1.0001077653441461 0.0000654661359435423 0 1.0000384727791214 0.00007022854868784126 0
          0.9999954525684046 0.00003445241156819822 0 0.9999932411609277 -0.000013562315452965783 0
          1.0003300963305184 0 0 1.000052639633557 0.00014278975767301408 0
          1.0001782005926505 0.000188479119262404 0 0.9999758935926288 0.00009516168681460609 0
          0.9999503648901549 0.000037421590036052514 0 0.9999649920944287 0.000010089905077442655 0
          1.000499133674992 0 0 1.00008487656455 0.00029065593303709194 0
          0.9999260075473042 0.00019847897131531494 0 1.000324586032292 0.0003916640627796948 0
          0.9998954463992515 0.000077702011214592 0 0.9999563172139748 0.000005608313753622945 0
          0.9998481677293906 0.0004056645343208772 0 1.0001189032700557 0.0005836552476698943 0
          0.9999136139448676 0.000006143589131671546 0 0.9999570625777789 -0.000005794072634876436 0
          1.0010838821121697 0 0 0.9997537205819018 0.0001457971002220451 0
          1.0006251064168379 0.0008581106051831183 0 0.9998145757620226 -0.000006121960906971593 0
          0.9999478006605453 -0.000017518936209700768 0 0.9995214322057027 0.0008338135229030306 0
          0.9994682911046024 0.000256224086876392 0 1.0003494721552686 0.0012274437189939845 0
          0.9999115900806498 -0.000057826084365327887 0 0.9999715255451423 0.000005051161877799968 0
          1.0019117739470471 0 0 0.9996625691906211 -0.000054078122680793793 0
          1.0014450054656365 0.0015004887843676664 0 0.9999723537800885 -0.000013928633658581716 0
          0.9998321131376903 -0.0001653231853540959 0 0.9999711707639286 -0.000049548617745316245 0
          0.9989674978112206 0.0005531938502999673 0 0.9992451584857079 0.0016647071882955277 0
          0.9990760887447189 -0.0001931989894313362 0 0.9998929057423773 0.0027670469000827965 0
          0.9999771353193149 -0.00012596321914840178 0 0.9999808200839866 -0.000005124350216204412 0
          1.0046541778286675 0 0 0.9996657925767648 -0.0003777271829139443 0
          1.0022616098122332 0.003821518016436828 0 0.9999952564110552 -0.000021600162342035048 0
          0.9999927524215179 -0.0003013701933574282 0 0.9965970211598294 0.0009692907856308062 0
          0.9985607180780884 -0.0005386894069792282 0 0.9981986780615444 0.003927904832209384 0
          1.0000296163363265 -0.00005849759359768712 0 0.9994582459699017 -0.0009758299615111672 0
          1.003604861465396 0.004457248903855804 0 1.0001145894596746 -0.0001351367139000172 0
          0.9999937595899286 0 0 1.0069072891626667 0 0
          1.0000667617574117 -0.0006984391001945305 0 0.9999943542087094 0 0
          1.0071823898234782 0.005035640555043401 0 1.0000276502742074 0 0
          0.9956783887724394 -0.0010792883012070336 0 0.9973300087313212 0.0019102167160857282 0
          1.000290999776736 -0.00033570856360725873 0 0.9981767586369571 -0.0020834633635373875 0
          0.992158638234642 0.008560613928487025 0 1.000097405896246 0 0
          1.0000360085004119 -0.001662559684523834 0 0.9958779301178177 0.015838702235199637 0
          1.000291485923509 0 0 1.0192478070685789 0 0
          1.0008377368745722 -0.0006674628483663329 0 1.0102111752942737 0.01164785505298182 0
          0.9998435645485527 -0.006847448471740422 0 0.9791256373190788 0.007133561680014822 0
          1.0014815052229735 -0.002658613332823139 0 1.0152884924233418 0.014861250071356316 0
          1.0006553419204924 0 0 0.9861233143233651 -0.0027508275118181854 0
          1.0016640219627633 -0.0018123429272517407 0 1.0337915841740226 0.01350507650153516 0
          1.00153915793676 0 0 1.0184718362174154 0 0
          0.9697894280519043 0.05246990627136272 0 0.9975801603447089 -0.010987290985581714 0
          1.0038388750160343 -0.0034555709357759617 0 0.916031622824993 0.054004519792905555 0
          0.9711292729255719 -0.04591677815010372 0 1.0038813808568001 0 0
          0.9508519586929246 0.0693414542208312 0 1.0576802765188074 0.007425991865274371 0
          1.0135749645910104 -0.01530160429316521 0 1.0312842359666057 0 0
          1.012957666664265 -0.004089850226530125 0 1.001530332553638 -0.023555486031057508 0
          1.0064004706630711 0 0 0.8850668144988899 -0.000651936465568388 0
          0.907307216097347 -0.08633508659576007 0 1.021289877005094 0.05887463732910566 0
          1.0587814187637858 0.00006081671099223454 0 1.3528323822548385 0.15811863264037895 0
          1.0396719487793065 -0.020926061990700337 0 1.041002946854819 0 0
          1.0133904983733897 0 0 0 0 0
          1.0214628255242528 -0.014202115443180296 0 1.4649294498642131 -0.1973867393388596 0
          1.3482305172048719 -0.055864079196911096 0 1.046833998263948 -0.01823194781488339 0
          1.0055873364047125 -0.07636087203589693 0 1.0529795471395125 -0.005377569373467782 0
          0 0 0 1.0325277984050723 0 0
          0 0 0 1.0240117212991846 0 0
          0 0 0 0 0 0
          1.0580066727413886 -0.013019348068368738 0 1.042248310862316 -0.024977299818261894 0
          1.2985361293612936 -0.24547178500737463 0 0.9745606255475039 -0.06312201681978671 0
          1.2670625624240348 0.031765514915070917 0 0.8779088592237168 0.043505817390442576 0
          1.0540397336754013 0.017772502663977542 0 1.3923515123260972 0.297095779389156 0
          1.0346912976277112 0 0 1.0231408275965812 0 0
          0.9558692829024803 -0.033171723705384064 0 1.016891076695829 -0.02040425172680845 0
          1.036774061611024 -0.0755574824929191 0 0.8891985728758653 -0.043270491311648514 0
          0.9430379317945986 0.09439324960357977 0 1.0511746886834856 0.007776223088080888 0
          1.0456443158325925 0 0 0.9499734255222059 0.06543214377271699 0
          1.020727014156571 0.0324611093035969 0 0.9791556349662448 -0.010105494285937714 0
          0.948822356785545 0 0 0.9446075329423351 0.007337018586114477 0
          0.9512822385133618 0.007410786220838771 0 0.9904817250445268 -0.007223272958350298 0
          0.9507820445455822 0.06240224179668571 0 1.0266021709437811 0 0
          1.0364193462269153 0.01801407010654271 0 1.0389451295846501 0.019349380460167806 0
          0.9429468895303571 -0.005579567155191636 0 0.9999999920125814 0 0
          0.9999999920125812 0 0 0.9748940922364038 0.025785785005047288 0
          0.9999999920125812 0 0 1.0308708326511156 0 0
          0.9999999920125812 0 0 0.9552246908658631 0.010085627428615738 0
          0.9999999920125813 0 0 0.9999999920125815 0 0
          1.0019413709457263 0 0 0.9999999920125813 0 0
          0.9999999920125813 0 0 0.9999999920125813 0 0
          <InformationKey name="L2_NORM_RANGE" location="vtkDataArray" length="2">
            <Value index="0">
              0
            </Value>
            <Value index="1">
              1.4781677232
            </Value>
          </InformationKey>
        </DataArray>
        <DataArray type="Float64" Name="Pressure" format="ascii" RangeMin="-0.00003656608566762054" RangeMax="158.45445883553734">
          0.000010368082457728326 -0.000012229706628275312 10.000793285089983 10.00059225310932 -0.000011932904077371498 20.00190534501176
          20.001408867261297 15.000479336470873 9.999971148386514 -0.000005605015231995432 30.003760163126213 25.00092187778893
          30.00267903295774 19.999860074263548 14.166215280351931 -0.00003656608566762054 40.007236364805905 35.00154156490585
          29.999486040261136 40.005050234963704 24.99882104038685 9.666267150899962 39.99842171312425 45.00254654586119
          19.998967598855014 -0.000017812629539061985 50.013891294984695 34.99731275572323 50.00957309807037 29.997808408475894
          14.166083929811595 49.99602996518051 44.99399807553823 55.003937388972325 24.998726989932944 -0.000003627910800097198
          60.027684689524555 39.9953319706047 60.018457882701654 9.999723901088075 34.99756801705313 19.99944980625636
          54.98637761969043 59.99024525399978 49.99038655208892 65.00793468009788 29.999178774420265 -0.000002133079062681125
          70.0540407721699 44.99541418641903 70.03783275785162 14.166467610044378 39.99900448441867 64.97125324942607
          59.97878090591342 69.97662588073173 24.999880092493573 54.990907839291964 75.01075199896576 35.000440270604166
          0.0000031851215428946538 80.11069921439316 49.99903653361558 9.999904164072024 80.07429981766205 19.999967313568234
          69.95481875353852 74.92986117913719 45.00222160637882 64.98282598967995 79.95806073865047 30.000476392978214
          60.00040450482818 85.04008764933003 40.0020415012215 90.2110138427785 55.006694089902766 90.56814470264928
          73.78467307614656 86.0974982201216 70.00158880029639 89.8631510289766 50.00619690047652 82.30372373097696
          65.01789728009601 97.12223799869285 60.015855072439834 100.43710518375451 94.62844112248501 81.68813932743082
          75.32359963672853 99.99178631814294 94.76302250602217 70.03790838421067 104.63631767546946 107.40225693787156
          93.0114691694339 110.73850314318196 85.0925000689971 91.27101613826649 80.08765328601831 104.06709993885748
          102.4921478756472 114.65951988669336 116.84618758388478 111.53055857281564 100.76342282805336 121.14951819847727
          90.19376288357317 112.93544401353198 98.98300403166498 111.10819924197125 122.81683269448033 124.77779542452743
          110.33839053688392 125.81048511882798 122.52170010582839 100.38086841786887 121.87454842989324 131.56138425817218
          130.32852901520982 129.5275266222667 112.5187134259088 133.43462036566984 131.75207088574606 133.03371689268158
          123.09937124754991 133.82812009807233 120.97645865924605 130.305544602438 110.71249110549391 141.78667883003223
          140.92799051740081 142.75207436961446 142.67786235976044 140.26401103288336 137.68118388129292 126.15022683828845
          121.14738819722629 135.20692351384392 132.55208174711157 149.5996826921275 151.86674595637498 151.67757734048146
          147.1664989656123 150.3309277753298 144.69201077274622 131.5732396616796 137.36053783601665 142.5598960245182
          153.37765805583575 157.12196040914972 158.0851097972895 151.2729782630972 157.97960278518673 141.8247602892572
          157.9895956120006 149.45802390629237 158.45445883553734 157.72276136856402 151.85912768270683 157.9542642059717
          158.2783956274376 157.26515187673903
        </DataArray>
        <DataArray type="Float64" Name="Sigma" NumberOfComponents="6" format="ascii" RangeMin="4.532478859224042e-8" RangeMax="0.08854063811082184">
          3.191389517664102e-8 2.0972933937431437e-8 0 -2.441261554282526e-8 0 0
          3.24121845396415e-7 -3.690193437095493e-7 0 1.415043795979943e-7 0 0
          -5.309551605398275e-7 4.6031104292539344e-7 0 -7.658534410439209e-7 0 0
          -6.666728760567724e-7 6.272483679173248e-7 0 -7.067763921994773e-7 0 0
          5.958444691079744e-8 3.10840486548249e-8 0 -8.052645563228798e-7 0 0
          -0.0000017157720278517348 0.000001807148981824025 0 -9.549845415218965e-7 0 0
          -0.0000011419378621221324 0.0000012648030290323704 0 -6.258968909149899e-7 0 0
          -2.7456363836958616e-7 2.336230342227478e-7 0 -7.955018288248977e-7 0 0
          4.757419086774009e-7 -4.656046629932274e-7 0 -0.0000013162320283630594 0 0
          -5.355370876197383e-7 5.103185224572217e-7 0 3.265976085153606e-7 0 0
          -0.000006539752754962237 0.000006510153756879528 0 -1.4549251303464923e-7 0 0
          -5.582516961933605e-7 5.855761730255962e-7 0 -0.000001804991781763133 0 0
          -3.484379683226272e-7 6.313608436760779e-8 0 -0.0000031634406432285687 0 0
          5.114239864407973e-7 -5.365886712174462e-7 0 -0.000001542399293713502 0 0
          5.802916100053008e-7 -5.178754155402247e-7 0 -1.7123599271036046e-7 0 0
          2.411806938761635e-8 -8.423277536578369e-8 0 -4.107902939326009e-7 0 0
          -0.000008744927421228165 0.00000931903110294325 0 -0.0000021357453865052635 0 0
          -0.0000017097389220153636 0.0000021325027853631118 0 -0.000003911642178592586 0 0
          0.0000016777498449377352 -0.0000015832204244867756 0 -0.000002642417952313186 0 0
          -0.000002212527395999122 0.000002399875790851345 0 -0.000004988332020027885 0 0
          0.000001654185700379275 -0.0000018996066374898328 0 -9.103435884227576e-7 0 0
          6.857321721544912e-7 -5.791409576167793e-7 0 -2.5527040058783796e-7 0 0
          0.000002841186897058177 -0.000004382078146022623 0 -0.000005434463254417573 0 0
          -9.937988084760787e-7 0.0000016051937701189261 0 -0.000007903444048982277 0 0
          0.0000010660814234383445 -0.0000011314638844784143 0 7.645751992710284e-8 0 0
          -7.538250913363513e-8 5.304451360899924e-8 0 1.8188430874984478e-7 0 0
          -0.00001989427291014777 0.000016537991859521725 0 -0.0000024169459880921416 0 0
          0.0000036489073338310974 -0.0000028574658240401306 0 -0.0000016867997572697907 0 0
          -0.000004534002650860538 0.000004470361687623768 0 -0.000010903613632201669 0 0
          0.0000029990745682143403 -0.000002668879074160147 0 4.560251685532945e-7 0 0
          4.0856651519447164e-7 -3.9950759670034365e-7 0 2.362013874313836e-7 0 0
          0.0000070831248046399535 -0.0000024550111237002002 0 -0.00001114571328498421 0 0
          0.000009729365602289614 -0.000010208491993285796 0 -0.0000029965972291169734 0 0
          -0.000009853912340269833 0.000008334513198065377 0 -0.00001778612415338347 0 0
          0.0000010086154889513326 -0.000001151964165816183 0 9.852136876723698e-7 0 0
          -2.275375664794139e-7 1.9953667635327172e-7 0 -7.302395495537124e-8 0 0
          -0.00003194460627992676 0.00004425540149297204 0 -0.00001106833716889883 0 0
          0.0000044820255063053465 -0.0000064088311156818554 0 0.0000013760536824050153 0 0
          -0.000014538647309811535 0.0000060372659844200174 0 -0.000017432691049526693 0 0
          1.2036222188409573e-7 -1.4812886602683735e-7 0 5.040561202067596e-7 0 0
          0.00000205348402653356 -0.0000017006190886407631 0 0.0000029835305553732217 0 0
          6.450030764895428e-8 -1.0123322060882132e-8 0 0.0000010712629634493724 0 0
          0.000012862944608497506 -0.00001738186053896129 0 -0.000007785604471053855 0 0
          0.000019071945885534196 -0.00003583909436340996 0 -0.000022204276070856364 0 0
          0.00001570700593840062 -0.000008849888432434689 0 0.000003939288144125274 0 0
          0.000005160359632757587 0.00001969157130254797 0 -0.00003745142562702452 0 0
          -3.42747408161205e-7 3.23157321902356e-7 0 0.0000021924905761060603 0 0
          6.61252881472082e-8 -2.973763920890928e-8 0 2.154540243445813e-7 0 0
          -0.00008494432716633004 0.000052289045934120426 0 -8.7853443882313e-7 0 0
          0.000005233017405949775 -0.000005305164669953768 0 0.000005881516486078734 0 0
          -0.000016907443707683682 0.000046599857234549024 0 -0.00005921491905783865 0 0
          -4.70763340992287e-7 4.92768073876747e-7 0 2.0196186216474073e-7 0 0
          -2.438754336108036e-7 1.0590980595905472e-7 0 0.000004956697354489502 0 0
          0.00006293359314864704 -0.000023378744936758782 0 -0.000012851295487638113 0 0
          0.000020929580928117266 -0.00003921720593663331 0 0.00001184077417982029 0 0
          0.0000026790108416126042 0.000018781006175637277 0 -0.00006616999269664152 0 0
          -0.0000010381535621623542 0.0000010049969346540162 0 7.466379947052398e-7 0 0
          0.000006079802647793977 -0.00001061392112857209 0 0.00001490611402001205 0 0
          -0.00006452856937962395 -0.000036035419545735375 0 -0.000049647286045902575 0 0
          -0.0000025228886761936525 0.0000024945597232794158 0 0.0000016135664563818365 0 0
          7.626817740893258e-8 -1.3286706821308864e-7 0 -1.1978907500481355e-7 0 0
          -0.00010173382744584936 0.00017046663547400982 0 -0.00005175140396306432 0 0
          -0.000004178802762106835 0.000004644784218401373 0 0.000011464164848977072 0 0
          -3.752321355387116e-7 3.440404648075354e-7 0 2.979982370000029e-7 0 0
          -0.00010065851170650826 0.00001873039565784577 0 -0.000010097397075956901 0 0
          -8.685006474764075e-7 8.067178007628771e-7 0 4.490665234744316e-7 0 0
          0.00008576666613795399 -0.00006827396584211386 0 0.0000012348663265017733 0 0
          0.00001951843670382013 -0.00018100679296007872 0 0.000007872250892140566 0 0
          -0.000005325424615373408 0.000006271637567607149 0 0.000004228539235521543 0 0
          0.00002613654616537703 -0.000001015071513394087 0 0.000031616692521070874 0 0
          0.0001688451690838602 -0.00011916278982420527 0 -0.00012481980155710004 0 0
          -0.0000022266059024518006 0.000002474726391504472 0 0.0000011091667970502854 0 0
          0.0000047200900297910145 -0.000001485180845465119 0 0.000029216576238333762 0 0
          -0.00005085726700126013 0.0003880549009171424 0 -0.00030112790196267414 0 0
          -0.000005967344385030084 0.000004956384888310243 0 0.000002291520163927199 0 0
          -0.0003135535597927672 0.0002098070403652183 0 -0.000014592233395910107 0 0
          -0.000015275730965443897 0.000010510028730230456 0 0.0000055773640057902436 0 0
          0.00000628471266016837 0.000025416013409301147 0 -0.0002238798818090502 0 0
          -0.00003595777577817064 -0.00003043986305087695 0 0.0001940623695815135 0 0
          0.00039977130858876326 0.000014069852591474772 0 -0.000165936310944736 0 0
          -0.00004263294215318296 0.000009262912876861772 0 0.0000028060812122605454 0 0
          -0.00028359182674996604 -0.00017937883699207114 0 -0.00015067362640215946 0 0
          -0.000010265992539292336 0.000011967201086513827 0 0.000006094196431702457 0 0
          0.00020627517102969457 -0.00010990543237643199 0 -0.00007981208960553683 0 0
          -0.000028555261281258677 0.000043959450608670186 0 0.000032778023504146787 0 0
          -0.00040513663008910817 -0.0000032790463337558788 0 0.000012064449897868033 0 0
          -0.00003017160364831168 0.00002989152487460226 0 0.00000752768338076682 0 0
          -0.00025473746240952354 0.0005929742680236954 0 0.00006769409405806043 0 0
          0.0003775788403445065 -0.0011006623864687956 0 -0.002333233818829116 0 0
          0.00012074065731128774 -0.000013253057984097263 0 0.00026013883808747006 0 0
          -0.00007658034964803336 0.00007815961669991568 0 0.000014497188388860821 0 0
          -0.00040431828797660694 0.0012251935578380282 0 -0.000025354539797571067 0 0
          0.0006073243437333816 -0.0010634010062334992 0 0.001860225522569474 0 0
          -0.00004295990203473319 0.00001507196366249422 0 0.0000259733038862237 0 0
          -0.00009705560235912311 0.0005663411951083881 0 -0.002313908813549363 0 0
          -0.00010544140403143611 -0.00030657172998838685 0 0.000015851100018915765 0 0
          -0.00033632073824198304 -0.00010044304107430009 0 -0.000009104389870051408 0 0
          -0.00047972293569882395 0.0007319470099603313 0 0.0004642067121453045 0 0
          -0.00015865522987061156 -0.00001731968566634387 0 0.000037315947048812233 0 0
          -0.00031994182265261884 0.0006699547724556523 0 0.0002260223881790374 0 0
          -0.00015138080802988235 0.00023544536050370646 0 0.00005343606723490935 0 0
          0.006752685679686693 -0.0044481602467596765 0 0.0003850190999054478 0 0
          -0.0012113830705056223 0.002449779135279629 0 0.0014046490036078248 0 0
          -0.002640007030614485 0.0034710317479182498 0 0.00329460526721246 0 0
          0.0001200041023773837 -0.0004198725890230413 0 -0.0002532704507016679 0 0
          -0.002860150595813689 0.0033545603651824055 0 -0.004784609168557553 0 0
          0.0005049296629039423 -0.0011250679244990563 0 0.0004979227659440113 0 0
          0.00014032957812586117 -0.00002562987727756667 0 0.00047329683645694744 0 0
          0.000004567353637091146 0.000011325290259591652 0 0.0000235925095166448 0 0
          0.018339684150386264 -0.020775671459088 0 0.0006613385950203586 0 0
          -0.0004781797044513646 0.0006628010290723932 0 0.00002366909454056106 0 0
          -0.001485288899647676 0.002237401581417571 0 0.004822398312178198 0 0
          0.0023246955096673304 -0.0023160389287764684 0 0.0026062554706934794 0 0
          0.00035758985890614397 -0.0004716759366100097 0 0.00009972729084490285 0 0
          -0.003756426502721589 0.00422897029709935 0 -0.0007459076799338057 0 0
          -0.00021493256249341356 0.00024192396665547003 0 0.00022244731049211945 0 0
          -0.0010341000698547314 0.0001205007377358537 0 -0.006734836838664835 0 0
          -0.0005177294861196106 0.00033524086981698975 0 0.00004717286196787223 0 0
          -0.0019751122576377603 0.0011025255433473968 0 0.00889714341800646 0 0
          0.00010961427552646953 -0.0002679782954930116 0 0.00015872700209260926 0 0
          -0.042370592878101326 0.04689588837462789 0 -0.043740083845668305 0 0
          -0.046970021362765936 0.0493682446082295 0 0.056533513198410455 0 0
          -0.0005883880388539732 0.0004509424787484381 0 -0.00038293554432324863 0 0
          0.0012123502872683947 -0.0009107247714142691 0 0.0004929092539980934 0 0
          0.008099750088677518 -0.008800719092939216 0 -0.001680702459846872 0 0
          -0.00006494321845479283 -0.0008983927770387568 0 -0.000943542697742164 0 0
          -0.00012084794365028472 -0.000029128130548040778 0 -0.003521945991585331 0 0
          -0.011930049802335774 0.008742099102536129 0 0.003467917782953789 0 0
          0.0017045719360834315 -0.0015612471704504259 0 -0.0004391093479055816 0 0
          0.014085627194647671 -0.013566917890879923 0 -0.001275238020047919 0 0
          -0.000013483431350045698 0.000039225153822468893 0 0.00018398477703079178 0 0
          0.0016028044593128419 -0.0011221889134873267 0 0.0005366336017403115 0 0
          -0.00181830532070922 0.0016291764633081006 0 -0.002153696418901527 0 0
          0.00043507618753496873 -0.00029343559842178856 0 -0.0005107711739528196 0 0
          0.0016403284250786554 -0.0009532400116293351 0 0.0012527336042404524 0 0
          -0.0032049453093101975 0.002251591124502268 0 -0.002103035925835311 0 0
          -0.005099258637182292 0.003375765234305172 0 0.0024287844628924165 0 0
          0.00012092172424993465 -0.00007398517821466453 0 -0.00012560982295100725 0 0
          0.00018475645896039058 -0.0001842077465365588 0 -0.00036938346783306605 0 0
          -0.0008224024934059071 -0.00019453864876802047 0 0.0021057298157310723 0 0
          0.0008711756804897032 -0.0009630937636306962 0 0.000048275249656398014 0 0
          -0.00034179109354356903 0.00038301774017867745 0 -0.0013589128598859512 0 0
          -0.0006307139901516286 0.0006253329444815308 0 0.00011047080668679675 0 0
          0.0008385830044913885 -0.0009308886772058546 0 -0.0018774838960498948 0 0
          0.0027191771667276 -0.0019863251555451897 0 0.001560287233840522 0 0
          -0.0020429920996538602 0.0027090896364157717 0 0.0011146417575110003 0 0
          0.0049426999499612 -0.0037371453858856085 0 0.0016167173788488875 0 0
          0.0004568571259981333 -0.0004612434837714686 0 -0.0001730718701197998 0 0
          -0.0002880490996655005 0.0002655581562895223 0 0.00009420275902253467 0 0
          0.00014075290072501493 0.0003381437097039751 0 -0.0003659506546064548 0 0
          -0.007071763847905203 0.006816173504618169 0 -0.0031923728309025214 0 0
          0.007442878349113788 -0.008106866992812734 0 -0.00042230482142677477 0 0
          -0.003724295481751675 0.0033719011841075223 0 0.0017152233631138906 0 0
          -0.000650024116744052 0.0005990162666908455 0 0.001368506674843891 0 0
          0.00009911394639138698 -0.00042728834146872656 0 0.002596882442020546 0 0
          0.0005126584591338499 -0.00012945974097697382 0 -0.00048379932637663105 0 0
          0.0012890189639177781 -0.0019970998600230055 0 -0.0010407242612515768 0 0
          0.0035517684633208416 -0.0034742797817370265 0 0.0005104957680622991 0 0
          0.00035924665629025025 -0.0010479091758165125 0 -0.001760576571334242 0 0
          0.006441540231803528 -0.007363635256733106 0 0.0029454656506235533 0 0
          -0.003503559322439372 0.0036104713232004764 0 0.0011335837844367782 0 0
          0.0024951081036457927 -0.0031604246395473324 0 0.0037044848618091996 0 0
          -0.0032279844597900066 0.00308823736387985 0 -0.002338487672604252 0 0
          0.009253962325230016 -0.010423687707227456 0 0.0014167482506761075 0 0
          <InformationKey name="L2_NORM_RANGE" location="vtkDataArray" length="2">
            <Value index="0">
              4.5324788592e-08
            </Value>
            <Value index="1">
              0.088540638111
            </Value>
          </InformationKey>
        </DataArray>
      </PointData>
      <CellData>
        <DataArray type="UInt8" Name="vtkGhostType" format="ascii" RangeMin="0" RangeMax="0">
          0 0 0 0 0 0
          0 0 0 0 0 0
          0 0 0 0 0 0
          0 0 0 0 0 0
          0 0 0 0 0 0
          0 0 0 0 0 0
          0 0 0 0 0 0
          0 0 0 0 0 0
          0 0 0 0 0 0
          0 0 0 0 0 0
          0 0 0 0 0 0
          0 0 0 0 0 0
          0 0 0 0 0 0
          0 0 0 0 0 0
          0 0 0 0 0 0
          0 0 0 0 0 0
          0 0 0 0 0 0
          0 0 0 0 0 0
          0 0 0 0 0 0
          0 0 0 0 0 0
          0 0 0 0 0 0
          0 0 0 0 0 0
          0 0 0 0 0 0
          0 0 0 0 0 0
          0 0 0 0 0 0
          0 0 0 0 0 0
          0 0 0 0 0 0
          0 0 0 0 0 0
          0 0 0 0 0 0
          0 0 0 0 0 0
          0 0 0 0 0 0
          0 0 0 0 0 0
          0 0 0 0 0 0
          0 0 0 0 0 0
          0 0 0 0 0 0
          0 0 0 0 0 0
          0 0 0 0 0 0
          0 0 0 0 0 0
          0 0 0 0 0 0
          0 0 0 0 0 0
          0 0 0 0 0 0
          0 0 0 0 0 0
          0 0 0 0 0 0
          0 0 0 0 0 0
          0 0 0 0 0 0
          0 0 0 0 0
        </DataArray>
        <DataArray type="Float64" Name="Velocity_SGS" NumberOfComponents="3" format="ascii" RangeMin="0" RangeMax="0.5813776282397822">
          6.95026967177934e-310 4.6491241037033e-310 4.6491241037033e-310 0.4561024788603029 -0.2821738933194322 0
          0.12277210093641819 0.09291367289237232 0 0.4843397617964257 0.3215819363097003 0
          -0.03860838457923835 0.04581015120742479 0 -0.06666818227469881 -0.02049618351006779 0
          0.3645207988893353 -0.1638310532001821 0 0.21603149695099327 -0.057933454305237324 0
          0.42062669740094843 0.17402920966716326 0 0.1366215710887344 0.04086003257352529 0
          -0.10397646518654595 0.032263248531236896 0 -0.11429223771371008 -0.06723985406012599 0
          -0.06151147449325445 0.021806456017412996 0 -0.09997072936470319 -0.045189582255469055 0
          -0.06545946754870774 -0.032997610042380165 0 0.01464822663093461 0.05713420554548339 0
          -0.07017582754900503 -0.05638967571391034 0 -0.10989413576220185 0.021907437299404454 0
          0.039234971915544835 -0.06681229727516776 0 -0.10538141741384721 0.03506137410995343 0
          -0.09105930779877919 -0.025222674805702196 0 0.03337144379491669 0.01889161069131296 0
          0.05450869420506911 -0.005809537639541355 0 -0.09883726576849296 -0.007800933917511098 0
          0.007285284933283256 0.025233437052594704 0 -0.06343136682498693 -0.015190769762243069 0
          -0.08818306258417331 0.019294189747108573 0 -0.04627764812571709 0.021193938344009428 0
          0.022459927268962773 -0.011234699300847192 0 0.020324747090878923 0.01575625730221042 0
          -0.037854801209803474 0.05418021268763082 0 -0.017959426777972985 -0.045556658861308386 0
          0.012126420794035891 -0.09377365755521101 0 0.010848702944457793 -0.007221847669517483 0
          0.034909725142492055 0.02336811289713735 0 0.032925629354982736 0.001297458173216064 0
          -0.019412576934463795 0.0006350010114218804 0 -0.09577425901587894 0.05952538700428244 0
          0.019026775069239023 -0.0236376360733076 0 0.0009621321163676266 0.0020945702540737425 0
          0.006519381705511012 -0.011891417902802681 0 0.004303997511266998 0.0032595045684141143 0
          -0.024558105183136614 0.03630229960696868 0 -0.08675435194098755 0.04146933754348555 0
          0.012575051959733248 0.014745273975992474 0 0.00009134157084001327 -0.005071574893363743 0
          0.009017487267109305 -0.002310337752476117 0 -0.00414540291382322 0.0006856868001675223 0
          0.037706939340882845 -0.011160471409994936 0 0.020320993709573687 0.011895504493240701 0
          -0.044257990401804836 -0.003888289885000319 0 -0.04301277513137454 0.05868834644882593 0
          0.04033542814764929 -0.007499063053988779 0 -0.03719237933820524 -0.014256056299358338 0
          0.010670993258199549 0.007104671712340885 0 -0.006040006982981491 -0.00290198409164654 0
          -0.002420745644311864 0.0024241016814021826 0 -0.10783546247827945 -0.011845487522125768 0
          0.018410275459584683 -0.013310369995255839 0 0.01204147456796616 -0.02584136120688962 0
          -0.09234050624447403 0.024059451678884642 0 -0.012996809679028663 0.00009857114282271675 0
          0.023618760911730714 0.006170602204709552 0 -0.006245058769895302 0.001511627906972012 0
          -0.008583396905873878 0.0016312105031449616 0 -0.0005235043329238735 -0.004750945782181696 0