<?xml version="1.0"?>
<VTKFile type="UnstructuredGrid" version="0.1" byte_order="LittleEndian" header_type="UInt32" compressor="vtkZLibDataCompressor">
  <UnstructuredGrid>
    <Piece NumberOfPoints="176" NumberOfCells="76">
      <PointData>
        <DataArray type="Float64" Name="Velocity" NumberOfComponents="3" format="ascii" RangeMin="0" RangeMax="95.62557545647847">
          34.51589838775259 0.024625926612120246 0 34.54940029773869 -0.012933730571313137 0
          34.669029091561434 0.006808868621057664 0 34.550609699133304 -0.08794783222078713 0
          34.59667231791148 0.07632697961644798 0 34.681475664388834 -0.011816298384683614 0
          34.50039643582521 0.03959593539041486 0 34.48609055698221 0.06593729629950305 0
          34.60564956908733 0.1523618463449077 0 34.4056709711241 -0.4847761301844212 0
          34.31683518585513 0.04895538539525436 0 34.67615022175839 0.008706314636741793 0
          27.81518927785075 -4.322356076012822 0 39.086136717248806 -0.1978593988282945 0
          28.1971526492777 4.071185815199863 0 34.70444595126352 -0.030278048920556404 0
          79.0065643799345 18.70708168742901 0 34.538096522792976 -0.16341909530876733 0
          72.40143443500028 32.14283090999171 0 84.0264575790344 -16.055478035555524 0
          34.46145805760847 0.11152842122033584 0 35.2691121527503 -0.03795634890132454 0
          37.14038718570612 3.9851796581456673 0 34.68415296319267 0.000021750299812293285 0
          0 0 0 0 0 0
          34.494894594222394 0.224833624169412 0 68.69285640922513 -34.909171015201956 0
          0 0 0 34.631544963231505 -0.18054741265142515 0
          0 0 0 34.68387598146431 0 0
          34.68025803056673 0.002393055033217982 0 36.47489075994695 -3.0369768241775783 0
          34.44636698526787 0.3504127962003289 0 43.119894057176154 54.122399102414924 0
          34.7035227849364 -0.010444080161991649 0 36.4428635865653 -13.399258806808087 0
          0 0 0 34.790561479979466 -0.023509454369207927 0
          0 0 0 34.45786431588077 0.3121383218930195 0
          -24.284149577269087 92.490706347673 0 45.025301378852255 -50.19198413171991 0
          35.0070279641018 -0.5566284447855047 0 0 0 0
          0 0 0 34.84423564802872 1.7775720820094714 0
          35.435805204728 9.14037920966832 0 34.68687911009141 -0.002501615336806229 0
          34.65781414546435 0.018079257591492984 0 6.370739123505178 -55.02911906653582 0
          44.85536121819872 -18.802576581519 0 34.81704580359087 -0.015655103772483487 0
          0 0 0 34.68340414218343 0.0039052125894170073 0
          0 0 0 34.68777939915889 -0.017278580195249325 0
          -11.446975567617354 87.22898298450372 0 34.69689651650386 0.08967938806824516 0
          0 0 0 0 0 0
          34.68402610724495 -0.00008649356243164047 0 38.60590454336079 7.4518130305531685 0
          35.08525685824709 -0.3452859956584157 0 34.036404302469705 -0.42742284188495994 0
          -28.145527473865997 18.542401162228284 0 -12.615117495760773 -49.35347017490436 0
          33.037143716682515 0.7361933831144025 0 34.65598796316229 0.03891598031879346 0
          -24.169435742764886 -26.95244579445039 0 34.818724044835314 0.1981253707666037 0
          46.390985956050585 -8.16653099772083 0 34.684034391288606 0 0
          32.05130934310675 0.11631447121032734 0 34.6920968478381 -0.010720632238831783 0
          45.93930215014651 6.588882865660372 0 34.68506913917891 0 0
          34.39376465582824 -1.0334202564255215 0 34.68676233421888 0.002777007587733636 0
          34.95164193658925 0.7943139382445876 0 34.656727065208045 -0.007455544227216026 0
          34.848827734629914 -0.3063458437297388 0 34.62302136740333 0.23886267322319404 0
          34.54487894492725 -0.4184904378655603 0 34.68386651080386 0.00026948408738792416 0
          34.6908548024921 0.008907509161986495 0 34.68445200816326 -0.00013793084105535901 0
          34.35058297090166 0.41528090916717453 0 34.659542493325965 -0.0598638959954883 0
          34.683765637293305 -0.000004871824739145582 0 34.68442881570972 -0.0004919239632048144 0
          34.4670097760183 -0.25287379495489704 0 34.88103442182142 0.049994117145081084 0
          34.999190715486655 -0.12689471155583318 0 34.77695437856281 -0.04972179469563636 0
          34.6837997465228 -0.0018761065163126645 0 34.765533476498284 0.49886561673036045 0
          34.68400399792078 0.000038882132245916554 0 34.6914025324871 0.02327762941393431 0
          35.0789544323642 -0.1809723126449647 0 34.703784827858556 -0.011922770334491321 0
          34.68406971491116 0.00004780859445066512 0 34.674629568018354 0.007752011854750343 0
          34.6838766778524 0 0 34.68361697053366 -0.0013197200878417917 0
          34.6672919764678 0.003939971433684626 0 34.66654342942354 -0.008760853575622415 0
          34.8103775579298 0.07255253096750959 0 34.682260749642296 0 0
          34.68638772721438 -0.001757699119996726 0 34.682769349246726 0.0034339400752637908 0
          34.66889378148263 0.020816276922567756 0 34.68600645407582 0.00006293351872355025 0
          34.68446753579965 0.0006384279692353857 0 34.68282232523002 0.0011254293728649501 0
          34.684103209826155 -0.00041012776749123646 0 34.6791255004257 -0.019915235818724685 0
          34.69279929799863 -0.006475935059449925 0 34.684112719351 0.000040549737744234396 0
          34.68455885958241 0.00011218600030672619 0 34.68398009229387 0.000007519361230273041 0
          34.68594119183297 0.007135979204948198 0 34.68397233999604 -0.000029969478364596463 0
          34.68532769231385 0 0 34.68394955356304 0.00005138680295638155 0
          34.66278289486771 -0.0016177015581796863 0 34.683913804317704 -0.00010201001884771631 0
          34.68991499395037 -0.005089303155405725 0 34.684 0 0
          34.684 0 0 34.684 0 0
          34.684083979291074 0.00041027550307115156 0 34.684 0 0
          34.68599236075614 0.004068488503377722 0 34.684 0 0
          34.684 0 0 34.68397193308518 -0.00011306536062957048 0
          34.682856205629925 -0.0006414146562074855 0 34.684 0 0
          34.684 0 0 34.682273641942025 0 0
          34.684 0 0 34.684 0 0
          34.684 0 0 34.684 0 0
          34.684 0 0 34.649769053595044 -0.025744138730730178 0
          34.60831864145991 -0.20962003464376902 0 34.420080945424296 0.04460399109209826 0
          34.678088193487206 0.0017034344762311092 0 34.69410122615442 0.0060980884918660026 0
          34.70113309214513 -0.00269398814276516 0 34.67650046249309 -0.014116529667817204 0
          34.704961322688604 0.04582660763442058 0 34.71296388172631 0.005804033508799508 0
          34.69110544697404 -0.008372595783217762 0 34.674326440944924 0.007612734043069402 0
          34.682155193400135 0.0008988973141680794 0 34.69149285785946 -0.004481712270724447 0
          34.68246666223111 -0.00047336691266812274 0 34.68409137335908 -0.0040635361522787065 0
          34.68118313617948 -0.002579158223282974 0 34.68323230701975 0.02017731500461545 0
          34.68385283393231 0.001968837248036134 0 34.683913519185054 0.0000792375260537714 0
          34.68421748130569 -0.00028741278901860454 0 34.683938613933414 -0.000030766918154887626 0
          34.684045094305965 0 0 34.68384223151695 0.0000596471330325195 0
          34.684021850490865 0.00009250140129875866 0 34.68399692383266 -0.00005167081667987944 0
          34.6840008127621 0 0 34.68399778152626 0 0
          34.68400069802971 3.395101161028765e-7 0 34.683974526498474 0.000013287405173697937 0
          <InformationKey name="L2_NORM_RANGE" location="vtkDataArray" length="2">
            <Value index="0">
              0
            </Value>
            <Value index="1">
              95.625575456
            </Value>
          </InformationKey>
        </DataArray>
        <DataArray type="Float64" Name="Pressure" format="ascii" RangeMin="82050.13361616315" RangeMax="226829.64607637984">
          103050.34176341955 103026.83203898536 103012.57627273156 103336.17977451363 103095.29107341489 103063.73813689865
          103107.22270980716 103247.4740386769 103033.69861426369 103017.44924097238 103198.7143492545 103063.1169525425
          102364.89681489952 106095.47373796263 102333.6216989249 103072.65355023136 112776.68452722854 103028.53470777167
          114624.43910689956 113977.5985922377 103186.68926258574 102982.44082865077 105852.93115717186 103064.03434846293
          157744.9582326899 157550.31080280972 103047.44488676886 114348.89862098792 149337.83997940944 103002.12526149469
          160187.13065820507 103063.95610633194 103063.39487707603 105946.35081508094 103312.52630307197 119747.99091564218
          103065.92057499083 104490.95382584378 163120.09651086765 103049.36725813783 183202.47687874432 103007.26200026971
          82050.13361616315 117156.96310178643 103094.65942938939 162923.95886621514 226829.64607637984 102445.34625225604
          102566.8720338728 103063.76867751048 103060.44917374982 110575.69224410637 118763.3293291767 103358.57972141526
          186655.91415019656 103063.97195862941 171119.48688825883 103063.44505694389 93977.99684527043 103000.85398032353
          196133.96520627217 170969.82359564005 103064.05189258342 110183.28496305863 103210.14508126666 103151.73207767442
          127691.21891946923 105372.31626849901 102395.89000553865 103060.76277655785 124497.53055559333 103051.80330816659
          102739.23753478931 103064.03283090965 105789.84544092936 103065.46504884024 101789.73916009917 103064.32917921036
          102891.43593097568 103063.51952477012 103120.17952019883 103062.26649159325 103062.7089952114 103307.96823824017
          103000.48398904015 103064.04364557243 103064.67658948925 103064.15263238008 102984.65490386078 103071.53582820723
          103064.0039939174 103064.15025687481 103486.79192884515 103036.46423953163 103114.29591625705 103012.00042865693
          103063.72511194776 103051.85230299336 103064.00678426553 103063.24491900958 103026.2026255559 103069.74390280974
          103064.01367902796 103062.77648240293 103063.96660327169 103063.96220531632 103071.78236929765 103062.52324762852
          102987.59088793679 103063.45971268039 103064.17615795683 103063.09084199717 103061.81665497646 103063.78034788153
          103064.10930594083 103063.70395800572 103064.07701344852 103062.69598061759 103064.38023969681 103064.063058456
          103064.17709341498 103064.0263601473 103064.0726328653 103064.03068043258 103064.49850406214 103064.06448356032
          103064.58787425849 103064.052316012 103063.17211412404 103043.87999999999 103064.028 103064.028
          103064.04672021444 103064.028 103063.44578179916 103064.028 103064.028 103064.13261175278
          103063.8762749276 103064.028 103064.028 103063.03788149945 103064.028 103064.028
          103064.028 103064.028 103043.87999999999 103016.39767001756 103031.02852664122 103007.90223776741
          103063.18101230287 103064.43491826103 103071.72902447666 103062.66731388903 103070.28733023786 103063.67107985764
          103063.86471757223 103064.47535137575 103063.86440405206 103064.19600441544 103063.67208912375 103064.14328251562
          103063.42058433179 103062.58056587819 103063.63200864756 103064.01325305135 103064.11717637375 103064.02982368645
          103064.03929441584 103064.00057555178 103064.05946710691 103063.99355428039 103064.02838334424 103064.02686930979
          103064.0283044647 103064.0222079279
        </DataArray>
        <DataArray type="Float64" Name="Temperature" format="ascii" RangeMin="274.0177049124288" RangeMax="600">
          299.974388486849 299.96496013120293 299.95345805109974 300.2478011247858 300.05363349719164 299.99975250897137
          300.051585508477 300.1645377054487 299.97288943041775 299.94827740231887 300.10346035282765 299.9992486940544
          296.8847827853305 302.31599903765334 297.0545508756572 300.0072919098836 321.9529017183249 299.9708167481995
          321.96454596231973 322.2453515231916 300.0998440351761 299.9886184771743 302.6967997286276 300.0000051151211
          600 600 299.97306908415965 320.4878433513235 600 299.94475303297617
          600 299.99994030359466 299.9994765341934 302.8934809122286 300.2245148961955 326.20075291963207
          300.0015358363699 299.61330916746437 600 300.02812922967877 600 299.9490370411993
          274.0177049124288 323.25792324215865 300.0365187250706 600 600 299.76746384534727
          297.390945604535 299.99977851044366 299.9970308771972 315.1720183354921 318.5825745113264 300.23777382223386
          600 299.99995431210306 600 299.9994991956046 291.7387004096979 299.94910995433173
          600 600 300.0000200496884 307.2701522052799 300.012111490798 300.10153629637784
          329.3170963832663 309.48388156431764 299.7805130674304 299.9974160174075 327.1751537781127 299.9925092092325
          297.9010208903435 300.00000391560343 303.3668109922646 300.00118645500663 297.02452529911733 300.0002203381456
          299.9328483621255 299.99956692006594 300.02964988519255 299.9986015303235 300.0022891946599 300.1824082111725
          299.94169813365346 300.000013293498 300.00051807800946 300.000093965662 299.9139660626975 300.0064148571
          299.9999802322628 300.0000902828273 300.31441151845377 299.9800228734232 300.0541336972269 299.96021803043885
          299.99974476612937 299.99203273109106 299.99998228830077 299.99932215000246 299.97374322739455 300.0047501255446
          299.99998788230386 299.9989816605381 299.9999488517997 299.99994508551674 300.0066828571231 299.9988058015323
          299.94068052303265 299.99958656785117 300.00011606145364 299.9992132208536 299.99820086300775 299.9997836807965
          300.00005589365526 299.9997669724486 300.00003797203175 299.9988966713228 300.0002488684809 300.0000293520484
          300.0001141006402 299.9999986240271 300.0000306261501 300.00000224567043 300.0003614829343 300.0000306886498
          300.00054280543367 300.00002038535615 299.99926030178 300 300 300
          300.0000132137665 300 299.99950391418906 300 300 300.00008805939706
          299.9999067230143 300 300 299.99923369004256 300 300
          300 300 300 299.9569722293517 299.97057131067726 299.9448658523497
          299.9992733886077 300.00035404358016 300.00656449654576 299.9988740671964 300.00527154725535 299.99963993020674
          299.99987786726155 300.0003769679078 299.999861109598 300.00014750028686 299.9996990950923 300.0000966682004
          299.9994940768154 299.99878456468133 299.99966567104826 299.99998773040795 300.000074559687 300.0000015876592
          300.00000921920224 299.99997720539795 300.0000264014203 299.9999712283515 300.0000003215819 299.9999990516234
          300.00000025549247 299.9999951461279
        </DataArray>
        <DataArray type="Float64" Name="Density" format="ascii" RangeMin="0.8523849313893234" RangeMax="1.3278955138750268">
          1.1764742020375885 1.176242773214382 1.1761251153652659 1.1786631752149495 1.1766765201435847 1.1765276616606242
          1.1768207339747745 1.17797806017131 1.176290073781744 1.1762010662550073 1.1776613778635643 1.176522546342816
          1.1808106560079332 1.2018572111392607 1.179775255167387 1.1765998663179753 1.1996211877333096 1.1762392470515979
          1.2192319120819357 1.2112951821002353 1.1775383421247405 1.1756432416311016 1.1976011590954665 1.1765300524107256
          0.9003707661683215 0.8992597648562198 1.1764463043091458 1.2219053711996184 0.8523849313893234 1.1760399231968095
          0.9143101064966044 1.1765294134112825 1.1765248254710836 1.197879754467008 1.1784847806588843 1.2571885736915578
          1.1765455814656887 1.1943585993380368 0.9310507791716192 1.1762523496913981 1.0456762378923763 1.1760817749945998
          1.0254578563247652 1.2411837344986516 1.1767364308041532 0.9299312720674379 1.2946897607099306 1.1703746043376124
          1.181126783671488 1.176527908326423 1.176500789736803 1.2015149046169786 1.276666594848276 1.1789580447047574
          1.0653876378435876 1.1765295394355277 0.9767094000471394 1.176525309429057 1.1031873882264598 1.1760083257831724
          1.119486102775526 0.9758551575093608 1.1765301941161734 1.2280399325759574 1.1781504393501239 1.1771327824243984
          1.3278955138750268 1.1660190346130594 1.1697586764236216 1.176502859302821 1.303159488392754 1.1764198231058618
          1.1810859285902835 1.1765300397912868 1.1942439914605472 1.1765417516209535 1.1736236149946746 1.1765325740021544
          1.1748227418059638 1.1765258939207652 1.1770546673031914 1.176515375860134 1.1765059653637993 1.1785980860207756
          1.1760331615077049 1.1765301264684218 1.1765353721992575 1.1765310542323337 1.1759611563222785 1.1765905469340396
          1.176529803482401 1.1765310415579289 1.18011926195007 1.1762936750922621 1.176891469705502 1.176092035477893
          1.1765275433394289 1.176422250933117 1.1765298272723916 1.176523719074621 1.176201147641654 1.1765766204098753
          1.1765298840413563 1.1765197069242574 1.176529499715328 1.176529464280828 1.1765923102031244 1.1765175057795216
          1.1758899408151233 1.1765251340795453 1.1765312361344586 1.1765223873935482 1.176511812021757 1.176528021273037
          1.1765307089480033 1.1765272147679964 1.176530410596752 1.1765191212569066 1.1765330449944662 1.1765302850987722
          1.1765312545030586 1.176529986676465 1.1765303893989405 1.1765300217915498 1.1765339533944517 1.1765302961252446
          1.17653426249469 1.176530197633422 1.176523130520173 1.1763 1.17653 1.17653
          1.176530161879762 1.17653 1.1765252991985302 1.17653 1.17653 1.176530848849434
          1.1765286337887741 1.17653 1.17653 1.1765217025450436 1.17653 1.17653
          1.17653 1.17653 1.1763 1.1761549658589492 1.1762686805016476 1.1761054401883215
          1.1765231807744934 1.1765332567054736 1.1765921654542983 1.1765188826575412 1.1765807788709428 1.1765273376756686
          1.1765286150208838 1.1765336283661303 1.1765286771614842 1.1765313393962569 1.1765271171663991 1.1765309369000245
          1.1765250501355187 1.1765182433855184 1.1765267907073333 1.1765298797743096 1.1765307255892588 1.1765300145919095
          1.1765300927761249 1.1765297763306162 1.1765302556733164 1.1765297196196878 1.1765300031149066 1.1765299908118894
          1.1765300024736425 1.1765299529162085
        </DataArray>
        <DataArray type="Float64" Name="Momentum" NumberOfComponents="3" format="ascii" RangeMin="0" RangeMax="103.62220691505813">
          40.60706401334172 0.028971767360430382 0 40.63848241910596 -0.015213207115208998 0
          40.77511583991445 0.008008081392448383 0 40.72353133359289 -0.10366087117862459 0
          40.70909199158796 0.08981216476815233 0 40.803715466363236 -0.013902201908016023 0
          40.60078185602852 0.046597317748565764 0 40.623858057206036 0.0776726883878295 0
          40.70628208488692 0.17922172747857423 0 40.467986881455126 -0.5701942012178924 0
          40.413611408891 0.057652866618417065 0 40.797272556269185 0.010243175465681183 0
          32.844471898163775 -5.1038841136165765 0 46.97595526920051 -0.23779874527346473 0
          33.26630296179536 4.803084283961265 0 40.833246466896064 -0.03562514831229578 0
          94.77794860018521 22.441411552897634 0 40.62506464856542 -0.1922199536198378 0
          88.2741393436603 39.18956519011554 0 101.78084323443417 -19.447923190784557 0
          40.57968818835756 0.131328992223584 0 41.46389334071024 -0.04462312506283428 0
          44.479370742856055 4.772655777798926 0 40.8069483036067 0.000025589881378106416 0
          0 0 0 0 0 0
          40.581391262906465 0.2645046862385362 0 83.93617020947632 -42.65570356760131 0
          0 0 0 40.728079478745634 -0.21233096530796472 0
          0 0 0 40.806600263301874 0 0
          40.80218452670467 0.0028154886552994845 0 43.69253318773619 -3.637933052467831 0
          40.59451924112884 0.4129561472702109 0 54.209838107472365 68.04206173233027 0
          40.83027639391077 -0.012287936367064729 0 43.52584750911728 -16.00351998066716 0
          0 0 0 40.92247968790889 -0.02765305094174353 0
          0 0 0 40.52526622714414 0.3671001916557781 0
          -24.90237196817631 94.8453214612481 0 55.884671712331134 -62.29747430650518 0
          41.19404513953834 -0.6550049694009614 0 0 0 0
          0 0 0 40.78080851000814 2.080425222163421 0
          41.85417862826976 10.79594669745328 0 40.81008132576735 -0.0029432202596499334 0
          40.77494571269015 0.021270260834246588 0 7.654538010317978 -66.11830674638514 0
          57.265341267127184 -24.0046214187018 0 41.04783624299748 -0.018456710533257203 0
          0 0 0 40.80604950145934 0.004594597969224616 0
          0 0 0 40.81105039100229 -0.02032868691071049 0
          -12.628159079531885 96.22991391632496 0 40.803839182245696 0.10546370701939639 0
          0 0 0 0 0 0
          40.806803968687326 -0.00010176228779749733 0 47.409592412462636 9.151123971609154 0
          41.33571078225576 -0.40679884748640743 0 40.06536730028793 -0.5031334391397866 0
          -37.374319668192975 24.622371319794023 0 -14.709467123937292 -57.5470856481464 0
          38.64548550684351 0.8611685974237318 0 40.77286893062458 0.04578476211763281 0
          -31.49662951728303 -35.1233354724294 0 40.96143718159698 0.23307861363003118 0
          54.79174072612081 -9.64537484680444 0 40.806808362505144 0 0
          38.27708360144853 0.13890785836284422 0 40.8167003927592 -0.012613271432759211 0
          53.91544985978757 7.732868527572796 0 40.80811367376085 0 0
          40.40657689398919 -1.2140856190916534 0 40.809874062484 0.003267221334583064 0
          41.139993271372326 0.9349509283147708 0 40.77417226920532 -0.008771562418724916 0
          40.99985371572751 -0.36041771261244393 0 40.80662671587799 0.28152308948266247 0
          40.62592319950374 -0.4921586327037786 0 40.80661385236992 0.00031705614741574164 0
          40.81501776696044 0.010479999607266076 0 40.807334886635104 -0.000162279917838014 0
          40.39495127080589 0.48835421814279767 0 40.78009005870599 -0.07043529413093405 0
          40.806483969274346 -0.000005731847002947651 0 40.8073071603888 -0.0005787638127966645 0
          40.67518213850057 -0.29842123626868644 0 41.03034017106402 0.0588077637895805 0
          41.19024899965225 -0.14934130358080025 0 40.90089906280576 -0.05847740673120487 0
          40.80644570945318 -0.0022072909906804333 0 40.89894714731275 0.5868766117470683 0
          40.80676523278868 0.00004574598833527049 0 40.81525792743645 0.027386683129322784 0
          41.25990646141606 -0.21285984182437168 0 40.83166186819332 -0.014028052826078918 0
          40.80684451976674 0.00005624824008522126 0 40.79538501707214 0.009120394715424243 0
          40.80660407598182 0 0 40.806297293663405 -0.0015526895679491503 0
          40.789269155078486 0.00463574009129331 0 40.78579520958285 -0.010307297597290887 0
          40.933172806346164 0.08531379134537226 0 40.80455147865465 0 0
          40.80961862973865 -0.0020679879184021983 0 40.80505459619553 0.004040107375515736 0
          40.78836304364195 0.024490595681716874 0 40.809058539277615 0.0000740430482555682 0
          40.80734117937836 0.0007511301112567425 0 40.80528435059616 0.0013240982854748925 0
          40.80690219063689 -0.0004825277906835937 0 40.800654259718826 -0.02343065574507004 0
          40.81722479745621 -0.007619151594681041 0 40.80690902609598 0.00004770799450890454 0
          40.80746754694967 0.00013199033567855308 0 40.806742635873285 0.000008846753968068668 0
          40.80906389709599 0.008395696392740445 0 40.80673473299305 -0.00003525999103338006 0
          40.80846571462006 0 0 40.806717439046565 0.00006045813049920118 0
          40.78195170922674 -0.001903281309689448 0 40.80667196289448 -0.00012001786763549276 0
          40.81348738616118 -0.005987682880564138 0 40.798789199999995 0 0
          40.80676652 0 0 40.80676652 0 0
          40.80687093880658 0.0004827015040436027 0 40.80676652 0 0
          40.80894754023655 0.0047866796537222546 0 40.80676652 0 0
          40.80676652 0 0 40.806762939902654 -0.00013302488471697593 0
          40.80537342750228 -0.0007546427091598892 0 40.80676652 0 0
          40.80676652 0 0 40.80444763335072 0 0
          40.80676652 0 0 40.80676652 0 0
          40.80676652 0 0 40.80676652 0 0
          40.798789199999995 0 0 40.753497938251556 -0.030279096609910003 0
          40.70868130277062 -0.24656948155713584 0 40.4816444516359 0.0524589965775282 0
          40.79957462457997 0.002004130148216358 0 40.81876390407683 0.007174603913013278 0
          40.82908132860484 -0.003169725342604263 0 40.79755757860608 -0.01660836371178233 0
          40.833190423734905 0.053918705703519657 0 40.8407509785991 0.006828604091888254 0
          40.81507824507181 -0.009850598520958884 0 40.79551109871658 0.008956637605478804 0
          40.80455017080036 0.0010575784679421815 0 40.81562855771307 -0.005272874940664073 0
          40.80486251833451 -0.000556929009123385 0 40.80690651902422 -0.004780875996367587 0
          40.80328072805266 -0.0030344442579554364 0 40.80545554878673 0.023738979205466432 0
          40.80648206407183 0.0023163897688570105 0 40.80666060282934 0.00009322531700165739 0
          40.80704755977623 -0.00033814997720769133 0 40.80669480355598 -0.000036198202665718024 0
          40.8068227926551 0 0 40.80657314293301 0.00007017662808551268 0
          40.806801095536905 0.00010883069732016857 0 40.80675317608695 -0.000060792251460898846 0
          40.806767584276415 0 0 40.80676359121868 0 0
          40.80676742704872 3.9944383773834393e-7 0 40.80673491660823 0.00001563303018338942 0
          <InformationKey name="L2_NORM_RANGE" location="vtkDataArray" length="2">
            <Value index="0">
              0
            </Value>
            <Value index="1">
              103.62220692
            </Value>
          </InformationKey>
        </DataArray>
        <DataArray type="Float64" Name="Energy" format="ascii" RangeMin="206441.93259182695" RangeMax="557752.348913838">
          254091.70386101055 254035.11839527794 254004.86400227004 254797.27309349665 254205.63788524026 254131.41586904682
          254231.14610680827 254576.1198030214 254054.3322685933 254006.33162703013 254449.17784988863 254129.66804215248
          252173.2834593587 261796.67421346856 252107.3475802652 254154.31953775385 281260.99975831906 254038.8593061208
          285675.92331896315 284692.2502845551 254425.39921736403 253955.14516820665 261117.7079053594 254132.25482872355
          387879.72606531286 387401.1067000595 254083.7408565502 284800.4220153053 367207.4284425205 253977.6064276648
          393884.79387873714 254132.0507517429 254130.52035860764 261314.2817618729 254734.83470489393 297458.8880259433
          254137.6929381664 257833.55669189864 401096.67566713353 254100.3709893873 450477.3232840357 253983.2442055071
          206441.93259182695 290899.26705202647 254221.104589884 400614.39200665226 557752.348913838 252615.6200116614
          252993.0109355918 254131.71153325617 254122.34744685207 273738.62269928586 293537.64170616725 254863.41878005074
          458968.99438301753 254132.07056176753 420766.40954030765 254130.95113105464 235352.1785298088 253977.11116514984
          482274.61307569663 420398.40185503266 254132.29287667756 271879.37353567075 254509.05713768714 254322.16596236333
          314734.70187332435 260613.27652515686 252420.35996230328 254123.04604698048 306981.447296172 254107.63823325868
          253936.23945394013 254132.2462510655 260740.50910961875 254136.10409442743 251555.1024880712 254133.018692905
          253695.6691306493 254131.09291395155 254281.95968310087 254126.7803322598 254135.7723195811 254730.8456313395
          253970.1251516283 254132.2660448118 254134.11079359325 254132.55848331106 253923.28763242098 254149.73477003412
          254132.16423458103 254132.5516882569 255165.11164368314 254072.37718005266 254268.98815135437 254007.8369951881
          254131.47852507117 254105.70637297642 254132.18083678233 254130.60606879703 254055.2494815234 254147.12354435434
          254132.20050618894 254128.7671053639 254132.0766430391 254132.05521086603 254150.65601131856 254127.8132738285
          253949.06316590487 254130.76168305182 254132.6954354218 254129.87377369386 254126.1684824757 254131.70468112954
          254132.45237393104 254131.38642608482 254132.35792309558 254128.75243016618 254133.46004220835 254132.3239215772
          254132.62311143955 254132.22809236648 254132.42217310585 254132.23842030956 254133.44642733806 254132.32077412913
          254132.7466477175 254132.28933724904 254130.36567795512 254082.5526023064 254132.23294498984 254132.23294498984
          254132.28250059808 254132.23294498984 254130.87981232617 254132.23294498984 254132.23294498984 254132.4895405202
          254131.81237233957 254132.23294498984 254132.23294498984 254129.7229028641 254132.23294498984 254132.23294498984
          254132.23294498984 254132.23294498984 254082.5526023064 254013.49362146299 254047.87480929543 253983.24604194736
          254129.9049637217 254133.6477582673 254151.90577761029 254128.57458267768 254148.51147546966 254132.5361442232
          254132.12063701803 254132.94046280955 254131.7546045369 254132.9526618628 254131.29349139007 254132.52071555005
          254130.62145277363 254128.63568488014 254131.25130680684 254132.19308234868 254132.46153236713 254132.23493307267
          254132.2626128334 254132.15893836285 254132.31136502663 254132.14795209555 254132.23392263637 254132.23006867577
          254132.2337236115 254132.21763502885
        </DataArray>
      </PointData>
      <CellData>
        <DataArray type="UInt8" Name="vtkGhostType" format="ascii" RangeMin="0" RangeMax="1">
          0 0 1 0 0 0
          1 1 1 1 0 1
          1 1 1 1 1 1
          1 1 1 0 0 0
          0 0 0 0 0 0
          0 0 0 0 0 0