<?xml version="1.0"?>
<VTKFile type="UnstructuredGrid" version="0.1" byte_order="LittleEndian" header_type="UInt32" compressor="vtkZLibDataCompressor">
  <UnstructuredGrid>
    <Piece NumberOfPoints="176" NumberOfCells="76">
      <PointData>
        <DataArray type="Float64" Name="Velocity" NumberOfComponents="3" format="ascii" RangeMin="0" RangeMax="92.44740767931975">
          35.12390566260022 -0.045641557046307506 0 34.81042512498488 0.05242361837165052 0
          34.92930108456102 -0.1321455332621367 0 33.424288793633366 -0.7735108769284192 0
          34.130124210666594 1.030736745504593 0 34.681994202193806 0.025900549992710346 0
          34.25974401920316 -0.8161755454808858 0 33.65031432367285 0.5808572311060699 0
          34.698464293019775 -0.14255256351511156 0 34.76636827644519 0.4471217049020863 0
          34.2510490967354 -1.5074576794422203 0 34.69799668177229 -0.02224072092973479 0
          32.54157827659749 -1.185708743977199 0 54.24111985514123 0.03607693591717391 0
          33.225673792869074 1.2326108408504197 0 34.65619017940682 0.04134757420743839 0
          85.06524852398503 21.71698589542159 0 34.68560846007834 -0.09140052517706211 0
          79.12621974156852 36.764139307382976 0 86.12206253014072 -20.574514736336226 0
          34.892522122520006 1.0060258973126184 0 34.129597369534515 -0.6705118774967901 0
          47.578874533284264 20.654854117537514 0 34.68305073751711 0.0004135381043942848 0
          0 0 0 0 0 0
          34.87175532996599 -0.446316588295638 0 74.62226363473526 -36.01158506100129 0
          0 0 0 34.71564816798484 0.1211144291455465 0
          0 0 0 34.68400089247296 0 0
          34.69150707025868 -0.006077470572237001 0 45.57998784843573 -18.820327104891174 0
          34.35700551490973 -0.8618880071577671 0 23.270489720625047 68.53690022943644 0
          34.65780322405902 0.02941522570017722 0 37.87273119686489 -11.41206003381036 0
          0 0 0 33.63337482089568 0.3776174231492153 0
          0 0 0 34.854188903557144 -0.05360713162041059 0
          -11.287573494677337 91.75572936459393 0 40.320351618107814 -61.63039111789449 0
          34.77332748379093 -0.2821445382955983 0 0 0 0
          0 0 0 35.28776214301218 2.900456720683858 0
          35.44152491208192 4.995790471546689 0 34.68043448817508 0.00489456303757227 0
          34.69389983946435 -0.013215198592334809 0 -10.158059150150654 -71.02020102093947 0
          36.833706368411974 -5.33431162754087 0 34.78039096868295 0.9952007280728674 0
          0 0 0 34.68443043627462 -0.0029406010958503894 0
          0 0 0 34.680742903744914 0.005238185830530671 0
          -18.936358191583956 74.50063949976304 0 34.65599976271632 -0.21119681758643533 0
          0 0 0 0 0 0
          34.68388964796388 0.0003146836424699821 0 32.67529193442712 -1.237239734205009 0
          35.04608422677439 -0.46294559599943225 0 35.73056595006556 1.9030277778414966 0
          -30.536939028933887 43.62754377623867 0 -23.749214175929563 -83.62675923775898 0
          32.22744045984323 0.6596982538399154 0 34.678602033578734 -0.011686818668603856 0
          -45.13424193587392 -37.91860890444335 0 34.6243921379141 0.06193891531083859 0
          43.91861311051776 -7.454726088640347 0 34.684086229322936 0 0
          6.213421048354153 -0.11563087479582725 0 34.68061054076824 0.005873726152391156 0
          43.115570610858626 4.815845512199035 0 34.68573255081295 0 0
          35.146923359087715 1.5508817634918062 0 34.6800755438992 -0.0017987681690043824 0
          34.37227241953504 -0.22302036732080371 0 34.69660195456351 -0.008870601225067566 0
          34.744515463697724 0.013895118075657903 0 35.685189809188834 -0.3852328247233334 0
          35.375755825819944 0.3221779164477513 0 34.68441550468669 -0.0003868448292412388 0
          34.696755846597775 -0.023686133001533962 0 34.6847678237602 -0.0003357158389212867 0
          35.53229419385097 -0.5063005512933301 0 34.66834741876428 -0.0067202230135428205 0
          34.68521108847645 -0.0005152631314124803 0 34.68441437483698 -0.0004399462945940154 0
          35.655931040738764 0.34429456372821937 0 34.681880268419526 -0.028833556174730792 0
          34.366366091598614 0.041211034900334925 0 34.523713912165135 0.06382835568543845 0
          34.68288675988306 0.003977788958250936 0 34.8896756723301 0.13226324478341298 0
          34.68380997761002 0.000003435407835156999 0 34.68320360607092 -0.009854533804082782 0
          34.61533269795256 0.09444044600832863 0 34.683178530173755 0.02282059116404379 0
          34.68392577835395 -0.0005005083509883454 0 34.68948292175361 -0.004802386597404179 0
          34.68396231668263 0 0 34.68401808812419 0.003537165383187601 0
          34.71482731646302 -0.007670163466060995 0 34.70236445799499 0.006095058889221051 0
          34.567679921372026 -0.0777422826070973 0 34.6807888413816 0 0
          34.68216159578548 0.0015784077617779775 0 34.68474935148176 -0.006159682467842801 0
          34.70118699700695 -0.003949328495628647 0 34.680229431016755 -0.0006802483996514129 0
          34.684218976058766 -0.0004889792880411873 0 34.68188761469845 0.00208359758290034 0
          34.68427130192591 -0.0005752270789733204 0 34.68531100956745 0.008895041620946674 0
          34.67274184300705 0.0028808520572110425 0 34.6833735357733 0.0010204122283441616 0
          34.68491243976266 0.0003159894659570595 0 34.68419453252386 -0.00017011722783330207 0
          34.682325752746806 -0.004649073265419189 0 34.68459963102454 0.00014293987945186403 0
          34.686116514768585 0 0 34.684960681584734 0.00006352396112187487 0
          34.687726637803 -0.0019410726084830162 0 34.68517461920021 -0.0008759011507631206 0
          34.67825615749744 0.005847951179608609 0 34.684 0 0
          34.684 0 0 34.684 0 0
          34.6842681058195 0.00016220289080299814 0 34.684 0 0
          34.68170217138879 -0.0058927383039962455 0 34.684 0 0
          34.684 0 0 34.68465143885754 0.0014252458171270604 0
          34.682033975765755 -0.0011571800706770888 0 34.684 0 0
          34.684 0 0 34.68087330863534 0 0
          34.684 0 0 34.684 0 0
          34.684 0 0 34.684 0 0
          34.684 0 0 34.8475588232298 0.12015172363137591 0
          34.66473915047869 0.14683892678907762 0 34.88575239078458 -0.12459125586416976 0
          34.70328050712996 -0.0023920013356019294 0 34.65597047341682 -0.011248296006269627 0
          34.649530888808265 0.010510787214969064 0 34.69421498777608 0.023926525452552732 0
          34.65193357812562 -0.06272052812068842 0 34.65245470879114 -0.02054174645627521 0
          34.652336929669694 0.005143562608413471 0 34.68660953729568 -0.020038895533059316 0
          34.68764940897121 -0.0019059682231404584 0 34.675465538638825 0.006120086870664374 0
          34.690708329582165 0.001986473825573698 0 34.683206526598156 0.002725129760319566 0
          34.690208375034985 0.004593760892049436 0 34.68651919953203 -0.008824333984950979 0
          34.68443864434001 -0.006638774644030821 0 34.68463366904831 -0.0007653428267220484 0
          34.68180913194042 0.002330841546037771 0 34.68446522897736 0.0004526137582341681 0
          34.68405282778299 0 0 34.68446473043575 -0.0005871541828615446 0
          34.684129031996775 -0.0004116359094790818 0 34.68374458325621 0.0002990678879307298 0
          34.68405226357634 0 0 34.68394505037599 0 0
          34.68393948073533 0.00006235621628766719 0 34.68422656908222 -0.0000786692096126558 0
          <InformationKey name="L2_NORM_RANGE" location="vtkDataArray" length="2">
            <Value index="0">
              0
            </Value>
            <Value index="1">
              92.447407679
            </Value>
          </InformationKey>
        </DataArray>
        <DataArray type="Float64" Name="Pressure" format="ascii" RangeMin="102125.92569023845" RangeMax="147507.143436582">
          103231.32326216233 103100.38425970208 103131.05892950627 102818.97138701144 103194.4436345698 103056.3803832359
          103193.74554606539 102834.61113143455 103116.81776824454 103396.92806810164 102905.76405676674 103078.46470776983
          106242.88590657283 113375.25481395228 106235.34455580398 103009.62358615882 109591.42910957658 103114.36947685968
          112629.19472449117 109314.49601444922 103113.52624306605 102598.01291178781 114449.64418053387 103063.66317114308
          120176.00879394746 114121.73918563117 103301.88558749757 112306.72012757066 108422.85955129615 103118.46690412899
          128762.65272016756 103063.93522672354 103069.72854728793 114074.19229733117 102925.2096481654 115073.090083288
          103039.18041944978 107095.92677498361 128578.16926291255 102936.56601390454 123495.34761989229 103166.6520193931
          108677.64802309501 116605.2709840642 103183.55741550002 122170.73665676817 143298.33855955207 102402.28971147478
          106776.71728700973 103068.11365514967 103032.5854760945 108900.0473922718 126309.02156856691 102913.25265695494
          147507.143436582 103067.76750437495 135900.7744611754 103048.61939714765 114777.50470136713 103119.09031001724
          143085.30674150403 143957.22267294154 103063.65691158446 123061.4995792052 103459.18366666218 102573.40383417948
          126143.61201400992 112870.0719218777 102125.92569023845 103023.27471823744 128997.73897325495 103200.32142482654
          106049.975150768 103064.23295878647 116778.31074174486 103074.47407631864 105270.60723150123 103064.51711340036
          102260.8581862884 103067.2565744682 103875.64477085427 103050.0672179626 103161.16108949333 102866.58464922974
          102649.14458510705 103062.43250343067 103051.86283451378 103064.17860270712 102720.24035895323 102910.23692764189
          103064.31656976916 103064.63028618859 103051.9115162367 103112.78514218707 103387.52284175933 103122.72391640351
          103065.7075732145 103350.76840182485 103064.06398413592 103107.71145667369 103152.66083829652 103041.68420398215
          103064.01755176793 103053.64218910097 103063.9979256216 103058.81308726873 103018.77007115287 103055.61790190611
          103078.32957670072 103063.025704665 103067.08204320261 103068.00900417982 103048.82332294466 103067.16196989137
          103065.37740976486 103063.41950595519 103064.14634070623 103049.53860801502 103075.20599997867 103063.71027409114
          103064.20165900634 103063.77806706863 103070.77290527205 103063.8648688981 103064.80655601704 103063.01198892124
          103049.9758210995 103062.30824931912 103070.69654562169 103043.87999999999 103064.028 103064.028
          103064.33554157472 103064.028 103067.56178992569 103064.028 103064.028 103062.74098109163
          103063.6362897637 103064.028 103064.028 103062.34876399569 103064.028 103064.028
          103064.028 103064.028 103043.87999999999 103108.3259320865 103147.56242842523 103129.31726917342
          103071.98797162391 103053.7136245095 103030.86170723045 103081.52954347248 103009.75535606359 103051.58639812341
          103051.60669474126 103062.23961713926 103066.5355782127 103054.56336856751 103066.55850796352 103067.37618511746
          103068.57339689333 103048.7667822419 103066.00033836969 103064.54910890046 103061.80613326291 103064.0972661295
          103064.2461893507 103063.65555569617 103063.65683186674 103064.19527076853 103064.0552163645 103064.02392975366
          103063.98867150984 103064.11999578241
        </DataArray>
        <DataArray type="Float64" Name="Temperature" format="ascii" RangeMin="299.2738782332783" RangeMax="600">
          300.1419913481178 300.02944054733223 300.0549007066779 299.80949982915837 300.1125788686407 299.99357542108993
          300.0989531411658 299.80996071600055 300.04374395989356 300.28071792962663 299.81057455733446 300.0121366882806
          299.54296168844877 308.4027860670985 299.7485806364181 299.95421947515496 328.4210739444487 300.04312388945084
          328.11264691884816 326.91969711820525 300.0229188868799 299.63113996185336 309.883023520659 299.99969413978044
          600 600 300.19727980492905 326.22276202591377 600 300.04094924679515
          600 299.99992301120005 300.0047905608052 309.61716102766513 299.90742819619135 332.03708098462704
          299.9791006840044 300.2586498696029 600 299.90809979857084 600 300.0840440821497
          314.0173245315226 330.20315332652854 300.1157807310303 600 600 299.7234260096988
          300.12142729307783 300.00344079867637 299.973627636828 319.12831873211087 324.85825834689155 299.8804383344299
          600 300.00314585147225 600 299.9870399991571 320.8028001738734 300.04688992540787
          600 600 299.9996877828411 318.1245423437926 300.2299837187759 299.94971737654083
          333.88874414200563 323.87451979101485 299.51688854276574 299.9664760036023 336.0280313311827 300.1269568978353
          299.71077223008024 300.0001722117625 312.74744389875684 300.0086663060921 299.2738782332783 300.0003493716177
          299.697890958411 300.00272078533123 300.5547147502648 299.9883234058973 300.08677019898124 299.8112438291575
          299.59781176983415 299.99865696079894 299.98958319951356 300.00010633740743 299.6498595286113 299.87195746285545
          300.0002412466967 300.0004833617655 299.95983815638454 300.0452632249843 300.29918534397666 300.05356997390487
          300.0014124426119 300.259744255768 300.00003061486314 300.03655042264495 300.08352057802216 299.9813256620358
          299.9999913986257 299.9912709818904 299.9999754303798 299.9956122316641 299.96206007104865 299.9929244876005
          300.01614165764863 299.99927951923706 300.0025680568727 300.0033488346657 299.98722566229026 300.00263711955324
          300.0011127283159 299.9995629332014 300.00009330870125 299.9878173235083 300.00937906360275 299.9997333245762
          300.00012502099526 299.9997896002076 300.0056743342246 299.9998623004906 300.0005903520098 299.9991443982657
          299.98822012061703 299.99855212127767 300.005604714985 300 300 300
          300.00025388109077 300 300.0029731324586 300 300 299.998916354475
          299.99973528189787 300 300 299.998713719482 300 300
          300 300 300 300.03489384580575 300.0692401292757 300.04835667113616
          300.0067102983524 299.99131263446907 299.9719484023617 300.0147264165349 299.95430216616705 299.9895334335215
          299.98954427188727 299.99850981172256 300.00210972128474 299.9920244532165 300.0021252861256 300.00281668898
          300.00382021716393 299.9871610479573 300.0016591174958 300.0004377468153 299.9981329843968 300.0000578025143
          300.000183173423 299.99968644123817 299.99968746753865 300.0001413610432 300.0000228614536 299.99999661928683
          299.9999669517474 300.0000772561583
        </DataArray>
        <DataArray type="Float64" Name="Density" format="ascii" RangeMin="0.6188519380781744" RangeMax="1.3315503954226162">
          1.1778822662969748 1.1768295374433557 1.177079784885849 1.174478344497628 1.1775768620488203 1.176467892808141
          1.1776223624652793 1.1746551880782425 1.1769610064749543 1.1792267954060296 1.1754655442515485 1.176647200599146
          1.2146688329084345 1.2589750746001747 1.213749444163715 1.1760884181976392 1.1427802390428936 1.1769354942728893
          1.1755609663676032 1.145127429390988 1.177005129612085 1.172652007938208 1.26483481341331 1.176527034796412
          0.6859361232531248 0.651379789872324 1.1784703079554437 1.1789859568439753 0.6188519380781744 1.176990792389161
          0.7349466479461619 1.1765292428762477 1.176576286539921 1.261768051930561 1.175307983551887 1.18687323648955
          1.1763283000097244 1.2215031029958592 0.7338936601764415 1.175435030216773 0.7048821211181067 1.177371669999517
          1.1852330971284617 1.2093558640657494 1.177440074802504 0.6973215562600924 0.8179128913216442 1.170054598845919
          1.218419133339596 1.1765631455092564 1.1762744708704902 1.168637647901182 1.3315503954226162 1.175277213955564
          0.8419357502088013 1.176560350792401 0.7756893519473481 1.1764049234031613 1.2252812195670202 1.1769746043448297
          0.8166969562871235 0.821673645393502 1.176526988270585 1.3247751607109866 1.1801362023951534 1.1711255583983855
          1.2938401753882522 1.1934910546455868 1.1677015027719995 1.1761962158809025 1.3146911492039415 1.1775875181532205
          1.211784427047327 1.176531664336869 1.2787497692475753 1.1766152577533056 1.2046349661999485 1.1765342133274344
          1.1685381479537722 1.176556185350223 1.1836064850448784 1.1764164187987656 1.1772983105269774 1.1750153851532676
          1.1733669358620746 1.1765170535972556 1.1764319771051788 1.176531302178024 1.1739756715331262 1.1752760118925225
          1.1765323480603052 1.1765349797730285 1.1765491919241446 1.1769090193886955 1.1790470181980557 1.1769898736517432
          1.176543633875667 1.1787826854870944 1.1765302907134279 1.1768852840816055 1.1772140517313248 1.1763481589123566
          1.176529914460525 1.1764456712334153 1.1765297530414753 1.1764876762173258 1.1761621019985813 1.1764617412127885
          1.1766299508151818 1.1765213838091788 1.1765547919748136 1.1765623115443435 1.176406523341266 1.1765554335208712
          1.176541040319292 1.1765247677873287 1.1765309849860435 1.176412368819607 1.1766208174012067 1.1765274188284014
          1.1765314921049543 1.1765279720218154 1.1765847421852902 1.1765286777975488 1.1765365723899983 1.1765217571468671
          1.1764157804521793 1.1765160463180788 1.1765841435540842 1.1763 1.17653 1.17653
          1.1765325150840422 1.17653 1.1765586798516432 1.17653 1.17653 1.1765195577705085
          1.1765265665815594 1.17653 1.17653 1.1765158750707176 1.17653 1.17653
          1.17653 1.17653 1.1763 1.1768987957392136 1.1772118883544695 1.177085578157927
          1.1765945495877554 1.1764463233850138 1.176261376054741 1.1766720287676444 1.1760895984269375 1.1764290164896787
          1.1764292056909302 1.1765154287688735 1.1765503513443334 1.1764532324548331 1.176550552055328 1.1765571746392014
          1.1765669056220984 1.1764061312584166 1.1765460085179682 1.1765342319846968 1.1765119581117398 1.1765305640211583
          1.1765317723815059 1.1765269780538377 1.1765269885971052 1.1765313550979932 1.176530221031789 1.1765299667943685
          1.176529680652133 1.1765307471993456
        </DataArray>
        <DataArray type="Float64" Name="Momentum" NumberOfComponents="3" format="ascii" RangeMin="0" RangeMax="109.57172732525768">
          41.37182560306469 -0.05376038065102734 0 40.965936498042524 0.06169366255941649 0
          41.11457420682814 -0.15554583586582169 0 39.25610336835713 -0.9084717741857982 0
          40.19084456933324 1.213771742369712 0 40.8022526374391 0.03047116547249585 0
          40.34504068934975 -0.9611465740555887 0 39.52751630076591 0.6823069600515077 0
          40.838739457447815 -0.16777880863033054 0 40.99743305053831 0.5272578952281677 0
          40.26092806768059 -1.7719645616017259 0 40.82730066200582 -0.026169482021279278 0
          39.52724090623314 -1.44024345621611 0 68.28821791602344 0.04541996308766975 0
          40.32764309805975 1.4960807229523665 0 40.75874388885513 0.04862840314593572 0
          97.21088504248277 24.817742332861034 0 40.82272373711822 -0.10757252227606727 0
          93.01769534441361 43.218487131860314 0 98.62073607898998 -23.560441170987705 0
          41.0686775233092 1.1840976416595526 0 40.02214088550723 -0.7862770994930286 0
          60.17941689272189 26.1249785538347 0 40.805546841904516 0.00048653875973833703 0
          0 0 0 0 0 0
          41.09532824265191 -0.5259708472543835 0 87.97860089326174 -42.45715307061281 0
          0 0 0 40.8599982455398 0.14255056792977766 0
          0 0 0 40.806741309940314 0 0
          40.81720456319837 -0.007150607757438259 0 57.511372474539385 -23.74688746783447 0
          40.380062872609614 -1.0129838557401496 0 27.619121449415054 81.34461259427262 0
          40.7689547486289 0.03460196244229183 0 46.261658675898545 -13.939866742874383 0
          0 0 0 39.53384694889157 0.44386474718977786 0
          0 0 0 41.03633459585971 -0.06311551807980673 0
          -13.378405692161554 108.75192729407861 0 48.76165367055161 -74.53307490309138 0
          40.94350931364676 -0.3322082862758873 0 0 0 0
          0 0 0 41.28860837841232 3.3936927247897013 0
          43.18263206761255 6.086966696688128 0 40.80372108903497 0.005758762483379371 0
          40.809548676099716 -0.015544700731647074 0 -11.87109035247314 -82.99688067457983 0
          49.0459362797395 -7.102904756959505 0 40.87660099795896 1.1696367390160285 0
          0 0 0 40.80832564113789 -0.003459794656874253 0
          0 0 0 40.79859669924476 0.0061622276007369595 0
          -23.202364059141924 91.28423442479257 0 40.78923160889755 -0.2485732908176819 0
          0 0 0 0 0 0
          40.80653222902827 0.00037023379813322567 0 43.287415123709096 -1.639064467719459 0
          41.35915274820621 -0.5463388575783309 0 41.84497900016087 2.2286844689722614 0
          -39.509918549016184 56.44706889120729 0 -28.344474673834092 -99.80778907926553 0
          37.63203065545408 0.7703306423849332 0 40.788840483935076 -0.013745991893698142 0
          -59.337588399122815 -49.85125951679744 0 40.77325200525014 0.07293849355799292 0
          53.21989142484199 -9.033520982117803 0 40.8069256973888 0 0
          7.945410731820901 -0.14786295446305936 0 40.80573551046803 0.006911115810768052 0
          51.93852394550317 5.801335895812058 0 40.8089510603565 0 0
          41.07052072830153 1.8122645036059954 0 40.80305738958761 -0.0021163518152532016 0
          40.683244541490886 -0.26396835305799415 0 40.817652215873856 -0.010435520925785929 0
          40.90465935548977 0.016358699035044916 0 41.93064704791148 -0.45265449591596885 0
          41.50874221714729 0.37803291462472544 0 40.806806335316956 -0.0004551295386982357 0
          40.81837307974869 -0.02786512427697082 0 40.80771505343101 -0.0003949801931278492 0
          41.714048937338795 -0.5943845297021791 0 40.744877093229704 -0.007898116902384955 0
          40.80827284489253 -0.000606223741869631 0 40.80742676493817 -0.0005176122048113887 0
          41.95095685328422 0.4050794907383124 0 40.817417697261774 -0.03393447232309128 0
          40.51956146660211 0.0485897478160959 0 40.634061675468175 0.07512532829360272 0
          40.80592962177107 0.00468004227573106 0 41.127345584803024 0.15590962287702848 0
          40.806553036006804 0.000004041861379016452 0 40.81815192879094 -0.011597655815509748 0
          40.74965605738454 0.11117662009277796 0 40.79949320919847 0.026844960401114504 0
          40.80667622916197 -0.0005888630473750964 0 40.81029202062252 -0.005649746924105516 0
          40.80671361894645 0 0 40.805319842376925 0.0041614314820627475 0
          40.83026426704892 -0.009021355584915024 0 40.82600411445357 0.007170603593607482 0
          40.67336752567891 -0.09147389816024887 0 40.802689679256204 0 0
          40.80546342156625 0.0018570832158101194 0 40.808768872315554 -0.007247250242744292 0
          40.82270275096409 -0.004646015805075088 0 40.8032123728132 -0.000800349950753747 0
          40.80740707675431 -0.0005753042002465652 0 40.80409977230932 0.002451404162384062 0
          40.80711987837805 -0.0006767724818151253 0 40.80422888801004 0.010464236984046874 0
          40.79666984885998 0.003389670502367605 0 40.80593994230465 0.0012005429651546938 0
          40.807891786283655 0.0003717715578719069 0 40.80692505456044 -0.000200147677068688 0
          40.80669530418185 -0.005470028669393762 0 40.80742614382665 0.0001681728673760426 0
          40.809484633805944 0 0 40.80761088766807 0.0000747373223600375 0
          40.80718900472287 -0.002283508447622895 0 40.80766450883361 -0.0010305117588612822 0
          40.80188632101827 0.006880606630205892 0 40.798789199999995 0 0
          40.80676652 0 0 40.80676652 0 0
          40.80716918838904 0.00019083697507035367 0 40.80676652 0 0
          40.80505772177707 -0.006933152399661033 0 40.80676652 0 0
          40.80676652 0 0 40.80717077226891 0.001676829578480596 0
          40.80433435557267 -0.0013614530954703216 0 40.80676652 0 0
          40.80676652 0 0 40.802598008925806 0 0
          40.80676652 0 0 40.80676652 0 0
          40.80676652 0 0 40.80676652 0 0
          40.798789199999995 0 0 41.01205001351055 0.14140641884775712 0
          40.80774303465013 0.17286053028931378 0 41.06351602238095 -0.1466545704422985 0
          40.83169069750411 -0.0028144157340758615 0 40.77088904679081 -0.013233016480922236 0
          40.75690488292086 0.012363433032898089 0 40.8237123361673 0.028153673245615907 0
          40.75377864661468 -0.07376496073058587 0 40.7661532120163 -0.02416590658053619 0
          40.76602120950581 0.006051037273837429 0 40.80933129230992 -0.023576069770131946 0
          40.81176609943414 -0.0022424675825870413 0 40.79406351980782 0.007199995981897488 0
          40.815372036360266 0.0023371868761221937 0 40.80677547836223 0.003206270971326793 0
          40.81535112320071 0.005404867037926415 0 40.80543385834226 -0.010381000604168347 0
          40.807837844684606 -0.0078108238088847575 0 40.80765883548431 -0.0009004520348424221 0
          40.80356317267684 0.002742262951377093 0 40.80733343862099 0.000532513920258982 0
          40.806890146845305 0 0 40.807208474714486 -0.0006908027364137634 0
          40.8068138821286 -0.00048430075697785476 0 40.80651301441111 0.0003518627474534363 0
          40.806835675943596 0 0 40.806700718416565 0 0
          40.80668424102745 0.00007336393923560442 0 40.8070590013537 -0.00009255674396715986 0
          <InformationKey name="L2_NORM_RANGE" location="vtkDataArray" length="2">
            <Value index="0">
              0
            </Value>
            <Value index="1">
              109.57172733
            </Value>
          </InformationKey>
        </DataArray>
        <DataArray type="Float64" Name="Energy" format="ascii" RangeMin="251724.504481868" RangeMax="362705.9211899516">
          254562.49628428527 254226.98100606326 254307.44657609318 253478.39631158818 254431.72633800757 254113.30938302423
          254435.02262250136 253525.7027545186 254262.8997081485 254955.9151476741 253726.2312323401 254168.37354252624
          261885.06202690533 280630.89551337704 261893.40391173883 253997.05915840235 273878.9327410611 254256.33228633535
          281418.9043093789 273282.9464092992 254263.36391925113 252961.90896567624 283122.1386898573 254131.29534667
          295501.28189744614 280614.4134769972 254726.08148999297 280198.511520811 266601.4149240775 254267.67133916792
          316615.01593520655 254132.00440541568 254146.5842912282 282031.6461621602 253777.3265449092 286062.60314858536
          254069.94589664825 264294.1834471974 316161.388804011 253776.05735037653 303663.2177776804 254392.05039370604
          272292.7264175423 290000.97481194616 254430.3912652161 300406.1264368478 352356.87358136434 252530.82392814537
          263334.1427156642 254142.15363638222 254055.16914859723 270782.29526109685 311503.9885745831 253765.25398311886
          362705.9211899516 254141.4638537228 334166.9728189176 254094.1365607428 285846.9290573715 254266.77698980854
          351833.04876849276 353977.00643552066 254131.3141596021 303304.65546846786 255121.07653064787 252967.85723754865
          312009.625451085 282046.5641718746 251724.504481868 254031.60365159504 319477.29423088534 254465.5712543654
          261969.06284294365 254132.74143882326 287171.36083364335 254157.8318308201 259983.97745748953 254133.5088640296
          252172.80097052903 254140.02731327785 256119.46703056982 254098.35073778682 254374.00935134228 253687.30647142843
          253138.66592770308 254128.3189401936 254102.78191700234 254132.63537870496 253320.46955464082 253752.68330400056
          254132.9933444381 254133.73381384107 254142.73867394077 254252.2640232426 254916.2608386659 254270.31138781036
          254136.32563688944 254847.09933734746 254132.31384721078 254239.82762536564 254347.78835099342 254077.14910791445
          254132.20417374338 254106.86826450567 254132.15730870096 254119.38526276613 254021.98491402203 254112.2618341592
          254162.72373639385 254129.6321843451 254139.6824390362 254142.07188969784 254095.4732872202 254139.80051502326
          254135.5665908046 254130.64737530754 254132.53559709946 254096.58770578567 254159.31383582906 254131.42457181815
          254132.69808763237 254131.62510233824 254148.7826377239 254131.8554951608 254134.23766404777 254129.76891575952
          254097.76335029563 254128.04378307998 254148.42846712755 254082.5526023064 254132.23294498984 254132.23294498984
          254133.00161364223 254132.23294498984 254140.84570049483 254132.23294498984 254132.23294498984 254129.08859233305
          254131.18747811718 254132.23294498984 254132.23294498984 254127.96778579341 254132.23294498984 254132.23294498984
          254132.23294498984 254132.23294498984 254082.5526023064 254248.07977501978 254337.27272448226 254301.37701434703
          254152.6316182322 254105.67737763326 254049.11314872032 254175.77028017348 253997.2117014352 254100.29318113625
          254100.3381681317 254127.93344426065 254138.56001361844 254108.56597278832 254138.7413620906 254140.44978131403
          254143.68522519708 254094.7354072263 254137.11029081594 254133.5427059616 254126.66934087407 254132.42258776055
          254132.77267348647 254131.33428691793 254131.32373228765 254132.63464019535 254132.30213307834 254132.2206743569
          254132.13357832882 254132.46884882147
        </DataArray>
      </PointData>
      <CellData>
        <DataArray type="UInt8" Name="vtkGhostType" format="ascii" RangeMin="0" RangeMax="1">
          0 0 1 0 0 0
          1 1 1 1 0 1
          1 1 1 1 1 1
          1 1 1 0 0 0
          0 0 0 0 0 0
          0 0 0 0 0 0
          0 0 0 0 0 0
          0 0 0 0 0 0
          0 0 0 0 0 0