<?xml version="1.0"?>
<VTKFile type="UnstructuredGrid" version="0.1" byte_order="LittleEndian" header_type="UInt32" compressor="vtkZLibDataCompressor">
  <UnstructuredGrid>
    <Piece NumberOfPoints="176" NumberOfCells="76">
      <PointData>
        <DataArray type="Float64" Name="Velocity" NumberOfComponents="3" format="ascii" RangeMin="0" RangeMax="73.04541871676963">
          34.1888714893351 -0.06969981931284056 0 34.62401820223909 -0.06637352827202947 0
          34.85356242048884 -0.07048077358106025 0 32.97620284553456 -0.8550026648363266 0
          37.86578092982474 2.953207803883401 0 34.66419653290091 -0.00524152790991743 0
          38.13873775367189 -2.4532570440120383 0 33.65639525635095 0.4904490859795805 0
          34.65305885085961 0.07212669393333612 0 34.08187684046772 -0.6863763476949751 0
          38.50372162407938 1.7993521051095516 0 34.6679491958912 0.03157153222651925 0
          39.97716096063426 2.733169083428352 0 60.18080187117988 0.07233962965709448 0
          39.59883365797785 -2.3186203909909473 0 34.76794586702167 -0.13561385521177738 0
          65.5379884790851 16.99177047623692 0 34.45297365685793 -0.2396306612361933 0
          69.11335109485826 23.642713379539448 0 64.24782002137518 -17.724202649828115 0
          38.52206904889096 -1.6052092771985402 0 34.5181581832558 3.695004834093745 0
          50.93873767157122 28.305155882111553 0 34.685762823839625 0.0006090203752827651 0
          0 0 0 0 0 0
          34.378588352719184 0.4532345695575223 0 65.73689201081201 -19.953278244975905 0
          0 0 0 34.834377302196586 0.31069306520876905 0
          0 0 0 34.68393733152346 0 0
          34.67669990718542 -0.001211936621419163 0 50.70606154806687 -27.548052909215485 0
          34.573379098564345 -1.8828073327497608 0 15.421080257269697 55.84100049296657 0
          34.67641093006191 0.015293007849929532 0 37.614667226341425 1.2575292223272472 0
          0 0 0 33.64334879877353 -3.6584192075207254 0
          0 0 0 34.76803421698712 0.0981079365017218 0
          11.384550094826412 57.246454211110056 0 28.422020649690534 -49.21054030393224 0
          34.631580594934505 0.07637833099845277 0 0 0 0
          0 0 0 35.77754327890215 6.534392443284388 0
          35.98181539327146 -3.741220869304762 0 34.68635816998857 0.0011575739260138358 0
          34.70015640030432 -0.02575080628620645 0 7.6822222542627125 -48.35261588873053 0
          23.05217832693141 17.060330367536487 0 34.88588549411506 1.383474112567867 0
          0 0 0 34.6808187599835 0.00416015799417584 0
          0 0 0 34.685916149028685 0.0008792600235692285 0
          -3.157376104629396 50.21890903777722 0 34.62477730002379 -0.26112601437499217 0
          0 0 0 0 0 0
          34.68436860419868 -0.0008071333501174166 0 20.641245956806536 -22.56175170982631 0
          35.05570195435256 -0.9390761295228791 0 35.543553478864894 -1.7671410270138417 0
          -24.584714246466845 46.5594721961888 0 -8.107249962431743 -60.27774481816352 0
          29.226235516680735 2.003026359026773 0 34.67646871840936 0.006639795016522047 0
          -36.73505472551318 -42.45743261771003 0 34.81547635711939 0.12928282478387865 0
          32.82023020720677 -0.42568856143097733 0 34.68381538275871 0 0
          -13.499136091329186 0.7006484416273178 0 34.686178596725526 -0.006799766061831389 0
          31.652668349200155 -2.3236093642598474 0 34.68641191916544 0 0
          32.59210195606855 0.8727333754625498 0 34.69590620864286 -0.006615053570856098 0
          34.744344903843874 0.3648245442663242 0 34.62236038734435 0.030962483156795773 0
          34.63546018123218 0.12724883320568503 0 36.3578555791979 -1.0002928570697691 0
          31.781776243110468 3.011697436016075 0 34.682455640354846 0.003116721175906896 0
          34.69953263923984 -0.022573693689903352 0 34.68486472903837 -0.00016632402535014858 0
          32.621749544605144 -3.3138063735000283 0 34.568322974271695 -0.3207271554021002 0
          34.68049904533783 0.004602476893289586 0 34.6853386886523 -0.0019805408193219573 0
          36.80373519462193 1.1807633445087633 0 34.79391743088018 -0.018885457593018365 0
          35.030737594080136 0.07103984552808289 0 34.39508831633168 0.11741056489081726 0
          34.68144761537907 -0.001314631054989758 0 34.95513548374868 0.028897359287832932 0
          34.68437219532401 -0.00016871150574376747 0 34.72454850617545 0.09032725876163958 0
          34.61286061982876 0.30036806761008317 0 34.71563344537193 0.02110415719309873 0
          34.68510514260662 0.00017782245861214214 0 34.693822307075415 -0.0038493883780155703 0
          34.68403836957522 0 0 34.68193388951532 -0.015253640247379461 0
          34.5928442121076 0.02036237742736137 0 34.705346136976466 -0.02149031226718794 0
          34.34034691007098 -0.22198921899503646 0 34.679416256372065 0 0
          34.68354674506595 0.00015072291933383987 0 34.672948162514146 -0.003807469512539788 0
          34.71340898506991 -0.026816154766735212 0 34.68641419217879 0.0013380101083378842 0
          34.68621796785441 0.0049483741426625235 0 34.68099159359731 0.0031427999841437643 0
          34.68434253226192 -0.001038724899565706 0 34.699975585516256 0.025461184269714825 0
          34.699062300787716 0.009529482143723608 0 34.68831939442241 0.0014320349069673554 0
          34.68511087228194 -0.00008719343018151105 0 34.68363582922969 0.00020744336763643022 0
          34.68658424977236 -0.0073023201637987655 0 34.68326495271702 -0.0005857424687308462 0
          34.68662650734465 0 0 34.681041876282166 0.0009797707300458576 0
          34.71035534308032 0.0035083183097513017 0 34.6795185087842 0.001452023564921242 0
          34.67902088932139 0.003430443646162483 0 34.684 0 0
          34.684 0 0 34.684 0 0
          34.684012840471844 0.001606311504232329 0 34.684 0 0
          34.682073958048754 -0.004271507309317555 0 34.684 0 0
          34.684 0 0 34.68333135937911 -0.0012111293779328285 0
          34.681079970156524 -0.0023911322550494475 0 34.684 0 0
          34.684 0 0 34.67953462374287 0 0
          34.684 0 0 34.684 0 0
          34.684 0 0 34.684 0 0
          34.684 0 0 34.85109720138744 0.12335892586933501 0
          34.53334953559777 -0.17978491791150775 0 34.68160846307627 -0.06890293004774514 0
          34.65701219578513 -0.0032929571397535507 0 34.685953276255674 0.02331460754793854 0
          34.79649326743867 -0.013716623762602291 0 34.660107087591555 -0.03512517947011467 0
          34.73948576201924 0.1704415722355843 0 34.7073387676099 -0.06091729212240234 0
          34.67514474461484 -0.0002603913439988935 0 34.67061269026769 -0.007930503937369094 0
          34.67950703534249 0.0023866446126522313 0 34.69433167879261 -0.007840313747884135 0
          34.67882954121294 -0.0041804653211607 0 34.68500954189848 0.0012049111819580217 0
          34.67851086120293 0.004016554666704406 0 34.68273560244837 -0.01639545066175002 0
          34.68817186053002 0.0048881476043829905 0 34.682530753345596 0.0017695606576549963 0
          34.687959191381324 -0.005800586326878832 0 34.6824076482065 -0.0007761858975740564 0
          34.684094061371184 0 0 34.68341306619227 -0.00015634061223488595 0
          34.683959870896025 0.0002444901188943706 0 34.68419500958439 -0.0003001186845730866 0
          34.683820247945754 0 0 34.684152280990794 0 0
          34.68417238054883 -0.00019215572634877603 0 34.68350011870419 0.00013694322383448303 0
          <InformationKey name="L2_NORM_RANGE" location="vtkDataArray" length="2">
            <Value index="0">
              0
            </Value>
            <Value index="1">
              73.045418717
            </Value>
          </InformationKey>
        </DataArray>
        <DataArray type="Float64" Name="Pressure" format="ascii" RangeMin="84218.40826666138" RangeMax="133682.10952720468">
          102918.038816765 102999.45810780476 103121.35055438602 102737.16078434444 104846.10493335004 103064.14893354558
          104812.92271896449 102881.51788840597 102984.93138867946 102918.89713651733 105136.75534407521 103051.09389509256
          110314.14739153013 116473.50091048989 109901.34422381852 103105.49004862286 101861.89390976923 103015.2550662763
          104337.76987114536 101267.7859446874 104787.65577392488 104445.49203838792 118221.23442180328 103064.13054472001
          93492.971864013 86954.4942423518 102954.11950244218 105251.93937928605 84218.40826666138 103235.83080830249
          103371.84446550177 103064.09154676199 103065.83450196296 118476.99381858742 102489.22463632013 107217.01429547093
          103048.627549539 112271.72438604727 103689.06206687391 104543.01554238435 91644.17857913213 103019.23784667994
          114569.3545270372 108709.91102864963 103217.9114432132 93893.46375588895 100147.73406312063 103104.39554257557
          111293.83529458413 103067.13260959591 103030.52753684894 113029.27895932834 133682.10952720468 102698.87402214365
          100617.12900842525 103064.52801731761 107143.47654257165 103061.8630670001 121017.46379173355 103163.88248285682
          106993.71936163865 121188.88194100335 103064.32994046329 131859.04472794264 103567.23112168084 103083.11207974509
          119899.28048195191 119008.54382154594 102599.02607472062 103053.90040655958 121489.73965456187 103063.97853290883
          111772.46660289164 103063.87063015363 124644.95958226247 103066.17709857094 111087.55389655437 103064.42347048069
          102994.038968127 103068.42819813635 103731.09605217751 103049.73634083134 103175.74919094348 102416.9720211669
          104197.25567632179 103063.7936775961 103059.31000335781 103064.32864932242 104341.45662934141 103025.84899964048
          103062.94787026275 103064.25477296063 102393.09013273676 103036.02776351274 103182.70998062042 103220.25518948046
          103064.86467007933 103291.58197627102 103064.21983690078 103071.81785908689 103049.7434750635 103037.6204054891
          103064.17671334988 103060.29154494258 103063.96516607731 103066.30040076812 103073.3181028653 103062.73054667709
          103207.64747491671 103062.59889694196 103065.66675520498 103070.63386166577 103056.40924887835 103066.25600645083
          103063.63409125626 103063.24034767832 103064.1204387055 103053.50300583152 103061.2252547885 103063.3715489361
          103064.50547237512 103064.04538543934 103068.94441871303 103064.20862137988 103064.60858036146 103064.2218000422
          103048.11456077063 103064.55204238671 103070.92061067316 103043.87999999999 103064.028 103064.028
          103064.13331886515 103064.028 103068.03020474828 103064.028 103064.028 103063.95809082402
          103063.75953057082 103064.028 103064.028 103061.54256392889 103064.028 103064.028
          103064.028 103064.028 103043.87999999999 103128.80688449026 102956.89958692766 102986.6695834579
          103051.7594619142 103064.76595710524 103106.24338620302 103050.75137700106 103121.5833865245 103055.77782301034
          103060.06472881376 103064.73111504273 103062.32395641871 103071.17700375723 103062.2756164377 103066.2352750485
          103067.24841721555 103056.30921758749 103063.29703580964 103063.23762028087 103066.55840385587 103063.82366749701
          103064.00002637316 103064.0164948745 103063.983734486 103063.9942676831 103063.92142222443 103064.05281206933
          103064.16496391995 103063.94077669397
        </DataArray>
        <DataArray type="Float64" Name="Temperature" format="ascii" RangeMin="299.4093848640872" RangeMax="600">
          299.8780933709714 299.9485311794297 300.0521942402836 299.7115023020954 301.5135140295214 300.00012350688803
          301.47720258435686 299.8260926237718 299.93358556144125 299.85993087468546 301.7667765838917 299.98912026449557
          302.9620715783758 311.336893103094 302.73170642977243 300.03476882623846 328.414445977424 299.96211838863894
          326.5274245247212 326.3379686703407 301.4904165999602 301.22169812640584 313.170316829813 300.00008524888267
          600 600 299.8924563688397 325.4889130473468 600 300.13953884901093
          600 300.0000549669541 300.0015245460922 313.28821225999604 299.5378484130395 330.5141572202267
          299.98704590279175 304.78443074298065 600 301.28136527839195 600 299.96154808001455
          324.8157585180678 328.7056049611784 300.1425042669114 600 600 300.33276869557534
          303.73197933835405 300.0026083130337 299.97196934473794 327.7603195063455 330.51531948678644 299.7024874079098
          600 300.00042281299403 600 299.998185909922 330.6222907485926 300.0847998681858
          600 600 300.0002538595708 324.98338066471894 300.3281530429305 300.41670561233855
          331.2673280752284 335.3431294385927 299.84493278431705 299.9926259889614 333.1557014438255 300.0097596324973
          304.8923239744311 299.99986737607213 318.72636207466803 300.00159195748995 304.5474176149571 300.00024193839977
          300.3193976215544 300.00369168273045 300.4293648883083 299.98825281855164 300.09675629047996 299.4422070584875
          300.9626791297284 299.9998038403496 299.9957115434171 300.0002237270214 301.0746889776947 299.97029785837327
          299.9990953700442 300.0001560172011 299.4093848640872 299.97763320592367 300.10248466559426 300.13200783197954
          300.00070453109385 300.21033401100823 300.00016156367235 300.0061452886252 299.994064185781 299.97775165881836
          300.00012462113705 299.9968267947241 299.9999479496349 300.00191308588956 300.0076653234554 299.9988448101381
          300.1224485652645 299.99897776150215 300.0013854214855 300.0055641393935 299.9935607568245 300.0018793937164
          299.99963250590014 299.99944682299486 300.00006858279573 299.9911232297832 299.9976750642563 299.9994447285792
          300.0003714274011 300.00001495372675 300.00413622105856 300.00015249151414 300.00039451507996 300.00016612553156
          299.9865926571935 300.00044641809865 300.0058018590401 300 300 300
          300.00008156727057 300 300.0033698886121 300 300 299.9999419847841
          299.999868952428 300 300 299.9980944261386 300 300
          300 300 300 300.05565197566796 299.90882840592514 299.93275522291674
          299.98976154596596 300.00050486351364 300.0351197169377 299.9888434991291 300.048368042103 299.99298295122213
          299.99654083689154 300.0006061041406 299.9985802721242 300.0059569993283 299.99853827324324 300.00185375229756
          300.00271552436493 299.9935162270692 299.99938316304707 299.9993359332863 300.0021272860386 299.999829198477
          299.9999758757093 299.99999088611884 299.9999627384127 299.99997194718867 299.9999104146197 300.000020797678
          300.00011516954527 299.9999268485058
        </DataArray>
        <DataArray type="Float64" Name="Density" format="ascii" RangeMin="0.4806986773211266" RangeMax="1.3895235813673374">
          1.1753410630355643 1.1759946576341116 1.1769795952065307 1.1739275570831074 1.1908653724928835 1.1765308961543612
          1.1906318700017386 1.1751277625238892 1.1758873903164797 1.1754220561139923 1.1931644211841506 1.1764250143772574
          1.2469817559346126 1.281190444401016 1.2432608099054125 1.1768669167862202 1.0622008462279908 1.1761217426394126
          1.0943066427446455 1.062724903035357 1.1902926762623203 1.1874643940067473 1.292802093343276 1.1765308362753626
          0.5336356841553253 0.4963156064061175 1.1756967991289424 1.1074166668678609 0.4806986773211266 1.1779433230878467
          0.5900219432962429 1.1765305098519956 1.1765446431800668 1.2951113819085747 1.171773440950523 1.1109404779951635
          1.1764049933197922 1.2615218102323844 0.5918325460438009 1.188337770240983 0.5230832110681058 1.1761694501251931
          1.2079487921549223 1.132606837950054 1.177727223128808 0.535921596780188 0.5716194866616474 1.1756867109187423
          1.2548671114153758 1.1765552113345032 1.17625747884786 1.1810049866973833 1.3851565013603562 1.173525370845126
          0.5742986815549387 1.1765340497806327 0.6115495236448154 1.1765124004845438 1.2535251879460176 1.1773370979210998
          0.6106947452148325 0.6917173626769597 1.1765324512288644 1.3895235813673374 1.1809825178501347 1.1751155972432177
          1.2395245152579988 1.2153626255008847 1.1718274655850063 1.176443305222465 1.2488477622881193 1.1764911615692677
          1.2554675528827595 1.1765287236601019 1.3392877111283725 1.1765482897058357 1.2491875038449618 1.1765335656743772
          1.1744806173964113 1.1765657522141038 1.1824525866930984 1.1764129183258696 1.1774256116126796 1.1713213655231385
          1.1856616831415108 1.1765280943778456 1.1764929593874307 1.1765325546628105 1.1868608310890247 1.1762106199106142
          1.176521217472981 1.1765319768683404 1.171176607363338 1.1762980626523099 1.177482570772008 1.177795154788696
          1.1765367880058024 1.1783015251777218 1.1765315563030958 1.1765948236160886 1.1763902107593107 1.1763157803577189
          1.176531208905457 1.1764997906545966 1.1765294868470755 1.1765484378539883 1.1766059878509838 1.1765197192345145
          1.177688804041517 1.1765176949770875 1.1765432738900974 1.1765835871294565 1.1764682798397061 1.1765480632068037
          1.1765269445472115 1.1765231779537009 1.1765307862704621 1.1764446617611939 1.1765071228698583 1.1765246839015033
          1.176533993941344 1.1765301398188852 1.1765699016572766 1.176531463851017 1.176535080426926 1.1765315608228124
          1.1764009144359502 1.176534231465111 1.1765859281512292 1.1763 1.17653 1.17653
          1.1765308823821075 1.17653 1.1765624709872413 1.17653 1.17653 1.1765294294720756
          1.1765274492173743 1.17653 1.17653 1.1765091005254094 1.17653 1.17653
          1.17653 1.17653 1.1763 1.1770511342458223 1.1756643635572082 1.1759104925163029
          1.17643009761363 1.1765364442001243 1.1768741391792734 1.1764221895606657 1.1769972614500022 1.1764633375661286
          1.1764983228435577 1.1765356494169994 1.1765161152234527 1.1765882465139512 1.1765157281031666 1.1765479271090065
          1.176556112864298 1.1764673125352358 1.176524074738345 1.1765235817009614 1.1765505430236194 1.1765283372799535
          1.1765297752761814 1.1765299044054633 1.1765296408171195 1.176529724944444 1.1765291346914264 1.1765302016791463
          1.1765311118465573 1.176529291183078
        </DataArray>
        <DataArray type="Float64" Name="Momentum" NumberOfComponents="3" format="ascii" RangeMin="0" RangeMax="79.93408692382506">
          40.18358456026141 -0.08192105972454077 0 40.71766043165941 -0.07805491465623332 0
          41.021931789172505 -0.08295443235927943 0 38.7116732483354 -1.0037111896308557 0
          45.09304731172966 3.5168729114204966 0 40.78349821132481 -0.006166819529073249 0
          45.40919665116027 -2.9209260219069906 0 39.550564452215326 0.576340337039071 0
          40.748094938620696 0.08481286990142609 0 40.060589752046425 -0.8067818978756401 0
          45.941270725030336 2.146922912999521 0 40.78424263120633 0.037141540253494955 0
          49.85079037197235 3.4082119829196817 0 77.10306829374645 0.0926808422681778 0
          49.23167800492725 -2.8826498651666093 0 40.91724525551201 -0.15959945965657732 0
          69.61450682256451 18.048672978770647 0 40.52089141641352 -0.2818348308829464 0
          75.63119920544631 25.872378303737726 0 68.277758302449 -18.8359515424176 0
          45.852536663366315 -1.9106688465177553 0 40.98908378930889 4.387686676169131 0
          65.85370669407126 36.59296477680156 0 40.80886954198092 0.0007165312514401668 0
          0 0 0 0 0 0
          40.41879628486349 0.532866432683363 0 72.79812984086595 -22.09659288713822 0
          0 0 0 41.032922157045306 0.36597882169236645 0
          0 0 0 40.80671047233196 0 0
          40.798685518961726 -0.0014258975398044648 0 65.66999744265813 -35.6777968721446 0
          40.512167391611634 -2.2062236269430633 0 17.131902272212976 62.03602777938444 0
          40.79350296853385 0.01799077079753588 0 47.45172309066297 1.5864005409703914 0
          0 0 0 39.97966209497419 -4.347437723671963 0
          0 0 0 40.89309968692764 0.11539155772814749 0
          13.751953536272772 69.15078521946246 0 32.19097493619714 -55.73619444745039 0
          40.78655524663373 0.08995283967402075 0 0 0 0
          0 0 0 42.06318218232543 7.682398359497307 0
          45.15239674603586 -4.694735025431388 0 40.81041546711518 0.001361949635156519 0
          40.81631848304839 -0.03028957848051282 0 9.072742791201877 -57.10468048445389 0
          31.930874680067344 23.631227523948677 0 40.93947171174198 1.6235419710058376 0
          0 0 0 40.80316414539153 0.0048945675326149745 0
          0 0 0 40.808410471499336 0.0010344603209795295 0
          -3.9578504749718286 62.95066739002365 0 40.76503482257438 -0.3074333439559567 0
          0 0 0 0 0 0
          40.807285213223345 -0.0009496185788822094 0 28.681498005785894 -31.350086037758505 0
          41.40017115905517 -1.109032491896889 0 41.76778407446257 -2.0765949833723636 0
          -30.473356009108233 57.7116072046492 0 -9.853248599932991 -73.25931820147557 0
          34.24810549410248 2.347201301798306 0 40.794899472528925 0.007811342395236849 0
          -45.87649089148874 -53.022869717125786 0 40.96010021997476 0.1521001007009415 0
          41.204734103290704 -0.5344381765099313 0 40.80650504393971 0 0
          -18.07922707796667 0.9383698476927116 0 40.80996410440858 -0.008000253130447506 0
          39.54011776516977 -2.9026237816505374 0 40.809727895705926 0 0
          38.27879202761017 1.0250084336357095 0 40.82201498712188 -0.007783045480530898 0
          41.08354050450736 0.43138772605684583 0 40.73019202260575 0.0364246651691017 0
          40.78067788737391 0.14982603526420354 0 42.58673304451915 -1.1716643952660035 0
          37.68243431363324 3.5708542510997923 0 40.80488344289085 0.0036669100257968185 0
          40.82375584410003 -0.026557791693539765 0 40.80787250778952 -0.00019568563044701235 0
          38.71747677608808 -3.9330269865203507 0 40.65962859483844 -0.3772426862776721 0
          40.802342959391424 0.005414911717884327 0 40.80841009570803 -0.002330169605425305 0
          43.10367372353599 1.3828824079207618 0 40.928017666028786 -0.02221492717896986 0
          41.248082958317106 0.08364817993965337 0 40.51036836750474 0.13828559444940836 0
          40.803998980789586 -0.0015467117988503295 0 41.18768945329497 0.03404980252246215 0
          40.80725839836038 -0.00019849441041895342 0 40.856724024771815 0.10627858509037612 0
          40.718230399543 0.3533500543611926 0 40.83654744690521 0.0248251531373919 0
          40.80810868444385 0.00020921367220148418 0 40.817274681282 -0.0045288046208835555 0
          40.806793864740605 0 0 40.804975139464545 -0.01794664660464103 0
          40.70214763676205 0.023958495207915098 0 40.83152409301219 -0.025283776154853995 0
          40.44224208289229 -0.2614342178283749 0 40.8009468770978 0 0
          40.80669363756012 0.00017733203696330903 0 40.795621725404594 -0.004479806136950107 0
          40.8392245560374 -0.03154835547033631 0 40.81023343739694 0.0015742332015160634 0
          40.80927004361834 0.0058218955105431664 0 40.802990444284696 0.003697577025017662 0
          40.80719679075615 -0.0012220918228047469 0 40.82260104082436 0.029953674316224088 0
          40.82369395378172 0.011211503619351951 0 40.81166401059721 0.0016848244162556865 0
          40.808212024864204 -0.00010258603465689892 0 40.8063429115909 0.00024406337432978964 0
          40.81119101958151 -0.008591690116990661 0 40.80595248595282 -0.000689144444175611 0
          40.81003290755748 0 0 40.80334032966358 0.0011527311862693592 0
          40.83329376599646 0.0041271888677238185 0 40.80164065631251 0.0017083554290238442 0
          40.802847980438074 0.004036211721390572 0 40.798789199999995 0 0
          40.80676652 0 0 40.80676652 0 0
          40.80681223175269 0.0018898750914549925 0 40.80676652 0 0
          40.80562663504409 -0.0050256951946907255 0 40.80676652 0 0
          40.80676652 0 0 40.80596005644126 -0.0014249293560361805 0
          40.803242553392025 -0.0028132327327747148 0 40.80676652 0 0
          40.80676652 0 0 40.80078808681951 0 0
          40.80676652 0 0 40.80676652 0 0
          40.80676652 0 0 40.80676652 0 0
          40.798789199999995 0 0 41.02152349060449 0.1451997636138471 0
          40.59962840326717 -0.21136672109361768 0 40.7824672890736 -0.08102367840826036 0
          40.77155224048426 -0.0038739338893577693 0 40.8092881313375 0.027430485462372988 0
          40.951093060574266 -0.016142739783058538 0 40.774919070391604 -0.04132204054094364 0
          40.88827960607799 0.20060926375851543 0 40.831911604580625 -0.0716669608058123 0
          40.79524963639696 -0.0003063499794976781 0 40.79121181722935 -0.009330520600156617 0
          40.80099889508554 0.0028079258480965853 0 40.820942873924025 -0.009224821004742218 0
          40.80018838744575 -0.004918383201135419 0 40.808576078276765 0.0014176357534831734 0
          40.80121393877926 0.004725701945764693 0 40.80310474558257 -0.019288711777833097 0
          40.81146930257477 0.005751023337431155 0 40.8048153043799 0.002081929842981365 0
          40.812137223000846 -0.0068246829927446715 0 40.804835403209935 -0.0009132047034929529 0
          40.80686939168298 0 0 40.806072659222394 -0.00018393940556740197 0
          40.806706849020685 0.00028764987176612875 0 40.80698641454578 -0.0003530985534114619 0
          40.80652502410859 0 0 40.80695267822432 0 0
          40.80700789436477 -0.00022607719036880827 0 40.80615381040724 0.00016111771407030992 0
          <InformationKey name="L2_NORM_RANGE" location="vtkDataArray" length="2">
            <Value index="0">
              0
            </Value>
            <Value index="1">
              79.934086924
            </Value>
          </InformationKey>
        </DataArray>
        <DataArray type="Float64" Name="Energy" format="ascii" RangeMin="207084.99018994134" RangeMax="329281.1048778803">
          253752.50715658523 253970.69792508462 254280.39581800968 253259.53794276915 258665.45304876397 254131.7229788023
          258594.43402421128 253641.4931842634 253936.0971419895 253750.64604440337 259407.58626906213 254099.7118883627
          272253.01451201295 288717.23563759844 271214.96736069606 254237.82830773538 252903.16637263968 254002.70040322453
          259475.9805460617 251368.0497029346 258547.49822009125 257536.98970199405 292889.8162915544 254132.5575328727
          229890.25273411412 213812.7632397554 253849.19888001532 261417.63741498365 207084.99018994134 254561.74363102997
          254181.45317202146 254132.3869497582 254136.3859031391 293479.92737633345 252713.57385452054 265500.5302178553
          254093.98004274524 276958.84234270494 254961.46083566942 257741.72777919492 225344.24732814 254025.31931292286
          283772.6552113274 269136.11738021276 254509.2015037453 230875.023892905 246253.6748538377 254301.38047971463
          274481.9836002451 254139.97828206152 254050.35428099844 279343.5882907242 329281.1048778803 253241.9113085227
          247407.87201386757 254133.3350750983 263455.5347861865 254126.97718969913 299157.2441805578 254375.87486385912
          263087.2962385498 297991.83984123426 254132.99190406533 324878.4143240297 255388.06698733458 254215.61047368086
          296538.9338741692 294878.4920977282 252783.9892065878 254106.97077251686 300699.86527036777 254137.47289752847
          275514.0656503117 254131.83768631786 306612.3590634466 254137.61730623367 273782.79019938625 254133.30594003995
          253876.70610769594 254143.56009264357 255778.60741586992 254094.50843786256 254405.51200069906 252608.28054308714
          256815.2447045297 254131.5926093514 254121.2438226056 254133.009036777 257203.66906653612 254033.51158174296
          254129.42888503656 254132.84637802988 252568.79464615422 254067.73534684227 254438.86796624446 254505.39664520166
          254134.19016908822 254703.95653193202 254132.7207778402 254153.08696404932 254094.17800721934 254068.46182546043
          254132.6444420812 254123.4280614463 254132.0796994813 254137.7474775383 254151.40724218832 254129.9080468446
          254472.13784635245 254128.52448282007 254136.25197506644 254148.05742759697 254114.66299688327 254137.82078541582
          254131.35304849668 254130.1693285756 254132.47469418356 254106.95405964064 254125.9423216265 254130.79186909634
          254133.45473808088 254132.2609176877 254144.4514413647 254132.64796171422 254133.77077604516 254132.58971361755
          254094.10145434403 254133.34119738324 254149.01168436176 254082.5526023064 254132.23294498984 254132.23294498984
          254132.4929702206 254132.23294498984 254142.0149288672 254132.23294498984 254132.23294498984 254132.0334179403
          254131.45212179865 254132.23294498984 254132.23294498984 254125.92672259704 254132.23294498984 254132.23294498984
          254132.23294498984 254132.23294498984 254082.5526023064 254298.67857239116 253862.18308444964 253941.5486443767
          254100.9049392803 254134.1314162047 254240.84291432268 254098.54831360228 254276.3211761376 254112.86128306852
          254122.10728924998 254133.41908250688 254127.85118770134 254150.2684166353 254127.70445630644 254137.712403875
          254139.94337697953 254113.16405915347 254130.60227372847 254130.2256647419 254138.62891548596 254131.66453405915
          254132.1678636996 254132.18064683842 254132.1222467883 254132.1577927981 254131.9630249094 254132.3002909066
          254132.57742923865 254131.99764652894
        </DataArray>
      </PointData>
      <CellData>
        <DataArray type="UInt8" Name="vtkGhostType" format="ascii" RangeMin="0" RangeMax="1">
          0 0 1 0 0 0
          1 1 1 1 0 1
          1 1 1 1 1 1
          1 1 1 0 0 0
          0 0 0 0 0 0
          0 0 0 0 0 0
          0 0 0 0 0 0
          0 0 0 0 0 0
          0 0 0 0 0 0
          0 0 0 0 0 1