<?xml version="1.0"?>
<VTKFile type="UnstructuredGrid" version="0.1" byte_order="LittleEndian" header_type="UInt32" compressor="vtkZLibDataCompressor">
  <UnstructuredGrid>
    <Piece NumberOfPoints="161" NumberOfCells="68">
      <PointData>
        <DataArray type="Float64" Name="Velocity" NumberOfComponents="3" format="ascii" RangeMin="34.683999908772435" RangeMax="34.68400000492398">
          34.684 0 0 34.684 -2.486402182894295e-15 0
          34.684 0 0 34.684 -1.0512004434052977e-15 0
          34.684 -1.5194576152103915e-15 0 34.684 0 0
          34.684 -3.991955750802079e-15 0 34.684 -5.5904940231597704e-15 0
          34.684 3.088861474036527e-15 0 34.684 -7.692004457630732e-16 0
          34.684 0 0 34.684 4.580151820266777e-16 0
          34.684 -2.4859251771282164e-15 0 34.684 6.536358238658836e-16 0
          34.684 4.387201585063606e-15 0 34.684 1.5333141911113804e-16 0
          34.684 1.296904813350002e-15 0 34.684 0 0
          34.684 -7.2984169785696965e-16 0 34.684 -2.787200924334438e-16 0
          34.684 -4.4324071708851206e-16 0 34.684 5.861039446133132e-16 0
          34.684 4.944120260161563e-16 0 34.684 -3.1241060620717398e-15 0
          34.684 -2.375789628683687e-15 0 34.684 0 0
          34.684 -1.0148547008510053e-15 0 34.684 -1.0727473433738573e-15 0
          34.684 -4.231503379244447e-15 0 34.684 1.4516373689931537e-15 0
          34.684 -1.1737230717285435e-16 0 34.68399999999999 1.0671286249047063e-15 0
          34.684 5.344587069194463e-16 0 34.68399999999999 -2.5181600927163564e-15 0
          34.684 -2.309158997039001e-15 0 34.684 -3.597025535822073e-15 0
          34.68399999999999 0 0 34.684 -6.932919777827783e-16 0
          34.684 1.1942571278587392e-15 0 34.684 -1.7225893220601018e-15 0
          34.684 -1.8630670155148618e-15 0 34.684000000000005 -8.154484919790267e-16 0
          34.684000000000005 6.498622758202317e-15 0 34.684 -1.923769618261854e-15 0
          34.684 -6.942793994432784e-15 0 34.684 -2.434682468154543e-15 0
          34.684 1.3799051041720117e-15 0 34.684 3.0648709866736116e-16 0
          34.684 2.7684645734696974e-15 0 34.684000000000005 0 0
          34.684 -2.729443883590844e-15 0 34.683999999999365 1.9079564106287603e-13 0
          34.684 3.8641126507883e-15 0 34.684 4.686701377549731e-15 0
          34.684000000000026 -2.8362167107993915e-14 0 34.68399999999973 -2.2474770069189482e-13 0
          34.684 -2.0071716067421847e-15 0 34.684 -4.0066126751515285e-15 0
          34.684 -1.002021936079195e-15 0 34.684 1.4260131647900883e-15 0
          34.684 -2.950284230218831e-15 0 34.68399999999997 6.8886735271630425e-15 0
          34.683999999998306 0 0 34.684 4.1503027087762045e-15 0
          34.684 -1.50165627417358e-15 0 34.68399999999999 1.6908879581563068e-15 0
          34.684 3.529217135293907e-15 0 34.684 -1.0347816518413908e-15 0
          34.68399999999955 3.7430064951408466e-13 0 34.684 -1.9978328249763624e-15 0
          34.684 -2.448843614992306e-15 0 34.684 1.3368882369393718e-16 0
          34.6840000000011 -3.5434838650060323e-13 0 34.684 -8.416882076285641e-16 0
          34.68400000000003 -1.2598657522722402e-14 0 34.68400000000388 0 0
          34.683999999999884 -7.63153900192704e-15 0 34.684 -5.4013856625717126e-15 0
          34.684000000000694 8.691924620909953e-13 0 34.684 -2.9689013789691855e-15 0
          34.68399999999998 -7.187925809371057e-14 0 34.684 2.2143096166466122e-15 0
          34.684 1.486699724547719e-15 0 34.684 0 0
          34.684 -5.354926125324944e-15 0 34.684 0 0
          34.684 -1.4210897626319003e-15 0 34.684 -1.9867799839383714e-15 0
          34.68399999988865 0 0 34.68399999999883 4.3710628143991274e-13 0
          34.684 0 0 34.68399999997581 -1.054246473205453e-12 0
          34.68400000000082 -1.1909171755507037e-12 0 34.68399999997533 8.472212821121996e-12 0
          34.68400000000025 -1.1567043233558427e-14 0 34.684 0 0
          34.68399999999999 1.905383858823656e-15 0 34.683999999999926 9.264958848035871e-14 0
          34.684 0 0 34.684 2.5872128509660402e-15 0
          34.68399999999966 5.858473952708477e-13 0 34.68400000000289 -5.305985551397623e-13 0
          34.684000000198075 0 0 34.68399999998327 1.057064849886544e-11 0
          34.68400000009875 2.3408240123597177e-11 0 34.684000000000005 -4.159810339808982e-15 0
          34.68400000006478 -1.700249997636049e-11 0 34.684 0 0
          34.684 5.8266061480243755e-16 0 34.68399999999195 1.859444868117682e-13 0
          34.68399999999613 -5.27449116114872e-12 0 34.68399999999989 -5.132667640076417e-13 0
          34.68399999991357 2.5040731933974787e-11 0 34.684 0 0
          34.68399999999924 1.396725500825773e-13 0 34.68399999702089 0 0
          34.684000000090684 -8.217745433194342e-11 0 34.68399999847653 -6.565215279470076e-11 0
          34.684 -8.096609948823229e-15 0 34.68399999792907 4.171989245780787e-10 0
          34.68399999999997 0 0 34.684000000020404 2.4705616886258696e-14 0
          34.68399999999632 5.248193508938842e-12 0 34.68399999999759 3.841078828641661e-11 0
          34.68400000000201 -2.31386239474126e-13 0 34.68400000016231 -4.120934805681539e-11 0
          34.68399999999949 3.598416138349888e-13 0 34.683999998473894 9.135115977705971e-10 0
          34.68400000000005 0 0 34.68400000492398 -9.74709854412188e-10 0
          34.68399999997266 -4.6712006884991627e-11 0 34.6839999994997 2.3703853282814028e-11 0
          34.68399999992779 1.7232063141293267e-11 0 34.68399999966 -2.911609715445019e-10 0
          34.68400000000109 -2.6178650166131463e-12 0 34.68399999739379 1.4472044135862886e-9 0
          34.68399999999628 0 0 34.68400000418111 -4.766555272025531e-9 0
          34.68400000016695 -1.9521743399102805e-11 0 34.68399999996282 2.4545042077157698e-11 0
          34.684000000007394 0 0 34.684000000162634 -1.9063341975089958e-10 0
          34.683999999754136 0 0 34.683999995037496 1.6271044605479738e-9 0
          34.68399999988025 3.0416374830091614e-10 0 34.683999977357594 1.5552651544624343e-9 0
          34.68400000106642 1.3528088506510534e-11 0 34.68399999824185 -3.916864629489895e-9 0
          34.68400000101591 1.220451293761661e-9 0 34.68399995521682 8.634493747654328e-9 0
          34.684000002882186 7.377875862727131e-10 0 34.683999981610135 -9.255683088034588e-9 0
          34.683999908772435 -7.0111706937957125e-9 0 34.68399996904893 8.362335978581593e-9 0
          34.68400000335434 1.6606222682397894e-9 0 34.683999980051496 0 0
          34.68400000148324 0 0 34.68399999604044 6.3505563527443265e-9 0
          34.68399999468808 0 0 34.683999997525206 1.601762716530787e-9 0
          34.68400000042172 0 0
          <InformationKey name="L2_NORM_RANGE" location="vtkDataArray" length="2">
            <Value index="0">
              34.683999909
            </Value>
            <Value index="1">
              34.684000005
            </Value>
          </InformationKey>
        </DataArray>
        <DataArray type="Float64" Name="Pressure" format="ascii" RangeMin="103064.027957911" RangeMax="103064.02800215673">
          103064.028 103064.028 103064.028 103064.028 103064.028 103064.028
          103064.028 103064.028 103064.028 103064.028 103064.028 103064.028
          103064.028 103064.028 103064.028 103064.028 103064.028 103064.028
          103064.028 103064.028 103064.028 103064.028 103064.028 103064.028
          103064.028 103064.028 103064.028 103064.028 103064.028 103064.028
          103064.028 103064.028 103064.028 103064.028 103064.028 103064.028
          103064.028 103064.028 103064.028 103064.028 103064.028 103064.028
          103064.028 103064.028 103064.028 103064.028 103064.028 103064.028
          103064.028 103064.02800000002 103064.028 103064.0279999997 103064.028 103064.028
          103064.02800000002 103064.0279999999 103064.028 103064.028 103064.028 103064.028
          103064.028 103064.02799999999 103064.02799999937 103064.028 103064.028 103064.028
          103064.028 103064.028 103064.02799999977 103064.028 103064.028 103064.028
          103064.02800000056 103064.028 103064.02800000002 103064.02800000181 103064.02799999995 103064.028
          103064.02800000015 103064.028 103064.028 103064.028 103064.028 103064.028
          103064.028 103064.028 103064.028 103064.028 103064.02799995638 103064.02799999945
          103064.028 103064.02799998996 103064.02800000047 103064.02799998863 103064.02800000012 103064.028
          103064.028 103064.02799999996 103064.028 103064.028 103064.02799999982 103064.02800000143
          103064.02800008471 103064.02799999205 103064.02800003925 103064.02800000002 103064.02800003157 103064.028
          103064.028 103064.0279999964 103064.02799999861 103064.02799999995 103064.0279999623 103064.028
          103064.02799999966 103064.02799873512 103064.02800004646 103064.02799942685 103064.028 103064.02799918196
          103064.02799999999 103064.0280000103 103064.0279999982 103064.02799999736 103064.028000001 103064.02800008301
          103064.02799999977 103064.02799937 103064.02800000003 103064.0280019997 103064.02799999189 103064.02799978368
          103064.0279999681 103064.02799988516 103064.0280000005 103064.02799885497 103064.02799999827 103064.02800155985
          103064.02800007808 103064.02799998327 103064.02800000373 103064.0280000843 103064.02799989459 103064.02799772793
          103064.02799992794 103064.02798988085 103064.02800053166 103064.02799964398 103064.02800036324 103064.02798786019
          103064.02800215673 103064.02799394797 103064.027957911 103064.02799332139 103064.02800150699 103064.0279917929
          103064.02800043426 103064.0279989959 103064.02799703134 103064.02799896605 103064.02800017918
        </DataArray>
        <DataArray type="Float64" Name="Temperature" format="ascii" RangeMin="299.99999996463583" RangeMax="300.00000000181257">
          299.99999999999994 299.99999999999994 299.99999999999994 299.99999999999994 299.99999999999994 299.99999999999994
          299.99999999999994 299.99999999999994 299.99999999999994 299.99999999999994 299.99999999999994 299.99999999999994
          299.99999999999994 299.99999999999994 299.99999999999994 299.99999999999994 299.99999999999994 299.99999999999994
          299.99999999999994 299.99999999999994 299.99999999999994 299.99999999999994 299.99999999999994 299.99999999999994
          299.99999999999994 299.99999999999994 299.99999999999994 299.99999999999994 299.99999999999994 299.99999999999994
          299.99999999999994 299.99999999999994 299.99999999999994 299.99999999999994 299.99999999999994 299.99999999999994
          299.99999999999994 299.99999999999994 299.99999999999994 299.99999999999994 299.99999999999994 299.99999999999994
          299.99999999999994 299.99999999999994 299.99999999999994 299.99999999999994 299.99999999999994 299.99999999999994
          299.99999999999994 300 299.99999999999994 299.9999999999997 299.99999999999994 299.99999999999994
          300 299.9999999999999 299.99999999999994 299.99999999999994 299.99999999999994 299.99999999999994
          299.99999999999994 299.99999999999994 299.9999999999995 299.99999999999994 299.99999999999994 299.99999999999994
          299.99999999999994 299.99999999999994 299.9999999999998 299.99999999999994 299.99999999999994 299.99999999999994
          300.00000000000045 299.99999999999994 300 300.0000000000015 299.9999999999999 299.99999999999994
          300.0000000000001 299.99999999999994 299.99999999999994 299.99999999999994 299.99999999999994 299.99999999999994
          299.99999999999994 299.99999999999994 299.99999999999994 299.99999999999994 299.99999999996334 299.9999999999995
          299.99999999999994 299.9999999999914 300.0000000000003 299.99999999999045 300.0000000000001 299.99999999999994
          299.99999999999994 299.99999999999994 299.99999999999994 299.99999999999994 299.9999999999998 300.00000000000114
          300.00000000007117 299.99999999999335 300.00000000003297 300 300.0000000000265 299.99999999999994
          299.99999999999994 299.9999999999969 299.9999999999988 299.99999999999994 299.9999999999683 299.99999999999994
          299.99999999999966 299.9999999989372 300.00000000003894 299.99999999951854 299.99999999999994 299.999999999313
          299.99999999999994 300.0000000000086 299.9999999999984 299.9999999999977 300.00000000000085 300.0000000000697
          299.9999999999998 299.99999999947096 300 300.00000000167927 299.9999999999932 299.9999999998184
          299.9999999999732 299.99999999990365 300.0000000000004 299.9999999990385 299.9999999999985 300.00000000130916
          300.00000000006554 299.99999999998596 300.00000000000307 300.00000000007077 299.9999999999115 299.9999999980912
          299.9999999999394 299.9999999915004 300.00000000044656 299.9999999997017 300.00000000030485 299.99999998982395
          300.00000000181257 299.9999999949237 299.99999996463583 299.99999999441235 300.00000000126636 299.9999999931029
          300.0000000003646 299.99999999915644 299.99999999750503 299.9999999991311 300.00000000015046
        </DataArray>
        <DataArray type="Float64" Name="Density" format="ascii" RangeMin="1.176529999658222" RangeMax="1.1765300000175118">
          1.17653 1.17653 1.17653 1.17653 1.17653 1.17653
          1.17653 1.17653 1.17653 1.17653 1.17653 1.17653
          1.17653 1.17653 1.17653 1.17653 1.17653 1.17653
          1.17653 1.17653 1.17653 1.17653 1.17653 1.17653
          1.17653 1.17653 1.17653 1.17653 1.17653 1.17653
          1.17653 1.17653 1.17653 1.17653 1.17653 1.17653
          1.17653 1.17653 1.17653 1.17653 1.17653 1.17653
          1.17653 1.17653 1.17653 1.17653 1.17653 1.17653
          1.17653 1.1765300000000003 1.17653 1.1765299999999976 1.17653 1.17653
          1.17653 1.1765299999999994 1.17653 1.17653 1.17653 1.17653
          1.17653 1.17653 1.1765299999999947 1.17653 1.17653 1.17653
          1.17653 1.17653 1.1765299999999983 1.17653 1.17653 1.17653
          1.1765300000000047 1.17653 1.17653 1.176530000000015 1.1765299999999999 1.17653
          1.1765300000000012 1.17653 1.17653 1.17653 1.17653 1.17653
          1.17653 1.17653 1.17653 1.17653 1.1765299999996457 1.1765299999999956
          1.17653 1.176529999999919 1.176530000000004 1.1765299999999077 1.176530000000001 1.17653
          1.17653 1.1765299999999999 1.17653 1.17653 1.176529999999999 1.1765300000000118
          1.176530000000688 1.1765299999999355 1.176530000000319 1.17653 1.1765300000002565 1.17653
          1.17653 1.1765299999999712 1.1765299999999888 1.1765299999999996 1.176529999999694 1.17653
          1.1765299999999974 1.1765299999897287 1.1765300000003776 1.1765299999953454 1.17653 1.1765299999933558
          1.17653 1.1765300000000838 1.1765299999999856 1.1765299999999788 1.176530000000008 1.1765300000006742
          1.176529999999998 1.176529999994883 1.1765300000000003 1.1765300000162418 1.1765299999999341 1.1765299999982428
          1.176529999999741 1.1765299999990668 1.176530000000004 1.1765299999906997 1.176529999999986 1.1765300000126724
          1.1765300000006342 1.176529999999864 1.1765300000000305 1.1765300000006849 1.1765299999991439 1.1765299999815488
          1.1765299999994152 1.176529999917818 1.1765300000043177 1.176529999997106 1.176530000002951 1.1765299999013257
          1.1765300000175118 1.1765299999508207 1.176529999658222 1.1765299999456735 1.1765300000122367 1.1765299999333605
          1.1765300000035275 1.1765299999918457 1.176529999975896 1.1765299999916046 1.1765300000014554
        </DataArray>
        <DataArray type="Float64" Name="Momentum" NumberOfComponents="3" format="ascii" RangeMin="40.8067664008138" RangeMax="40.80676652635654">
          40.80676652 0 0 40.80676652 -2.925326760240625e-15 0
          40.80676652 0 0 40.80676652 -1.236768857679635e-15 0
          40.80676652 -1.787687468023482e-15 0 40.80676652 0 0
          40.80676652 -4.6966556994911706e-15 0 40.80676652 -6.577383933068165e-15 0
          40.80676652 3.634138190048195e-15 0 40.80676652 -9.049874004536286e-16 0
          40.80676652 0 0 40.80676652 5.388686021098471e-16 0
          40.80676652 -2.9247655486466606e-15 0 40.80676652 7.690221558529281e-16 0
          40.80676652 5.161674280874885e-15 0 40.80676652 1.8039901452682724e-16 0
          40.80676652 1.5258474200506778e-15 0 40.80676652 0 0
          40.80676652 -8.586806527796605e-16 0 40.80676652 -3.2792255035071967e-16 0
          40.80676652 -5.214860008761471e-16 0 40.80676652 6.895688739559014e-16 0
          40.80676652 5.816905809687884e-16 0 40.80676652 -3.675604505209264e-15 0
          40.80676652 -2.7951877718352182e-15 0 40.80676652 0 0
          40.80676652 -1.1940070011922333e-15 0 40.80676652 -1.2621194318996445e-15 0
          40.80676652 -4.9784906707824696e-15 0 40.80676652 1.7078949137415151e-15 0
          40.80676652 -1.3809204055807834e-16 0 40.80676651999999 1.255508841059134e-15 0
          40.80676652 6.288067024519362e-16 0 40.80676651999999 -2.962690893883575e-15 0
          40.80676652 -2.716794834786296e-15 0 40.80676652 -4.232008453660744e-15 0
          40.80676651999999 0 0 40.80676652 -8.156788106207723e-16 0
          40.80676652 1.4050793386396424e-15 0 40.80676652 -2.0266780150833715e-15 0
          40.80676652 -2.1919542357637003e-15 0 40.80676652000001 -9.593996142680844e-16 0
          40.80676652000001 7.645824633707772e-15 0 40.80676652 -2.2633726689736192e-15 0
          40.80676652 -8.168405418270004e-15 0 40.80676652 -2.8644769642578646e-15 0
          40.80676652 1.6234997522114969e-15 0 40.80676652 3.6059126619511044e-16 0
          40.80676652 3.2571816246243033e-15 0 40.80676652000002 0 0
          40.80676652 -3.211272612361136e-15 0 40.80676651999917 2.2447679557970507e-13 0
          40.80676652 4.546244457031959e-15 0 40.80676652 5.514044771728585e-15 0
          40.80676652000003 -3.3368940467568084e-14 0 40.80676651999966 -2.644224122950349e-13 0
          40.80676652 -2.3614976104803826e-15 0 40.80676652 -4.713900010696028e-15 0
          40.80676652 -1.1789088684552552e-15 0 40.80676652 1.6777472687704828e-15 0
          40.80676652 -3.4710979053793616e-15 0 40.80676651999997 8.104731064913135e-15 0
          40.80676651999782 0 0 40.80676652 4.882955645956468e-15 0
          40.80676652 -1.7667436562534421e-15 0 40.80676651999999 1.9893804094096397e-15 0
          40.80676652 4.152229836187341e-15 0 40.80676652 -1.2174516568409517e-15 0
          40.806766519999414 4.4037594317280536e-13 0 40.80676652 -2.3505102535694398e-15 0
          40.80676652 -2.8811379783468983e-15 0 40.80676652 1.5728891174062793e-16 0
          40.80676652000145 -4.169015071695564e-13 0 40.80676652 -9.902714269212346e-16 0
          40.80676652000004 -1.482269853520859e-14 0 40.80676652000508 0 0
          40.80676651999986 -8.978734581937219e-15 0 40.80676652 -6.354892273585497e-15 0
          40.806766520000856 1.0226310074239198e-12 0 40.80676652 -3.493001539398616e-15 0
          40.80676651999998 -8.45681035249933e-14 0 40.80676652 2.6052016932732386e-15 0
          40.80676652 1.7491468269221278e-15 0 40.80676652 0 0
          40.80676652 -6.300231234228556e-15 0 40.80676652 0 0
          40.80676652 -1.67195473842931e-15 0 40.80676652 -2.3375062545030124e-15 0
          40.8067665198567 0 0 40.806766519998476 5.142686533024986e-13 0
          40.80676652 0 0 40.80676651996873 -1.2403526031203262e-12 0
          40.806766520001105 -1.4011497845506742e-12 0 40.80676651996777 9.96781255043388e-12 0
          40.80676652000033 -1.3608973375578507e-14 0 40.80676652 0 0
          40.80676651999999 2.241741271421796e-15 0 40.80676651999991 1.0900502033479643e-13 0
          40.80676652 0 0 40.80676652 3.0439335355470753e-15 0
          40.80676651999957 6.892670359580098e-13 0 40.80676652000381 -6.242651180785908e-13 0
          40.8067665202569 0 0 40.806766519978076 1.2436685078369473e-11 0
          40.80676652012724 2.7540496752623252e-11 0 40.80676652000001 -4.894141659095462e-15 0
          40.80676652008511 -2.0003951297191772e-11 0 40.80676652 0 0
          40.80676652 6.855176931335119e-16 0 40.80676651998953 2.1876926706864428e-13 0
          40.80676651999506 -6.205597085826244e-12 0 40.80676651999986 -6.038737458579105e-13 0
          40.806766519887695 2.94611723422717e-11 0 40.80676652 0 0
          40.806766519999016 1.6432894534865433e-13 0 40.806766516138744 0 0
          40.80676652011979 -9.668424034519241e-11 0 40.806766518046146 -7.724172732724369e-11 0
          40.80676652 -9.525904503088995e-15 0 40.806766517333045 4.90847050731075e-10 0
          40.80676651999997 0 0 40.80676652002691 2.906689943519201e-14 0
          40.806766519995165 6.1746571090717405e-12 0 40.80676651999642 4.519144474261692e-11 0
          40.80676652000264 -2.722328523284953e-13 0 40.806766520214346 -4.848403426931279e-11 0
          40.806766519999336 4.233644539252787e-13 0 40.80676651802702 1.0747738001203661e-9 0
          40.80676652000007 0 0 40.80676652635654 -1.1467753850274025e-9 0
          40.80676651996555 -5.495807746039612e-11 0 40.80676651935043 2.7888294502787535e-11 0
          40.80676651990606 2.0274039247621302e-11 0 40.80676651956762 -3.425596178509811e-10 0
          40.806766520001425 -3.0799967279958756e-12 0 40.80676651661115 1.7026794087032168e-9 0
          40.80676651999514 0 0 40.806766525358725 -5.607995274256602e-9 0
          40.80676652021842 -2.2967916761358806e-11 0 40.806766519951545 2.887797835503501e-11 0
          40.80676652000976 0 0 40.8067665202151 -2.2428593733965642e-10 0
          40.80676651968104 0 0 40.8067665135215 1.9143372109384856e-9 0
          40.80676651983883 3.57857774788299e-10 0 40.80676649051013 1.829816112051873e-9 0
          40.806766521404434 1.591620197062325e-11 0 40.80676651783111 -4.60830874252241e-9 0
          40.806766521297604 1.4358975606530085e-9 0 40.80676646388882 1.0158740928075744e-8 0
          40.806766523998355 8.680292288903552e-10 0 40.80676649665804 -1.0889588823110146e-8 0
          40.8067664008138 -8.248852653975205e-9 0 40.806766481700876 9.838539148426305e-9 0
          40.8067665243709 1.95377191727248e-9 0 40.806766494218664 0 0
          40.806766521867424 0 0 40.80676651505864 7.471620065642498e-9 0
          40.80676651291434 0 0 40.80676651679714 1.8845218888665193e-9 0
          40.806766520546645 0 0
          <InformationKey name="L2_NORM_RANGE" location="vtkDataArray" length="2">
            <Value index="0">
              40.806766401
            </Value>
            <Value index="1">
              40.806766526
            </Value>
          </InformationKey>
        </DataArray>
        <DataArray type="Float64" Name="Energy" format="ascii" RangeMin="254132.23283756876" RangeMax="254132.23295042117">
          254132.23294498984 254132.23294498984 254132.23294498984 254132.23294498984 254132.23294498984 254132.23294498984
          254132.23294498984 254132.23294498984 254132.23294498984 254132.23294498984 254132.23294498984 254132.23294498984
          254132.23294498984 254132.23294498984 254132.23294498984 254132.23294498984 254132.23294498984 254132.23294498984
          254132.23294498984 254132.23294498984 254132.23294498984 254132.23294498984 254132.23294498984 254132.23294498984
          254132.23294498984 254132.23294498984 254132.23294498984 254132.23294498984 254132.23294498984 254132.23294498984
          254132.23294498984 254132.23294498984 254132.23294498984 254132.23294498984 254132.23294498984 254132.23294498984
          254132.23294498984 254132.23294498984 254132.23294498984 254132.23294498984 254132.23294498984 254132.23294498984
          254132.23294498984 254132.23294498984 254132.23294498984 254132.23294498984 254132.23294498984 254132.23294498984
          254132.23294498984 254132.23294498987 254132.23294498984 254132.23294498908 254132.23294498984 254132.23294498984
          254132.23294498987 254132.2329449896 254132.23294498984 254132.23294498984 254132.23294498984 254132.23294498984
          254132.23294498984 254132.2329449898 254132.2329449882 254132.23294498984 254132.23294498984 254132.23294498984
          254132.23294498984 254132.23294498984 254132.23294498926 254132.23294498984 254132.23294498984 254132.23294498984
          254132.23294499126 254132.23294498984 254132.23294498987 254132.23294499447 254132.23294498972 254132.23294498984
          254132.23294499022 254132.23294498984 254132.23294498984 254132.23294498984 254132.23294498984 254132.23294498984
          254132.23294498984 254132.23294498984 254132.23294498984 254132.23294498984 254132.23294487782 254132.2329449884
          254132.23294498984 254132.23294496414 254132.232944991 254132.23294496082 254132.23294499016 254132.23294498984
          254132.23294498984 254132.23294498975 254132.23294498984 254132.23294498984 254132.2329449894 254132.2329449935
          254132.23294520663 254132.23294496955 254132.23294509057 254132.23294498987 254132.23294507025 254132.23294498984
          254132.23294498984 254132.23294498064 254132.23294498626 254132.23294498972 254132.23294489345 254132.23294498984
          254132.23294498897 254132.2329417519 254132.232945108 254132.23294351556 254132.23294498984 254132.23294288982
          254132.2329449898 254132.23294501606 254132.2329449853 254132.23294498323 254132.23294499237 254132.232945201
          254132.23294498923 254132.23294337536 254132.2329449899 254132.23295011758 254132.23294496874 254132.23294443643
          254132.2329449083 254132.232944693 254132.23294499112 254132.23294206237 254132.23294498544 254132.2329490036
          254132.232945189 254132.2329449471 254132.23294499936 254132.2329452042 254132.23294472008 254132.23293918945
          254132.23294480742 254132.2329191344 254132.23294634325 254132.23294404094 254132.23294592625 254132.2329132524
          254132.23295042117 254132.23292932846 254132.23283756876 254132.2329272721 254132.2329488396 254132.23292395525
          254132.2329461203 254132.23294235434 254132.23293745896 254132.23294234142 254132.23294544852
        </DataArray>
      </PointData>
      <CellData>
        <DataArray type="UInt8" Name="vtkGhostType" format="ascii" RangeMin="0" RangeMax="0">
          0 0 0 0 0 0
          0 0 0 0 0 0
          0 0 0 0 0 0
          0 0 0 0 0 0
          0 0 0 0 0 0
          0 0 0 0 0 0
          0 0 0 0 0 0
          0 0 0 0 0 0
          0 0 0 0 0 0
          0 0 0 0 0 0
          0 0 0 0 0 0
          0 0
        </DataArray>
      </CellData>
      <Points>
        <DataArray type="Float32" Name="Points" NumberOfComponents="3" format="ascii" RangeMin="3.25150865708068" RangeMax="7.102112369882704">
          7 1.2000000476837158 0 7 0.9599999785423279 0
          6.75 1.2000000476837158 0 6.75 0.9599999785423279 0
          7 0.7200000286102295 0 6.5 1.2000000476837158 0
          6.533493995666504 0.8399999737739563 0 6.783493995666504 0.6000000238418579 0
          6.320283889770508 0.9693650007247925 0 7 0.47999998927116394 0
          6.25 1.2000000476837158 0 6.566987037658691 0.47999998927116394 0
          6.783493995666504 0.36000001430511475 0 6.353776931762695 0.6093649864196777 0
          6.070283889770508 0.9693650007247925 0 7 0.23999999463558197 0
          6.140567779541016 0.7387298941612244 0 6 1.2000000476837158 0
          6.566987037658691 0.23999999463558197 0 6.350481033325195 0.36000001430511475 0
          6.783493995666504 0.11999999731779099 0 6.137270927429199 0.48936501145362854 0
          7 0 0 5.820283889770508 0.9693650007247925 0
          5.924060821533203 0.6187298893928528 0 5.75 1.2000000476837158 0
          6.350481033325195 0.11999999731779099 0 6.566987037658691 -1.5543120227169823e-15 0
          6.133975028991699 0.23999999463558197 0 6.783493995666504 -0.11999999731779099 0
          5.920764923095703 0.36936500668525696 0 5.603776931762695 0.8493649959564209 0
          7 -0.23999999463558197 0 5.707554817199707 0.4987299144268036 0
          6.350481033325195 -0.11999999731779099 0 6.133975028991699 -6.661338147750939e-16 0
          5.5 1.2000000476837158 0 6.566987037658691 -0.23999999463558197 0
          5.917468070983887 0.11999999731779099 0 6.783493995666504 -0.36000001430511475 0
          5.704257965087891 0.24936500191688538 0 5.492922782897949 0.6268463730812073 0
          5.3891448974609375 0.977481484413147 0 7 -0.47999998927116394 0
          6.133975028991699 -0.23999999463558197 0 6.350481033325195 -0.36000001430511475 0
          5.917468070983887 -0.11999999731779099 0 5.489418983459473 0.3769092857837677 0
          6.566987037658691 -0.47999998927116394 0 5.25 1.2000000476837158 0
          5.700962066650391 -1.7763570511584873e-15 0 5.278289794921875 0.7549629807472229 0
          6.783493995666504 -0.6000000238418579 0 5.486123085021973 0.12754429876804352 0
          5.274786949157715 0.5050258040428162 0 5.1391448974609375 0.977481484413147 0
          6.137270927429199 -0.48936501145362854 0 5.920764923095703 -0.36936500668525696 0
          7 -0.7200000286102295 0 6.353776931762695 -0.6093649864196777 0
          5.704257965087891 -0.24936500191688538 0 5.271283149719238 0.25508859753608704 0
          5 1.2000000476837158 0 5.486123085021973 -0.12754429876804352 0
          6.533493995666504 -0.8399999737739563 0 5.271283149719238 -2.886580075783644e-15 0
          5.924060821533203 -0.6187298893928528 0 6.140567779541016 -0.7387298941612244 0
          5.0141448974609375 0.427000492811203 0 5.707554817199707 -0.4987299144268036 0
          7 -0.9599999785423279 0 6.75 -0.9599999785423279 0
          4.8891448974609375 0.6435068845748901 0 5.489418983459473 -0.3769092857837677 0
          5.010642051696777 0.17706340551376343 0 4.75 1.2000000476837158 0
          5.271283149719238 -0.25508859753608704 0 6.320283889770508 -0.9693650007247925 0
          4.75 0.8660253882408142 0 6.070283889770508 -0.9693650007247925 0