<?xml version="1.0"?>
<VTKFile type="UnstructuredGrid" version="0.1" byte_order="LittleEndian" header_type="UInt32" compressor="vtkZLibDataCompressor">
  <UnstructuredGrid>
    <Piece NumberOfPoints="181" NumberOfCells="76">
      <PointData>
        <DataArray type="Float64" Name="Velocity" NumberOfComponents="3" format="ascii" RangeMin="32.98728518181996" RangeMax="40.07048304813742">
          34.68400000148324 0 0 34.68400000335434 1.6606222682397894e-9 0
          34.683999980051496 0 0 34.68399999604044 6.3505563527443265e-9 0
          34.683999908772435 -7.0111706937957125e-9 0 34.68399999988025 3.0416374830091614e-10 0
          34.68400000106642 1.3528088506510534e-11 0 34.68400000101591 1.220451293761661e-9 0
          34.684000002882186 7.377875862727131e-10 0 34.68399996904893 8.362335978581593e-9 0
          34.68400003124695 0 0 34.68399995146771 -6.118471866345331e-8 0
          34.683999995037496 1.6271044605479738e-9 0 34.68399999824185 -3.916864629489895e-9 0
          34.683999977357594 1.5552651544624343e-9 0 34.683999981610135 -9.255683088034588e-9 0
          34.68400004538373 1.1233323883048279e-7 0 34.68399995521682 8.634493747654328e-9 0
          34.684000213081475 -9.72643910587888e-9 0 34.683999643212736 0 0
          34.683999997525206 1.601762716530787e-9 0 34.68400004835285 -1.2500424474754943e-8 0
          34.684000091208205 -1.246598710119249e-8 0 34.68400000042172 0 0
          34.684000082281244 2.1988571687023895e-8 0 34.68400000949305 -1.8689735846830498e-9 0
          34.683999999155745 2.2459984150884036e-8 0 34.68399998860571 3.128687505467121e-7 0
          34.68399929929891 -2.6799498191888625e-7 0 34.68399902422424 -1.136244487048136e-7 0
          34.683999694098944 -3.1202491483410484e-7 0 34.68399999468808 0 0
          34.68399915091634 3.0176397883180065e-7 0 34.68400077246779 0 0
          34.6839963540847 -4.03999370884742e-7 0 34.68400000522628 -6.283263215328622e-9 0
          34.683999924270914 -6.277065540787502e-8 0 34.683999763811435 -0.0000016095474048549724 0
          34.683999819263185 6.222657952446586e-8 0 34.68400138459119 3.997686460061985e-7 0
          34.68400174742145 -4.804860441091704e-7 0 34.68400209498624 0.0000017042423018443046 0
          34.68400000396183 0 0 34.68400018650065 4.836451515701881e-7 0
          34.68399420191569 0 0 34.68400732437065 9.92473343425367e-7 0
          34.683999983441296 -1.3629616608538672e-8 0 34.68400038870228 -1.9988553859412652e-7 0
          34.68398245676276 -8.886562736724796e-7 0 34.683993806823565 0.0000052127463266805365 0
          34.68399994773646 0 0 34.683995863014594 -0.0000030349499803334896 0
          34.68398061476484 -0.000006598938189965906 0 34.683995054096215 0.000002855883587916484 0
          34.683999972199835 1.4601710952193556e-7 0 34.68400932973858 0 0
          34.68395407819866 -0.000004412509695776393 0 34.68400058756352 0.000016282001108303778 0
          34.68403776692877 -0.000016120846503283503 0 34.684000080773544 0 0
          34.68402844970379 -0.0000016907296418729816 0 34.683999766212466 -2.3182321580234922e-7 0
          34.684012208059315 -0.000004894019177270104 0 34.68399977075215 0.000002850586940195771 0
          34.684065892881506 0.0000074294898831631305 0 34.68386485302038 0 0
          34.683808825471274 0.00003174909020496851 0 34.68386937015766 0.00002995804337692916 0
          34.68399889871645 0 0 34.684022276985026 -0.00005554701014613802 0
          34.68399426553492 -0.000010826910255168693 0 34.68400110006275 -9.145812964188062e-7 0
          34.6836101596044 -0.00002606765732642822 0 34.683984217866346 0.000004920996531171755 0
          34.68403039013465 0 0 34.684277637187144 -0.00005028281369620027 0
          34.684169602011586 0.000043614498552167126 0 34.68400704872456 0.00007238723709606625 0
          34.68400279630873 0 0 34.68360270916748 0.0002733014809434659 0
          34.684026574799574 -0.000006301237934601501 0 34.683990276643385 0.0000055661556540958295 0
          34.68447329823562 -0.0001235905031587006 0 34.68514219134122 0.000016084558269967856 0
          34.68385207244896 0 0 34.68222622335328 0.00010037686162905817 0
          34.683681911779495 -0.00021565266683356868 0 34.684016377031924 -0.000018787641215377133 0
          34.683732277856215 0.00014923457397161878 0 34.68397145331636 0 0
          34.68395598443479 0.0002729249711637124 0 34.684345282526166 -0.0008389478919225865 0
          34.68322833826415 -0.0002222600130085687 0 34.6827381730473 -0.000017016293168675718 0
          34.6823205304174 -0.00017987551579347178 0 34.6887416823037 -0.0005199063025972967 0
          34.68514185203466 0.0014117505983673635 0 34.684778309227234 -0.0004710303221595332 0
          34.684305600321906 0.00026494130334658443 0 34.68432951291959 0.00358184307261049 0
          34.68404119706872 0 0 34.68392655966193 0.000008400700125535403 0
          34.684032766605114 0 0 34.68272436009568 -0.0011119547559012616 0
          34.68217605585048 -0.00019042758845579634 0 34.68427253092746 -0.0029222124574709483 0
          34.68415044736526 0.00024718860379329544 0 34.65701219578513 -0.0032929571397535507 0
          34.67882954121294 -0.0041804653211607 0 34.689114219932655 0.001841113626459208 0
          34.67950703534249 0.0023866446126522313 0 34.67514474461484 -0.0002603913439988935 0
          34.79649326743867 -0.013716623762602291 0 34.685953276255674 0.02331460754793854 0
          34.68306882347117 -0.0028908971671268283 0 34.69433167879261 -0.007840313747884135 0
          34.6824076482065 -0.0007761858975740564 0 34.85109720138744 0.12335892586933501 0
          34.68372549604253 0.00019604902872210193 0 34.68520177804209 0.00677885713342472 0
          34.68160846307627 -0.06890293004774514 0 34.68817186053002 0.0048881476043829905 0
          34.67061269026769 -0.007930503937369094 0 34.684094061371184 0 0
          34.683820247945754 0 0 34.68417238054883 -0.00019215572634877603 0
          34.660107087591555 -0.03512517947011467 0 34.53334953559777 -0.17978491791150775 0
          34.682530753345596 0.0017695606576549963 0 34.73948576201924 0.1704415722355843 0
          34.6859383332411 -0.0016425116844182453 0 34.687959191381324 -0.005800586326878832 0
          34.683959870896025 0.0002444901188943706 0 34.67851086120293 0.004016554666704406 0
          34.7073387676099 -0.06091729212240234 0 34.684152280990794 0 0
          34.68500954189848 0.0012049111819580217 0 34.68273560244837 -0.01639545066175002 0
          34.68350011870419 0.00013694322383448303 0 34.68419500958439 -0.0003001186845730866 0
          34.68341306619227 -0.00015634061223488595 0 34.683999999754136 0 0
          34.68399999992779 1.7232063141293267e-11 0 34.68399999996282 2.4545042077157698e-11 0
          34.68400000016695 -1.9521743399102805e-11 0 34.684000000162634 -1.9063341975089958e-10 0
          34.6839999994997 2.3703853282814028e-11 0 34.68399999997266 -4.6712006884991627e-11 0
          34.68399999739379 1.4472044135862886e-9 0 34.68399999966 -2.911609715445019e-10 0
          34.68400000418111 -4.766555272025531e-9 0 34.68399999792907 4.171989245780787e-10 0
          34.683999998473894 9.135115977705971e-10 0 34.68400000492398 -9.74709854412188e-10 0
          34.68399999702089 0 0 34.68399999847653 -6.565215279470076e-11 0
          34.08187684046772 -0.6863763476949751 0 39.97716096063426 2.733169083428352 0
          38.50372162407938 1.7993521051095516 0 32.97620284553456 -0.8550026648363266 0
          34.1888714893351 -0.06969981931284056 0 37.86578092982474 2.953207803883401 0
          34.85356242048884 -0.07048077358106025 0 34.62401820223909 -0.06637352827202947 0
          34.834377302196586 0.31069306520876905 0 34.45297365685793 -0.2396306612361933 0
          34.6679491958912 0.03157153222651925 0 34.66419653290091 -0.00524152790991743 0
          34.6808187599835 0.00416015799417584 0 34.67669990718542 -0.001211936621419163 0
          34.685762823839625 0.0006090203752827651 0 34.6853386886523 -0.0019805408193219573 0
          34.68381538275871 0 0 34.68641191916544 0 0
          34.68393733152346 0 0 34.68486472903837 -0.00016632402535014858 0
          34.68436860419868 -0.0008071333501174166 0 34.686178596725526 -0.006799766061831389 0
          34.68635816998857 0.0011575739260138358 0 34.70015640030432 -0.02575080628620645 0
          34.682455640354846 0.003116721175906896 0
          <InformationKey name="L2_NORM_RANGE" location="vtkDataArray" length="2">
            <Value index="0">
              32.987285182
            </Value>
            <Value index="1">
              40.070483048
            </Value>
          </InformationKey>
        </DataArray>
        <DataArray type="Float64" Name="Pressure" format="ascii" RangeMin="102737.16078434444" RangeMax="110314.14739153013">
          103064.02800043426 103064.02800150699 103064.0279917929 103064.0279989959 103064.027957911 103064.02799992794
          103064.02800053166 103064.02800036324 103064.02800215673 103064.02799332139 103064.02801430719 103064.02797883691
          103064.02799772793 103064.02799964398 103064.02798988085 103064.02799394797 103064.02802267847 103064.02798786019
          103064.02810020666 103064.0278430383 103064.02799896605 103064.02802554738 103064.02803252621 103064.02800017918
          103064.02802574556 103064.02800480694 103064.02799575438 103064.02800381226 103064.0277188344 103064.02765194055
          103064.02785472794 103064.02799703134 103064.02766008086 103064.02838673146 103064.026502488 103064.02800319289
          103064.02798458282 103064.02790639176 103064.02791753356 103064.02858183459 103064.02878654216 103064.02892925545
          103064.02800045587 103064.02801357799 103064.02508945914 103064.03114829483 103064.02799561285 103064.02819602106
          103064.01991791282 103064.02564624789 103064.02797817669 103064.02691412334 103064.02002042455 103064.02560628142
          103064.02797207124 103064.03337540312 103064.00747870131 103064.02695874123 103064.0469528591 103064.02803498431
          103064.04327530412 103064.02797294992 103064.03431684285 103064.0275819898 103064.06049965056 103063.9831236312
          103063.96364806118 103063.97057236405 103064.02749230091 103064.04065033929 103064.02692838933 103064.028545447
          103063.88814790224 103064.0206474241 103064.01501145857 103064.1672698799 103064.10214469761 103064.02510049005
          103064.02917769349 103063.87768708407 103064.04259455242 103064.0241713827 103064.1852848968 103064.4368618896
          103063.8590522824 103063.35948077647 103063.94167168743 103064.04066682949 103063.91550081587 103064.01318126738
          103064.1305521975 103064.08413294263 103063.97976879695 103063.94162830542 103063.77984416117 103066.0257387527
          103064.3097248736 103064.44207502203 103064.18347226002 103064.05667476082 103063.95963921587 103064.0091289393
          103064.03666528268 103063.54313320863 103063.59434208853 103063.70188595208 103064.02305437432 103051.7594619142
          103062.2756164377 103065.01455560693 103062.32395641871 103060.06472881376 103106.24338620302 103064.76595710524
          103062.9813489467 103071.17700375723 103063.82366749701 103128.80688449026 103064.13845304467 103066.37569106807
          102986.6695834579 103063.29703580964 103064.73111504273 103064.00002637316 103063.92142222443 103064.16496391995
          103050.75137700106 102956.89958692766 103063.23762028087 103121.5833865245 103063.88394389537 103066.55840385587
          103063.983734486 103067.24841721555 103055.77782301034 103064.05281206933 103066.2352750485 103056.30921758749
          103063.94077669397 103063.9942676831 103064.0164948745 103064.02799989459 103064.0279999681 103064.02799998327
          103064.02800007808 103064.0280000843 103064.02799978368 103064.02799999189 103064.02799885497 103064.02799988516
          103064.02800155985 103064.02799918196 103064.02799937 103064.0280019997 103064.02799873512 103064.02799942685
          102918.89713651733 110314.14739153013 105136.75534407521 102737.16078434444 102918.038816765 104846.10493335004
          103121.35055438602 102999.45810780476 103235.83080830249 103015.2550662763 103051.09389509256 103064.14893354558
          103064.52801731761 103065.83450196296 103064.13054472001 103064.25477296063 103063.87063015363 103064.42347048069
          103064.09154676199 103064.32864932242 103064.32994046329 103066.17709857094 103067.13260959591 103030.52753684894
          103063.7936775961
        </DataArray>
        <DataArray type="Float64" Name="Temperature" format="ascii" RangeMin="299.7115023020954" RangeMax="302.9620715783758">
          300.0000000003646 300.00000000126636 299.9999999931029 299.99999999915644 299.99999996463583 299.9999999999394
          300.00000000044656 300.00000000030485 300.00000000181257 299.99999999441235 300.0000000120244 299.99999998221006
          299.9999999980912 299.9999999997017 299.9999999915004 299.9999999949237 300.00000001904345 299.99999998982395
          300.0000000842096 299.9999998681555 299.9999999991311 300.0000000214622 300.0000000272853 300.00000000015046
          300.0000000215951 300.0000000040388 299.9999999964268 300.0000000032271 299.99999976385345 299.9999997079128
          299.999999877917 299.99999999750503 299.9999997145246 300.00000032491346 299.9999987415384 300.000000002684
          299.9999999870712 299.99999992141727 299.9999999307074 300.0000004886677 300.0000006606607 300.0000007811831
          300.0000000003811 300.0000000112749 299.99999755298825 300.0000026458862 299.9999999963188 300.0000001647209
          299.9999932052571 299.99999802204667 299.9999999816796 299.99999908981255 299.99999329161005 299.9999979891775
          299.9999999765104 300.0000045211419 299.9999827507008 299.9999991215024 300.00001593405506 300.00000002937185
          300.00001284521596 299.999999977346 300.00000530646685 299.9999996483867 300.00002732283014 299.99996231118354
          299.9999459328276 299.999951744003 299.99999957336655 300.00001063978317 299.999999101165 300.0000004584133
          299.99988254158734 299.9999938212238 299.99998904985205 300.00011705865177 300.0000623074572 299.99999755698906
          300.00000098951244 299.9998737271708 300.0000122676218 299.99999678327373 300.000132089437 300.0003433441107
          299.9998579050381 299.9994388483399 299.99992757017964 300.0000106516998 299.99990549468214 299.99998754190574
          300.00008634967884 300.00004729200515 299.9999625622273 299.99993315131036 299.99980519775846 300.00167692229144
          300.0002362381859 300.0003479496439 300.0001306628748 300.00002830589 299.99994246239083 299.99998415730005
          300.0000072770503 299.99959276564476 299.9996212878915 299.9996802476931 299.9999957631544 299.98976154596596
          299.99853827324324 300.00082555511347 299.9985802721242 299.99654083689154 300.0351197169377 300.00050486351364
          299.9991198842334 300.0059569993283 299.999829198477 300.05565197566796 300.00009307464387 300.0019760466456
          299.93275522291674 299.99938316304707 300.0006061041406 299.9999758757093 299.9999104146197 300.00011516954527
          299.9888434991291 299.90882840592514 299.9993359332863 300.048368042103 299.99987729151013 300.0021272860386
          299.9999627384127 300.00271552436493 299.99298295122213 300.000020797678 300.00185375229756 299.9935162270692
          299.9999268485058 299.99997194718867 299.99999088611884 299.9999999999115 299.9999999999732 299.99999999998596
          300.00000000006554 300.00000000007077 299.9999999998184 299.9999999999932 299.9999999990385 299.99999999990365
          300.00000000130916 299.999999999313 299.99999999947096 300.00000000167927 299.9999999989372 299.99999999951854
          299.85993087468546 302.9620715783758 301.7667765838917 299.7115023020954 299.8780933709714 301.5135140295214
          300.0521942402836 299.9485311794297 300.13953884901093 299.96211838863894 299.98912026449557 300.00012350688803
          300.00042281299403 300.0015245460922 300.00008524888267 300.0001560172011 299.99986737607213 300.00024193839977
          300.0000549669541 300.0002237270214 300.0002538595708 300.00159195748995 300.0026083130337 299.97196934473794
          299.9998038403496
        </DataArray>
        <DataArray type="Float64" Name="Density" format="ascii" RangeMin="1.1739275570831074" RangeMax="1.2469817559346126">
          1.1765300000035275 1.1765300000122367 1.1765299999333605 1.1765299999918457 1.176529999658222 1.1765299999994152
          1.1765300000043177 1.176530000002951 1.1765300000175118 1.1765299999456735 1.1765300001161672 1.1765299998281802
          1.1765299999815488 1.176529999997106 1.176529999917818 1.1765299999508207 1.1765300001842025 1.1765299999013257
          1.1765300008136612 1.176529998725263 1.1765299999916046 1.176530000207467 1.1765300002642973 1.1765300000014554
          1.176530000209208 1.1765300000390346 1.1765299999655472 1.176530000030863 1.1765299977164587 1.1765299971722163
          1.1765299988204243 1.176529999975896 1.1765299972392123 1.1765300031405077 1.176529987840507 1.1765300000259225
          1.1765299998747085 1.176529999239596 1.1765299993303515 1.1765300047255067 1.1765300063878346 1.1765300075443212
          1.1765300000037096 1.1765300001107823 1.1765299763712567 1.1765300255628903 1.176529999964355 1.1765300015916862
          1.1765299343861257 1.176529980887755 1.1765299998227237 1.1765299911736904 1.1765299352176946 1.1765299805604221
          1.1765299997732992 1.176530043632185 1.1765298333863166 1.176529991558747 1.176530153867185 1.1765300002841748
          1.1765301239996728 1.1765299997800527 1.1765300512993524 1.1765299966071394 1.1765302638467887 1.1765296355193833
          1.1765294774275665 1.1765295336820651 1.176529995877505 1.1765301026835153 1.1765299912920226 1.1765300044287739
          1.1765288641589084 1.1765299402982023 1.1765298946729006 1.1765311307616517 1.176530602045224 1.17652997648149
          1.1765300095633526 1.176528779311192 1.1765301184937247 1.1765299689095727 1.176531277465176 1.1765333208538797
          1.1765286286357222 1.176524569197732 1.1765292985696656 1.1765301028250252 1.1765290863902558 1.1765298796941193
          1.1765308320436543 1.1765304553187352 1.176529596237649 1.1765292761865527 1.1765279311383836 1.176546228648244
          1.176532289564524 1.1765333623025982 1.1765312623676318 1.176530216328336 1.1765294452747233 1.176529846708297
          1.1765300703798571 1.1765260620637403 1.1765265347833698 1.1765275312282033 1.1765299601590051 1.17643009761363
          1.1765157281031666 1.1765380243937 1.1765161152234527 1.1764983228435577 1.1768741391792734 1.1765364442001243
          1.1765215035123655 1.1765882465139512 1.1765283372799535 1.1770511342458223 1.1765308958621914 1.1765490504069995
          1.1759104925163029 1.176524074738345 1.1765356494169994 1.1765297752761814 1.1765291346914264 1.1765311118465573
          1.1764221895606657 1.1756643635572082 1.1765235817009614 1.1769972614500022 1.1765288367575093 1.1765505430236194
          1.1765296408171195 1.176556112864298 1.1764633375661286 1.1765302016791463 1.1765479271090065 1.1764673125352358
          1.176529291183078 1.176529724944444 1.1765299044054633 1.1765299999991439 1.176529999999741 1.176529999999864
          1.1765300000006342 1.1765300000006849 1.1765299999982428 1.1765299999999341 1.1765299999906997 1.1765299999990668
          1.1765300000126724 1.1765299999933558 1.176529999994883 1.1765300000162418 1.1765299999897287 1.1765299999953454
          1.1754220561139923 1.2469817559346126 1.1931644211841506 1.1739275570831074 1.1753410630355643 1.1908653724928835
          1.1769795952065307 1.1759946576341116 1.1779433230878467 1.1761217426394126 1.1764250143772574 1.1765308961543612
          1.1765340497806327 1.1765446431800668 1.1765308362753626 1.1765319768683404 1.1765287236601019 1.1765335656743772
          1.1765305098519956 1.1765325546628105 1.1765324512288644 1.1765482897058357 1.1765552113345032 1.17625747884786
          1.1765280943778456
        </DataArray>
        <DataArray type="Float64" Name="Momentum" NumberOfComponents="3" format="ascii" RangeMin="38.7246831082977" RangeMax="49.96716131251453">
          40.806766521867424 0 0 40.8067665243709 1.95377191727248e-9 0
          40.806766494218664 0 0 40.80676651505864 7.471620065642498e-9 0
          40.8067664008138 -8.248852653975205e-9 0 40.80676651983883 3.57857774788299e-10 0
          40.806766521404434 1.591620197062325e-11 0 40.806766521297604 1.4358975606530085e-9 0
          40.806766523998355 8.680292288903552e-10 0 40.806766481700876 9.838539148426305e-9 0
          40.80676656079212 0 0 40.806766456940906 -7.198565703859997e-8 0
          40.8067665135215 1.9143372109384856e-9 0 40.80676651783111 -4.60830874252241e-9 0
          40.80676649051013 1.829816112051873e-9 0 40.80676649665804 -1.0889588823110146e-8 0
          40.8067665797842 1.3216342550191998e-7 0 40.80676646388882 1.0158740928075744e-8 0
          40.80676679891777 -1.1443447409153705e-8 0 40.80676605601611 0 0
          40.80676651679714 1.8845218888665193e-9 0 40.806766584084365 -1.4707124409876858e-8 0
          40.80676663647608 -1.4666607807460728e-8 0 40.806766520546645 0 0
          40.806766624062526 2.587021425153441e-8 0 40.80676653252273 -2.198903491660103e-9 0
          40.806766517811745 2.6424845152265786e-8 0 40.806766507664726 3.6809947109037927e-7 0
          40.806765616401805 -3.153041354650496e-7 0 40.8067652738917 -1.3368257231336897e-7 0
          40.80676611918582 -3.6710667268171235e-7 0 40.80676651291434 0 0
          40.806765425272445 3.550343731818721e-7 0 40.8067675377569 0 0
          40.80676180873146 -4.7531737491459807e-7 0 40.80676652704797 -7.392447670893461e-9 0
          40.80676642655685 -7.385155919916257e-8 0 40.80676621574321 -0.0000018936808070101141 0
          40.806766284131626 7.321143756624988e-8 0 40.80676831291256 4.7033980697478214e-7 0
          40.80676879744942 -5.653062485450275e-7 0 40.806769246481416 0.000002005092208246231 0
          40.80676652478987 0 0 40.80676674326598 5.690230302304528e-7 0
          40.80675887884067 0 0 40.80677602396527 0.0000011676746881107342 0
          40.80676649928188 -1.6035652827958176e-8 0 40.80676703252594 -2.3517133304030273e-7 0
          40.80674360410463 -0.0000010455307073557014 0 40.80675857065314 0.000006132952336102166 0
          40.80676645236173 0 0 40.80676134658088 -0.000003570709673574352 0
          40.80674146578105 -0.000007763848321146158 0 40.8067600267536 0.00000336003266217421 0
          40.806766479429385 1.7179350983274064e-7 0 40.806779010056445 0 0
          40.80670671280172 -0.000005191449297187306 0 40.80676691850968 0.000019156262626512156 0
          40.80681629065996 -0.000018966662016977412 0 40.806766624888816 0 0
          40.80680429273818 -0.0000019891943552027415 0 40.8067662373133 -2.72746968036949e-7 0
          40.80678266241539 -0.00000575796063369361 0 40.806766132605055 0.000003353801043076886 0
          40.80685319623129 0.000008741019692484966 0 40.806594873927615 0 0
          40.80652347262934 0.000037353740507652274 0 40.80659665636125 0.00003524652280428555 0
          40.80676508132226 0 0 40.80679629101852 -0.00006535272955099803 0
          40.80675947120236 -0.000012738184628233131 0 40.806767967864424 -0.0000010760323367260918 0
          40.80626846600974 -0.00003066935126554624 0 40.806745881150086 0.000005789699755027165 0
          40.8067986217368 0 0 40.80713238813086 -0.000059159295655867966 0
          40.806986943293346 0.000051313792239481735 0 40.806773997319745 0.00008516575435819486 0
          40.80677014163646 0 0 40.80625675753117 0.000321547057758357 0
          40.80680189588844 -0.000007413596213853857 0 40.80675400183917 0.000006548748938659208 0
          40.80736767777994 -0.0001454080925638699 0 40.8082255266677 0.000018924018755833018 0
          40.80654491460262 0 0 40.804491266249 0.00011809584388554802 0
          40.806367951479324 -0.00025372168084437637 0 40.80678935445423 -0.00002210422545096734 0
          40.8064198494704 0.0001755788169726677 0 40.80672876128457 0 0
          40.80674359293254 0.0003211046434087329 0 40.807188547682735 -0.0009870477452723738 0
          40.8058446330361 -0.00026149548336474595 0 40.805256838903055 -0.000020020167085120223 0
          40.80471882073027 -0.000211628568458943 0 40.81290820286756 -0.0006116937995713022 0
          40.80818935704463 0.001660970163791241 0 40.80779884487534 -0.0005541828886768316 0
          40.80716985229145 0.00031171172607968265 0 40.807161705038574 0.004214146605072571 0
          40.80679574947291 0 0 40.80667479848088 0.00000988367443093854 0
          40.806807511951185 0 0 40.80512911302554 -0.0013082437501535588 0
          40.80450041373653 -0.0002240431107730517 0 40.807001533258266 -0.003438063408312596 0
          40.80694214398759 0.000290824798172686 0 40.77155224048426 -0.0038739338893577693 0
          40.80018838744575 -0.004918383201135419 0 40.813061912286976 0.002166140188758637 0
          40.80099889508554 0.0028079258480965853 0 40.79524963639696 -0.0003063499794976781 0
          40.951093060574266 -0.016142739783058538 0 40.8092881313375 0.027430485462372988 0
          40.805376278613146 -0.003401202681567694 0 40.820942873924025 -0.009224821004742218 0
          40.804835403209935 -0.0009132047034929529 0 41.02152349060449 0.1451997636138471 0
          40.80647462969724 0.00023065773939532708 0 40.8088412151306 0.00797565792317557 0
          40.7824672890736 -0.08102367840826036 0 40.81146930257477 0.005751023337431155 0
          40.79121181722935 -0.009330520600156617 0 40.80686939168298 0 0
          40.80652502410859 0 0 40.80700789436477 -0.00022607719036880827 0
          40.774919070391604 -0.04132204054094364 0 40.59962840326717 -0.21136672109361768 0
          40.8048153043799 0.002081929842981365 0 40.88827960607799 0.20060926375851543 0
          40.809006679050846 -0.0019324623614292154 0 40.812137223000846 -0.0068246829927446715 0
          40.806706849020685 0.00028764987176612875 0 40.80121393877926 0.004725701945764693 0
          40.831911604580625 -0.0716669608058123 0 40.80695267822432 0 0
          40.808576078276765 0.0014176357534831734 0 40.80310474558257 -0.019288711777833097 0
          40.80615381040724 0.00016111771407030992 0 40.80698641454578 -0.0003530985534114619 0
          40.806072659222394 -0.00018393940556740197 0 40.80676651968104 0 0
          40.80676651990606 2.0274039247621302e-11 0 40.806766519951545 2.887797835503501e-11 0
          40.80676652021842 -2.2967916761358806e-11 0 40.8067665202151 -2.2428593733965642e-10 0
          40.80676651935043 2.7888294502787535e-11 0 40.80676651996555 -5.495807746039612e-11 0
          40.80676651661115 1.7026794087032168e-9 0 40.80676651956762 -3.425596178509811e-10 0
          40.806766525358725 -5.607995274256602e-9 0 40.806766517333045 4.90847050731075e-10 0
          40.80676651802702 1.0747738001203661e-9 0 40.80676652635654 -1.1467753850274025e-9 0
          40.806766516138744 0 0 40.806766518046146 -7.724172732724369e-11 0
          40.060589752046425 -0.8067818978756401 0 49.85079037197235 3.4082119829196817 0
          45.941270725030336 2.146922912999521 0 38.7116732483354 -1.0037111896308557 0
          40.18358456026141 -0.08192105972454077 0 45.09304731172966 3.5168729114204966 0
          41.021931789172505 -0.08295443235927943 0 40.71766043165941 -0.07805491465623332 0
          41.032922157045306 0.36597882169236645 0 40.52089141641352 -0.2818348308829464 0
          40.78424263120633 0.037141540253494955 0 40.78349821132481 -0.006166819529073249 0
          40.80316414539153 0.0048945675326149745 0 40.798685518961726 -0.0014258975398044648 0
          40.80886954198092 0.0007165312514401668 0 40.80841009570803 -0.002330169605425305 0
          40.80650504393971 0 0 40.809727895705926 0 0
          40.80671047233196 0 0 40.80787250778952 -0.00019568563044701235 0
          40.807285213223345 -0.0009496185788822094 0 40.80996410440858 -0.008000253130447506 0
          40.81041546711518 0.001361949635156519 0 40.81631848304839 -0.03028957848051282 0
          40.80488344289085 0.0036669100257968185 0
          <InformationKey name="L2_NORM_RANGE" location="vtkDataArray" length="2">
            <Value index="0">
              38.724683108
            </Value>
            <Value index="1">
              49.967161313
            </Value>
          </InformationKey>
        </DataArray>
        <DataArray type="Float64" Name="Energy" format="ascii" RangeMin="253259.53794276915" RangeMax="272253.01451201295">
          254132.2329461203 254132.2329488396 254132.23292395525 254132.23294235434 254132.23283756876 254132.23294480742
          254132.23294634325 254132.23294592625 254132.23295042117 254132.2329272721 254132.2329815148 254132.23289086806
          254132.23293918945 254132.23294404094 254132.2329191344 254132.23292932846 254132.23300271676 254132.2329132524
          254132.23320057298 254132.23254370998 254132.23294234142 254132.2330099063 254132.23302884956 254132.23294544852
          254132.23301177917 254132.2329572205 254132.23293449506 254132.23295391744 254132.23222366374 254132.2320476259
          254132.23257458748 254132.23293745896 254132.2320728523 254132.2339293363 254132.22910665965 254132.23295306967
          254132.23290391485 254132.2327047207 254132.2327344347 254132.23443500831 254132.23495417042 254132.23531996735
          254132.2329462747 254132.23298605395 254132.22553743547 254132.2410006047 254132.2329335051 254132.2334438059
          254132.21231656382 254132.2268931198 254132.23288908906 254132.23010079734 254132.2124939646 254132.22684554633