<?xml version="1.0"?>
<VTKFile type="UnstructuredGrid" version="0.1" byte_order="LittleEndian" header_type="UInt32" compressor="vtkZLibDataCompressor">
  <UnstructuredGrid>
    <Piece NumberOfPoints="161" NumberOfCells="68">
      <PointData>
        <DataArray type="Float64" Name="Velocity" NumberOfComponents="3" format="ascii" RangeMin="34.68399999991531" RangeMax="34.684000005119046">
          34.684 0 0 34.684 -1.6988608836812821e-15 0
          34.684 0 0 34.684 -6.67416987038404e-16 0
          34.684 -1.088692005403387e-15 0 34.684 0 0
          34.684 -2.788202637250139e-15 0 34.684 -3.9200173781879485e-15 0
          34.684 2.2259165293512096e-15 0 34.684 -4.191843885693328e-16 0
          34.684 0 0 34.684 3.4364701476311234e-16 0
          34.684 -1.6997156287600804e-15 0 34.684 4.725697667860828e-16 0
          34.684 3.253423552436391e-15 0 34.684 1.264533277400871e-16 0
          34.684 7.227682523205001e-16 0 34.684 0 0
          34.684 -5.069415627580079e-16 0 34.684 -2.0786661845110086e-16 0
          34.684 -2.3659183626290555e-16 0 34.684 4.977475936725111e-16 0
          34.684 3.627677127157677e-16 0 34.684 -2.325574530617079e-15 0
          34.684 -1.4981379276849935e-15 0 34.684 0 0
          34.684 -6.668975860979317e-16 0 34.684 -6.949233220103381e-16 0
          34.684 -2.96856082604291e-15 0 34.684 1.003048004439317e-15 0
          34.684 -9.213432473253335e-17 0 34.684 1.338317205048679e-15 0
          34.684 3.5345418977027354e-16 0 34.684 -2.4607423764587002e-15 0
          34.684 -1.5962351007644445e-15 0 34.684 -2.4836910759846863e-15 0
          34.684 0 0 34.684 -5.698968006100495e-16 0
          34.684 8.558344811495881e-16 0 34.684 -1.2339902582467577e-15 0
          34.684 -1.273310600181318e-15 0 34.684 8.180960330808758e-16 0
          34.684 -2.5416620203488323e-15 0 34.684 -1.326266423208859e-15 0
          34.684 -4.781557852958291e-15 0 34.684 -1.7198005443136253e-15 0
          34.684 9.200085450543026e-16 0 34.684 -1.1973395681852183e-15 0
          34.684 1.97328435534198e-15 0 34.684 0 0
          34.684 -1.808325349879571e-15 0 34.684 5.874073523316267e-16 0
          34.684 2.759254072082484e-15 0 34.684 3.1902032273957677e-15 0
          34.684 -1.6554845367783386e-15 0 34.684 -6.935231499795818e-16 0
          34.684 -1.2508478829917991e-15 0 34.684 -2.9057871308874984e-15 0
          34.684 -6.92833647557381e-16 0 34.684 1.0440832271215233e-15 0
          34.684 -2.024561509188567e-15 0 34.684 -2.580257767039101e-15 0
          34.684 0 0 34.684 2.5960518558293e-15 0
          34.684 -1.043624748313881e-15 0 34.684 -6.467287239946771e-16 0
          34.684 2.579810725461033e-15 0 34.684 -7.115524812686525e-16 0
          34.684 -2.0326584455988283e-15 0 34.684 -1.411739553920446e-15 0
          34.684 -1.6914855636854952e-15 0 34.684 -1.496024009147376e-17 0
          34.684 -1.4626640645351216e-15 0 34.684 -6.659315631941697e-16 0
          34.684 -5.064309677804115e-16 0 34.684 0 0
          34.684 -1.891311731349395e-15 0 34.684 -3.737243973098983e-15 0
          34.684 -1.0084699466942746e-15 0 34.684 -2.1530774247556337e-15 0
          34.684 -4.643492454725832e-16 0 34.684 1.6665623331689544e-15 0
          34.684 1.0215669710540701e-15 0 34.684 0 0
          34.684 -2.3772065336360683e-16 0 34.684 0 0
          34.684 -1.0376403625994698e-15 0 34.684 -1.3641584639151927e-15 0
          34.684 0 0 34.684 1.3624023605275911e-15 0
          34.684 0 0 34.684 6.462855947434365e-16 0
          34.684 3.2999177932109924e-16 0 34.684 1.6301740651218625e-15 0
          34.684 2.671645307209086e-15 0 34.684 0 0
          34.684 -6.784836331338926e-16 0 34.684 1.742112674972612e-15 0
          34.684 0 0 34.684 1.7824166557672947e-15 0
          34.684 7.787270807387008e-17 0 34.684 -1.7319435851666942e-15 0
          34.684 0 0 34.684 9.82653112818204e-16 0
          34.684 4.07285692164835e-15 0 34.684 -7.398460860940567e-18 0
          34.684 3.7392932773724095e-15 0 34.684 0 0
          34.684 -5.792071844684307e-16 0 34.684 4.047658143272699e-15 0
          34.684 -2.5591431612039294e-15 0 34.684 2.213265591229196e-16 0
          34.684 4.137730271663795e-16 0 34.684 0 0
          34.684 6.457121489555251e-16 0 34.684000000052094 0 0
          34.684 -9.949429943036313e-16 0 34.68400000002085 -5.4715396463879073e-14 0
          34.684 4.072308280538519e-15 0 34.68400000003158 -6.617643169381966e-12 0
          34.684 0 0 34.684 1.8989119812724732e-15 0
          34.684 -7.814761178884834e-16 0 34.684 -1.5204583276931632e-15 0
          34.684 -5.292151727899104e-15 0 34.684 -1.2495023623266362e-15 0
          34.684 6.630215182656847e-16 0 34.68400000002079 -1.1103059214653035e-11 0
          34.684 0 0 34.68399999991531 1.75842194320186e-11 0
          34.684 1.4343043971419396e-15 0 34.6840000000042 -7.997819125788088e-13 0
          34.684 -1.1084995867882538e-15 0 34.684000000003614 1.7867268334320134e-12 0
          34.684 -1.846574929320738e-15 0 34.684000000028135 -2.4193637673131376e-11 0
          34.684 0 0 34.68399999992959 7.904162339255648e-11 0
          34.684 -3.555573422758005e-15 0 34.684 -9.762656447531636e-16 0
          34.684 0 0 34.684 -7.150661814845292e-15 0
          34.68399999999998 0 0 34.684000000049764 -1.937546034825827e-11 0
          34.68400000000234 -1.2723057825741347e-12 0 34.684000001020394 -2.2765559417564404e-10 0
          34.68399999998915 1.0483557719527484e-12 0 34.68400000000809 3.918709499983342e-11 0
          34.683999999988636 -1.2341795278487109e-11 0 34.68400000211644 -2.5684579344243977e-10 0
          34.68399999998738 -1.425927632010729e-11 0 34.684000000759596 3.747977494212209e-10 0
          34.684000005119046 2.2687207496851472e-10 0 34.68400000110696 -4.0715395108976807e-10 0
          34.683999999931565 -2.7953313329427287e-11 0 34.68400000102368 0 0
          34.68399999996872 0 0 34.68400000042419 -1.0008588407910265e-10 0
          34.68400000004879 0 0 34.684000000020745 -1.171124993903421e-11 0
          34.68400000000002 0 0
          <InformationKey name="L2_NORM_RANGE" location="vtkDataArray" length="2">
            <Value index="0">
              34.684
            </Value>
            <Value index="1">
              34.684000005
            </Value>
          </InformationKey>
        </DataArray>
        <DataArray type="Float64" Name="Pressure" format="ascii" RangeMin="103064.02799996936" RangeMax="103064.02800236647">
          103064.028 103064.028 103064.028 103064.028 103064.028 103064.028
          103064.028 103064.028 103064.028 103064.028 103064.028 103064.028
          103064.028 103064.028 103064.028 103064.028 103064.028 103064.028
          103064.028 103064.028 103064.028 103064.028 103064.028 103064.028
          103064.028 103064.028 103064.028 103064.028 103064.028 103064.028
          103064.028 103064.028 103064.028 103064.028 103064.028 103064.028
          103064.028 103064.028 103064.028 103064.028 103064.028 103064.028
          103064.028 103064.028 103064.028 103064.028 103064.028 103064.028
          103064.028 103064.028 103064.028 103064.028 103064.028 103064.028
          103064.028 103064.028 103064.028 103064.028 103064.028 103064.028
          103064.028 103064.028 103064.028 103064.028 103064.028 103064.028
          103064.028 103064.028 103064.028 103064.028 103064.028 103064.028
          103064.028 103064.028 103064.028 103064.028 103064.028 103064.028
          103064.028 103064.028 103064.028 103064.028 103064.028 103064.028
          103064.028 103064.028 103064.028 103064.028 103064.028 103064.028
          103064.028 103064.028 103064.028 103064.028 103064.028 103064.028
          103064.028 103064.028 103064.028 103064.028 103064.028 103064.028
          103064.028 103064.028 103064.028 103064.028 103064.028 103064.028
          103064.028 103064.028 103064.028 103064.028 103064.028 103064.028
          103064.028 103064.02800002061 103064.028 103064.02800000773 103064.028 103064.02800001157
          103064.028 103064.028 103064.028 103064.028 103064.028 103064.028
          103064.028 103064.02800000786 103064.028 103064.02799996936 103064.028 103064.0280000023
          103064.028 103064.02800000143 103064.028 103064.02800001256 103064.028 103064.02799998113
          103064.028 103064.028 103064.028 103064.028 103064.028 103064.02800002387
          103064.02800000121 103064.02800044895 103064.02799999376 103064.02799999766 103064.02799999698 103064.02800023364
          103064.02799997549 103064.02800022288 103064.02800236647 103064.02800028086 103064.02799997419 103064.02800037788
          103064.02799998257 103064.02800016681 103064.02800002927 103064.02800000983 103064.02800000002
        </DataArray>
        <DataArray type="Float64" Name="Temperature" format="ascii" RangeMin="299.99999999997425" RangeMax="300.00000000198804">
          299.99999999999994 299.99999999999994 299.99999999999994 299.99999999999994 299.99999999999994 299.99999999999994
          299.99999999999994 299.99999999999994 299.99999999999994 299.99999999999994 299.99999999999994 299.99999999999994
          299.99999999999994 299.99999999999994 299.99999999999994 299.99999999999994 299.99999999999994 299.99999999999994
          299.99999999999994 299.99999999999994 299.99999999999994 299.99999999999994 299.99999999999994 299.99999999999994
          299.99999999999994 299.99999999999994 299.99999999999994 299.99999999999994 299.99999999999994 299.99999999999994
          299.99999999999994 299.99999999999994 299.99999999999994 299.99999999999994 299.99999999999994 299.99999999999994
          299.99999999999994 299.99999999999994 299.99999999999994 299.99999999999994 299.99999999999994 299.99999999999994
          299.99999999999994 299.99999999999994 299.99999999999994 299.99999999999994 299.99999999999994 299.99999999999994
          299.99999999999994 299.99999999999994 299.99999999999994 299.99999999999994 299.99999999999994 299.99999999999994
          299.99999999999994 299.99999999999994 299.99999999999994 299.99999999999994 299.99999999999994 299.99999999999994
          299.99999999999994 299.99999999999994 299.99999999999994 299.99999999999994 299.99999999999994 299.99999999999994
          299.99999999999994 299.99999999999994 299.99999999999994 299.99999999999994 299.99999999999994 299.99999999999994
          299.99999999999994 299.99999999999994 299.99999999999994 299.99999999999994 299.99999999999994 299.99999999999994
          299.99999999999994 299.99999999999994 299.99999999999994 299.99999999999994 299.99999999999994 299.99999999999994
          299.99999999999994 299.99999999999994 299.99999999999994 299.99999999999994 299.99999999999994 299.99999999999994
          299.99999999999994 299.99999999999994 299.99999999999994 299.99999999999994 299.99999999999994 299.99999999999994
          299.99999999999994 299.99999999999994 299.99999999999994 299.99999999999994 299.99999999999994 299.99999999999994
          299.99999999999994 299.99999999999994 299.99999999999994 299.99999999999994 299.99999999999994 299.99999999999994
          299.99999999999994 299.99999999999994 299.99999999999994 299.99999999999994 299.99999999999994 299.99999999999994
          299.99999999999994 300.0000000000173 299.99999999999994 300.0000000000065 299.99999999999994 300.0000000000097
          299.99999999999994 299.99999999999994 299.99999999999994 299.99999999999994 299.99999999999994 299.99999999999994
          299.99999999999994 300.0000000000066 299.99999999999994 299.99999999997425 299.99999999999994 300.00000000000193
          299.99999999999994 300.0000000000012 299.99999999999994 300.0000000000105 299.99999999999994 299.9999999999842
          299.99999999999994 299.99999999999994 299.99999999999994 299.99999999999994 299.99999999999994 300.00000000002
          300.00000000000097 300.000000000377 299.99999999999477 299.99999999999795 299.9999999999974 300.00000000019435
          299.99999999997937 300.00000000018684 300.00000000198804 300.00000000023516 299.9999999999783 300.00000000031736
          299.99999999998533 300.0000000001401 300.00000000002456 300.0000000000083 300
        </DataArray>
        <DataArray type="Float64" Name="Density" format="ascii" RangeMin="1.1765299999997512" RangeMax="1.1765300000192178">
          1.17653 1.17653 1.17653 1.17653 1.17653 1.17653
          1.17653 1.17653 1.17653 1.17653 1.17653 1.17653
          1.17653 1.17653 1.17653 1.17653 1.17653 1.17653
          1.17653 1.17653 1.17653 1.17653 1.17653 1.17653
          1.17653 1.17653 1.17653 1.17653 1.17653 1.17653
          1.17653 1.17653 1.17653 1.17653 1.17653 1.17653
          1.17653 1.17653 1.17653 1.17653 1.17653 1.17653
          1.17653 1.17653 1.17653 1.17653 1.17653 1.17653
          1.17653 1.17653 1.17653 1.17653 1.17653 1.17653
          1.17653 1.17653 1.17653 1.17653 1.17653 1.17653
          1.17653 1.17653 1.17653 1.17653 1.17653 1.17653
          1.17653 1.17653 1.17653 1.17653 1.17653 1.17653
          1.17653 1.17653 1.17653 1.17653 1.17653 1.17653
          1.17653 1.17653 1.17653 1.17653 1.17653 1.17653
          1.17653 1.17653 1.17653 1.17653 1.17653 1.17653
          1.17653 1.17653 1.17653 1.17653 1.17653 1.17653
          1.17653 1.17653 1.17653 1.17653 1.17653 1.17653
          1.17653 1.17653 1.17653 1.17653 1.17653 1.17653
          1.17653 1.17653 1.17653 1.17653 1.17653 1.17653
          1.17653 1.1765300000001675 1.17653 1.176530000000063 1.17653 1.176530000000094
          1.17653 1.17653 1.17653 1.17653 1.17653 1.17653
          1.17653 1.176530000000064 1.17653 1.1765299999997512 1.17653 1.1765300000000187
          1.17653 1.1765300000000116 1.17653 1.1765300000001022 1.17653 1.1765299999998466
          1.17653 1.17653 1.17653 1.17653 1.17653 1.176530000000194
          1.17653000000001 1.1765300000036467 1.1765299999999492 1.1765299999999812 1.1765299999999757 1.176530000001905
          1.176529999999801 1.1765300000018115 1.1765300000192178 1.176530000002284 1.1765299999997905 1.176530000003069
          1.1765299999998586 1.1765300000013548 1.1765300000002377 1.1765300000000798 1.17653
        </DataArray>
        <DataArray type="Float64" Name="Momentum" NumberOfComponents="3" format="ascii" RangeMin="40.806766519891724" RangeMax="40.80676652668926">
          40.80676652 0 0 40.80676652 -1.998760795477539e-15 0
          40.80676652 0 0 40.80676652 -7.852361077602936e-16 0
          40.80676652 -1.280878805117247e-15 0 40.80676652 0 0
          40.80676652 -3.2804040488039065e-15 0 40.80676652 -4.612018045959468e-15 0
          40.80676652 2.6188575742775787e-15 0 40.80676652 -4.931830086834771e-16 0
          40.80676652 0 0 40.80676652 4.043110222792446e-16 0
          40.80676652 -1.9997664287050974e-15 0 40.80676652 5.5599250771683e-16 0
          40.80676652 3.827750412147988e-15 0 40.80676652 1.487761336860447e-16 0
          40.80676652 8.50358531902638e-16 0 40.80676652 0 0
          40.80676652 -5.964319568316791e-16 0 40.80676652 -2.445613126062737e-16 0
          40.80676652 -2.7835739311839627e-16 0 40.80676652 5.856149763835195e-16 0
          40.80676652 4.268070970414822e-16 0 40.80676652 -2.736108202506912e-15 0
          40.80676652 -1.7626042160592255e-15 0 40.80676652 0 0
          40.80676652 -7.846250169717995e-16 0 40.80676652 -8.175981360448231e-16 0
          40.80676652 -3.492600868664265e-15 0 40.80676652 1.1801160686629897e-15 0
          40.80676652 -1.0839879707756747e-16 0 40.80676652 1.5745703412559224e-15 0
          40.80676652 4.1584945789041997e-16 0 40.80676652 -2.8951372281749546e-15 0
          40.80676652 -1.878018483102392e-15 0 40.80676652 -2.9221370616282633e-15 0
          40.80676652 0 0 40.80676652 -6.705006828217416e-16 0
          40.80676652 1.006914942106925e-15 0 40.80676652 -1.451826558535058e-15 0
          40.80676652 -1.498088120431326e-15 0 40.80676652 9.625145258006428e-16 0
          40.80676652 -2.9903416168010117e-15 0 40.80676652 -1.560392234897919e-15 0
          40.80676652 -5.625646260741018e-15 0 40.80676652 -2.0233969344013097e-15 0
          40.80676652 1.0824176535127388e-15 0 40.80676652 -1.408705922156955e-15 0
          40.80676652 2.3216282425905e-15 0 40.80676652 0 0
          40.80676652 -2.1275490238938117e-15 0 40.80676652 6.911023722387288e-16 0
          40.80676652 3.246345193427205e-15 0 40.80676652 3.753369803127943e-15 0
          40.80676652 -1.9477272220558188e-15 0 40.80676652 -8.159507916454775e-16 0
          40.80676652 -1.4716600597763415e-15 0 40.80676652 -3.4187457331030685e-15 0
          40.80676652 -8.151395713606856e-16 0 40.80676652 1.2283952392052858e-15 0
          40.80676652 -2.381957352405625e-15 0 40.80676652 -3.035750670654514e-15 0
          40.80676652 0 0 40.80676652 3.0543328899388467e-15 0
          40.80676652 -1.2278558251337304e-15 0 40.80676652 -7.608957456414575e-16 0
          40.80676652 3.0352247128266697e-15 0 40.80676652 -8.371628407870077e-16 0
          40.80676652 -2.3914836410003897e-15 0 40.80676652 -1.6609539373740224e-15 0
          40.80676652 -1.9900835102428957e-15 0 40.80676652 -1.7601171274821623e-17 0
          40.80676652 -1.7208681518475066e-15 0 40.80676652 -7.834884620448364e-16 0
          40.80676652 -5.958312265226876e-16 0 40.80676652 0 0
          40.80676652 -2.225184991284504e-15 0 40.80676652 -4.396979651670147e-15 0
          40.80676652 -1.186495146384215e-15 0 40.80676652 -2.5331601825477457e-15 0
          40.80676652 -5.463208177758584e-16 0 40.80676652 1.96076058184327e-15 0
          40.80676652 1.2019041884542453e-15 0 40.80676652 0 0
          40.80676652 -2.7968548030188434e-16 0 40.80676652 0 0
          40.80676652 -1.2208150158091542e-15 0 40.80676652 -1.6049733575501419e-15 0
          40.80676652 0 0 40.80676652 1.602907249231527e-15 0
          40.80676652 0 0 40.80676652 7.603743907834954e-16 0
          40.80676652 3.882452281246529e-16 0 40.80676652 1.917948692837825e-15 0
          40.80676652 3.143270853290706e-15 0 40.80676652 0 0
          40.80676652 -7.982563488910187e-16 0 40.80676652 2.0496478254855274e-15 0
          40.80676652 0 0 40.80676652 2.0970666680098954e-15 0
          40.80676652 9.161957723015037e-17 0 40.80676652 -2.037683586256171e-15 0
          40.80676652 0 0 40.80676652 1.1561208668240016e-15 0
          40.80676652 4.791838354026934e-15 0 40.80676652 -8.704511156722405e-18 0
          40.80676652 4.399390719626962e-15 0 40.80676652 0 0
          40.80676652 -6.814546287426429e-16 0 40.80676652 4.762191235304629e-15 0
          40.80676652 -3.0109087034512594e-15 0 40.80676652 2.603973366048886e-16 0
          40.80676652 4.868163796520605e-16 0 40.80676652 0 0
          40.80676652 7.596997146106439e-16 0 40.8067665200671 0 0
          40.80676652 -1.1705802810880513e-15 0 40.80676652002671 -6.437430540165109e-14 0
          40.80676652 4.791192861301984e-15 0 40.80676652004042 -7.785855718073586e-12 0
          40.80676652 0 0 40.80676652 2.234126913326503e-15 0
          40.80676652 -9.194300969793374e-16 0 40.80676652 -1.7888648362808375e-15 0
          40.80676652 -6.226375272425134e-15 0 40.80676652 -1.4700770143481575e-15 0
          40.80676652 7.800647068851261e-16 0 40.80676652002668 -1.3063082257816447e-11 0
          40.80676652 0 0 40.806766519891724 2.0688361688348466e-11 0
          40.80676652 1.6875021523694064e-15 0 40.80676652000559 -9.409674136063608e-13 0
          40.80676652 -1.3041830188439844e-15 0 40.80676652000466 2.1021377213377876e-12 0
          40.80676652 -2.1725508015937282e-15 0 40.806766520036646 -2.846454053157173e-11 0
          40.80676652 0 0 40.80676651991184 9.299484117003235e-11 0
          40.806766520000004 -4.183238799077476e-15 0 40.80676652 -1.1486058190214396e-15 0
          40.80676652 0 0 40.806766520000004 -8.412968145019932e-15 0
          40.80676651999998 0 0 40.806766520065274 -2.279581036354006e-11 0
          40.8067665200031 -1.4969059223719595e-12 0 40.806766521327006 -2.678436362163007e-10 0
          40.80676651998547 1.2334220163755138e-12 0 40.806766520008864 4.6104792880153273e-11 0
          40.806766519985786 -1.4520492398998137e-11 0 40.80676652255613 -3.0218678135932296e-10 0
          40.80676651997825 -1.6776466368892992e-11 0 40.80676652095652 4.40960796127228e-10 0
          40.80676652668926 2.669218023670666e-10 0 40.80676652138159 -4.790288380765748e-10 0
          40.806766519912216 -3.288791173146523e-11 0 40.806766521310834 0 0
          40.806766519958295 0 0 40.80676652054606 -1.1775404519572224e-10 0
          40.80676652006565 0 0 40.806766520027175 -1.3778636890772853e-11 0
          40.806766520000025 0 0
          <InformationKey name="L2_NORM_RANGE" location="vtkDataArray" length="2">
            <Value index="0">
              40.80676652
            </Value>
            <Value index="1">
              40.806766527
            </Value>
          </InformationKey>
        </DataArray>
        <DataArray type="Float64" Name="Energy" format="ascii" RangeMin="254132.23294491088" RangeMax="254132.2329510292">
          254132.23294498984 254132.23294498984 254132.23294498984 254132.23294498984 254132.23294498984 254132.23294498984
          254132.23294498984 254132.23294498984 254132.23294498984 254132.23294498984 254132.23294498984 254132.23294498984
          254132.23294498984 254132.23294498984 254132.23294498984 254132.23294498984 254132.23294498984 254132.23294498984
          254132.23294498984 254132.23294498984 254132.23294498984 254132.23294498984 254132.23294498984 254132.23294498984
          254132.23294498984 254132.23294498984 254132.23294498984 254132.23294498984 254132.23294498984 254132.23294498984
          254132.23294498984 254132.23294498984 254132.23294498984 254132.23294498984 254132.23294498984 254132.23294498984
          254132.23294498984 254132.23294498984 254132.23294498984 254132.23294498984 254132.23294498984 254132.23294498984
          254132.23294498984 254132.23294498984 254132.23294498984 254132.23294498984 254132.23294498984 254132.23294498984
          254132.23294498984 254132.23294498984 254132.23294498984 254132.23294498984 254132.23294498984 254132.23294498984
          254132.23294498984 254132.23294498984 254132.23294498984 254132.23294498984 254132.23294498984 254132.23294498984
          254132.23294498984 254132.23294498984 254132.23294498984 254132.23294498984 254132.23294498984 254132.23294498984
          254132.23294498984 254132.23294498984 254132.23294498984 254132.23294498984 254132.23294498984 254132.23294498984
          254132.23294498984 254132.23294498984 254132.23294498984 254132.23294498984 254132.23294498984 254132.23294498984
          254132.23294498984 254132.23294498984 254132.23294498984 254132.23294498984 254132.23294498984 254132.23294498984
          254132.23294498984 254132.23294498984 254132.23294498984 254132.23294498984 254132.23294498984 254132.23294498984
          254132.23294498984 254132.23294498984 254132.23294498984 254132.23294498984 254132.23294498984 254132.23294498984
          254132.23294498984 254132.23294498984 254132.23294498984 254132.23294498984 254132.23294498984 254132.23294498984
          254132.23294498984 254132.23294498984 254132.23294498984 254132.23294498984 254132.23294498984 254132.23294498984
          254132.23294498984 254132.23294498984 254132.23294498984 254132.23294498984 254132.23294498984 254132.23294498984
          254132.23294498984 254132.23294504275 254132.23294498984 254132.23294500977 254132.23294498984 254132.2329450196
          254132.23294498984 254132.23294498984 254132.23294498984 254132.23294498984 254132.23294498984 254132.23294498984
          254132.23294498984 254132.23294501007 254132.23294498984 254132.23294491088 254132.23294498984 254132.2329449957
          254132.23294498984 254132.2329449935 254132.23294498984 254132.23294502197 254132.23294498984 254132.23294494045
          254132.23294498984 254132.23294498984 254132.23294498984 254132.23294498984 254132.23294498984 254132.2329450507
          254132.23294499292 254132.2329461376 254132.232944974 254132.2329449844 254132.23294498195 254132.23294565183
          254132.2329449289 254132.23294556997 254132.2329510292 254132.232945727 254132.23294492345 254132.23294596263
          254132.23294494563 254132.23294541813 254132.23294506394 254132.2329450149 254132.23294498987
        </DataArray>
      </PointData>
      <CellData>
        <DataArray type="UInt8" Name="vtkGhostType" format="ascii" RangeMin="0" RangeMax="0">
          0 0 0 0 0 0
          0 0 0 0 0 0
          0 0 0 0 0 0
          0 0 0 0 0 0
          0 0 0 0 0 0
          0 0 0 0 0 0
          0 0 0 0 0 0
          0 0 0 0 0 0
          0 0 0 0 0 0
          0 0 0 0 0 0
          0 0 0 0 0 0
          0 0
        </DataArray>
      </CellData>
      <Points>
        <DataArray type="Float32" Name="Points" NumberOfComponents="3" format="ascii" RangeMin="3.25150865708068" RangeMax="7.102112369882704">
          7 1.2000000476837158 0 7 0.9599999785423279 0
          6.75 1.2000000476837158 0 6.75 0.9599999785423279 0
          7 0.7200000286102295 0 6.5 1.2000000476837158 0
          6.533493995666504 0.8399999737739563 0 6.783493995666504 0.6000000238418579 0
          6.320283889770508 0.9693650007247925 0 7 0.47999998927116394 0
          6.25 1.2000000476837158 0 6.566987037658691 0.47999998927116394 0
          6.783493995666504 0.36000001430511475 0 6.353776931762695 0.6093649864196777 0
          6.070283889770508 0.9693650007247925 0 7 0.23999999463558197 0
          6.140567779541016 0.7387298941612244 0 6 1.2000000476837158 0
          6.566987037658691 0.23999999463558197 0 6.350481033325195 0.36000001430511475 0
          6.783493995666504 0.11999999731779099 0 6.137270927429199 0.48936501145362854 0
          7 0 0 5.820283889770508 0.9693650007247925 0
          5.924060821533203 0.6187298893928528 0 5.75 1.2000000476837158 0
          6.350481033325195 0.11999999731779099 0 6.566987037658691 -1.5543120227169823e-15 0
          6.133975028991699 0.23999999463558197 0 6.783493995666504 -0.11999999731779099 0
          5.920764923095703 0.36936500668525696 0 5.603776931762695 0.8493649959564209 0
          7 -0.23999999463558197 0 5.707554817199707 0.4987299144268036 0
          6.350481033325195 -0.11999999731779099 0 6.133975028991699 -6.661338147750939e-16 0
          5.5 1.2000000476837158 0 6.566987037658691 -0.23999999463558197 0
          5.917468070983887 0.11999999731779099 0 6.783493995666504 -0.36000001430511475 0
          5.704257965087891 0.24936500191688538 0 5.492922782897949 0.6268463730812073 0
          5.3891448974609375 0.977481484413147 0 7 -0.47999998927116394 0
          6.133975028991699 -0.23999999463558197 0 6.350481033325195 -0.36000001430511475 0
          5.917468070983887 -0.11999999731779099 0 5.489418983459473 0.3769092857837677 0
          6.566987037658691 -0.47999998927116394 0 5.25 1.2000000476837158 0
          5.700962066650391 -1.7763570511584873e-15 0 5.278289794921875 0.7549629807472229 0
          6.783493995666504 -0.6000000238418579 0 5.486123085021973 0.12754429876804352 0
          5.274786949157715 0.5050258040428162 0 5.1391448974609375 0.977481484413147 0
          6.137270927429199 -0.48936501145362854 0 5.920764923095703 -0.36936500668525696 0
          7 -0.7200000286102295 0 6.353776931762695 -0.6093649864196777 0
          5.704257965087891 -0.24936500191688538 0 5.271283149719238 0.25508859753608704 0
          5 1.2000000476837158 0 5.486123085021973 -0.12754429876804352 0
          6.533493995666504 -0.8399999737739563 0 5.271283149719238 -2.886580075783644e-15 0
          5.924060821533203 -0.6187298893928528 0 6.140567779541016 -0.7387298941612244 0
          5.0141448974609375 0.427000492811203 0 5.707554817199707 -0.4987299144268036 0
          7 -0.9599999785423279 0 6.75 -0.9599999785423279 0
          4.8891448974609375 0.6435068845748901 0 5.489418983459473 -0.3769092857837677 0
          5.010642051696777 0.17706340551376343 0 4.75 1.2000000476837158 0
          5.271283149719238 -0.25508859753608704 0 6.320283889770508 -0.9693650007247925 0
          4.75 0.8660253882408142 0 6.070283889770508 -0.9693650007247925 0
          5.010642051696777 -0.07802526652812958 0 5.492922782897949 -0.6268463730812073 0
          7 -1.2000000476837158 0 6.75 -1.2000000476837158 0
          5.274786949157715 -0.5050258040428162 0 6.5 -1.2000000476837158 0
          5.820283889770508 -0.9693650007247925 0 5.603776931762695 -0.8493649959564209 0
          4.5 1.2000000476837158 0 4.75 0.09903810918331146 0
          6.25 -1.2000000476837158 0 4.5 0.8660253882408142 0
          4.625 0.3155444860458374 0 4.5 0.5320507884025574 0
          4.885642051696777 -0.29453161358833313 0 6 -1.2000000476837158 0
          5.278289794921875 -0.7549629807472229 0 5.010642051696777 -0.5110380053520203 0
          5.75 -1.2000000476837158 0 5.3891448974609375 -0.977481484413147 0
          4.625 -0.1174682006239891 0 4.5 0.09903810918331146 0
          4.25 1.2000000476837158 0 4.375 0.3155444860458374 0
          4.25 0.8660253882408142 0 5.0141448974609375 -0.7609751224517822 0
          4.25 0.5320507884025574 0 5.5 -1.2000000476837158 0
          5.1391448974609375 -0.977481484413147 0 4.5 -0.33397459983825684 0
          4.375 -0.1174682006239891 0 4.625 -0.5504809021949768 0
          4.25 0.09903810918331146 0 5.25 -1.2000000476837158 0
          4.75 -0.7669873237609863 0 4 1.2000000476837158 0
          4.125 0.3155444860458374 0 4 0.8660253882408142 0
          4.875 -0.9834936261177063 0 4 0.5320507884025574 0
          5 -1.2000000476837158 0 4.25 -0.33397459983825684 0
          4.375 -0.5504809021949768 0 4.125 -0.1174682006239891 0
          4.5 -0.7669873237609863 0 4 0.09903810918331146 0
          4.625 -0.9834936261177063 0 3.875 0.3155444860458374 0
          4.75 -1.2000000476837158 0 3.75 0.5320507884025574 0