<?xml version="1.0"?>
<VTKFile type="UnstructuredGrid" version="0.1" byte_order="LittleEndian" header_type="UInt32" compressor="vtkZLibDataCompressor">
  <UnstructuredGrid>
    <Piece NumberOfPoints="109" NumberOfCells="77">
      <PointData>
        <DataArray type="Float64" Name="Velocity" NumberOfComponents="3" format="ascii" RangeMin="0" RangeMax="1.0842316898489948">
          0 0 0 -0.5382680744457657 -0.4225963851037809 0
          -0.41421050401974197 -0.7882307801319882 0 1.2534570006000023e-16 4.362793735895517e-16 0
          -0.6307979300732744 -0.448761605680822 0 -0.5687691448602629 -0.6315788031949258 0
          -0.259350766300128 -0.10879831735350295 0 0 0 0
          -0.26913403722288287 -0.21129819255189045 0 -0.528484803523011 -0.32009650990539334 0
          -0.4690251605483312 -0.47445313053864685 0 -0.4069963753353193 -0.6572703280527504 0
          -0.5292616222628393 -0.8301255532773967 0 -0.20710525200987093 -0.3941153900659938 0
          1.395617258007642e-17 1.2474600838468257e-16 0 4.334517585733806e-17 1.496740539646774e-16 0
          -0.129675383150064 -0.05439915867675148 0 -0.2642424017615055 -0.16004825495269667 0
          -0.5188971527042969 -0.5530159668667866 0 -0.26463081113141973 -0.4150627766386982 0
          -0.2345125802741656 -0.23722656526932343 0 -0.20349818766765962 -0.32863516402637527 0
          -0.5845330022595202 -0.4356789953923015 0 -0.6188132492509042 -0.4122421333828506 0
          -0.677062857887029 -0.46184421596934283 0 -0.5748475413887857 -0.5008887862738043 0
          -0.4914898244400024 -0.7099047916634571 0 -0.5438331487822798 -0.592297385030856 0
          -0.6460484652805231 -0.5532528147263946 0 -0.5861337867351186 -0.6502140637541769 0
          -0.13456701861144144 -0.10564909627594522 0 -0.2666882194921942 -0.18567322375229356 0
          -0.5676566859757723 -0.3479095854951363 0 -0.5333764389843884 -0.3713464475045871 0
          -0.49396115662631407 -0.5137345487027166 0 -0.43440370359961394 -0.5003815032560799 0
          -0.5036466174970484 -0.44852475782121387 0 -0.403389310993108 -0.5917901020131318 0
          -0.46294676401980805 -0.6051431474597684 0 -0.4106034396775306 -0.7227505540923693 0
          -0.30524728150148944 -0.49295274603956285 0 -0.47173606314129046 -0.8091781667046924 0
          -0.5663800254364069 -0.7494874387954122 0 -0.39694621669712954 -0.6225941649580474 0
          -0.3106578780148064 -0.591173085098991 0 -0.23586803157064534 -0.404589083352346 0
          -0.20530171983876527 -0.36137527704618455 0 -0.194513074725096 -0.08159873801512721 0
          -0.064837691575032 -0.02719957933837574 0 -0.13212120088075274 -0.08002412747634834 0
          -0.26179658403081674 -0.1344232861530998 0 -0.097256537362548 -0.04079936900756359 0
          -0.13334410974609703 -0.09283661187614675 0 -0.13089829201540834 -0.06721164307654989 0
          -0.5760948441176463 -0.39179429044371883 0 -0.44867523380971097 -0.5527623253579241 0
          -0.4772182942299053 -0.6575239695616127 0 -0.6104480033346544 -0.5270708005000995 0
          -0.539247079442917 -0.4747067720475091 0 -0.5289349249382047 -0.7296961152294347 0
          -0.353802047355968 -0.6068836250285193 0 -0.307952579758148 -0.542062915569277 0
          -0.518701532600256 -0.2175966347070059 0 0 0 0
          0 0 0 -0.3997822466508967 -0.526309875973513 0
          1.5502688693166345e-17 9.941878348600744e-18 0 0 0 0
          -3.8655348345324113e-17 -1.369312656601968e-16 0 0 0 0
          -0.259350766300128 -0.10879831735350295 0 0 0 0
          7.751344346583173e-18 4.970939174300372e-18 0 -0.19989112332544834 -0.2631549379867565 0
          -0.19989112332544837 -0.2631549379867565 0 7.751344346583173e-18 4.970939174300372e-18 0
          0 0 0 -1.9327674172662057e-17 -6.84656328300984e-17 0
          -0.09994556166272418 -0.13157746899337824 0 -0.129675383150064 -0.05439915867675148 0
          0 0 0 1.1627016519874756e-17 7.456408761450556e-18 0
          3.875672173291586e-18 2.485469587150186e-18 0 -0.6437554306108417 -0.4944575082347211 0
          -0.6282482343075888 -0.5401618076132471 0 -0.5828592067837929 -0.3026837164889363 0
          -0.6382277123596866 -0.7061198454319301 0 0 0 0
          -0.29142960339189644 -0.15134185824446816 0 -0.6068285684285338 -0.3757226610848792 0
          -0.6034984286099745 -0.6688493243134279 0 -0.6460004508812953 -0.4035357366746221 0
          -0.6406168317835422 -0.5882112098314435 0 -0.6615316543841622 -0.4326899763219824 0
          -0.6433326485320326 -0.5707320122789191 0 -0.6443127405059369 -0.8720203264228051 0
          -9.74333548998474e-17 -1.8678735682018652e-16 0 -0.3221563702529685 -0.4360101632114026 0
          -0.6692972561355957 -0.4472670961456626 0 -0.7001953217939063 -0.4683855211136032 0
          -0.6846881254906534 -0.514089820492129 0 -0.6446905569062779 -0.5619924135026568 0
          -0.6915430893723488 -0.4556497094525758 0 -0.6642217780507476 -0.5042736643634251 0
          -0.6783101024605714 -0.5225404035167096 0 -0.7042500595174201 -0.4531378192611142 0
          -0.7005315103289464 -0.4912499608036613 0 -0.6828908569507912 -0.4429138977915483 0
          -0.6719320794304895 -0.5309909865412902 0
          <InformationKey name="L2_NORM_RANGE" location="vtkDataArray" length="2">
            <Value index="0">
              0
            </Value>
            <Value index="1">
              1.0842316898
            </Value>
          </InformationKey>
        </DataArray>
        <DataArray type="Float64" Name="Pressure" format="ascii" RangeMin="441.3868422744432" RangeMax="549.9631904088792">
          474.110601620941 496.29287476913294 491.8326114945688 441.3868422744432 526.9011719628093 524.6710403255272
          495.1207919804175 467.2202793589547 478.5759631418034 506.2119285545141 490.8908077066528 488.660676069371
          486.3193538549476 466.6097268845059 458.1092382213792 460.49778407553504 481.0221959626281 486.7000378540522
          507.78092401609035 472.21429603816364 494.456274869822 474.579230072453 511.5970233659709 520.1422058934857
          542.2053205596471 517.3410479894496 508.2518259100482 516.2259821708085 541.0902547410062 519.5195865418184
          469.71750732813837 482.6380004979278 509.79758418933807 501.2524016618235 499.335865861372 488.189774175413
          493.5918412378929 487.0747083567721 498.2208000427304 490.2466437819701 481.619953070912 489.07598267475817
          500.34374330652906 479.26682494655563 479.22116918953736 469.41201146133477 470.59447847847946 487.9231542644647
          473.9728979537333 476.9440925038216 490.76207521017676 479.071787816619 473.3307999159799 480.55738509166315
          510.6973037776544 493.20528710907183 503.2363129763893 529.2156513652278 505.46644461367146 504.2977846082887
          479.2439970680466 480.4205611302249 516.1309823398942 460.32995709696866 473.5172427927083 485.48874064417316
          460.8590515144733 535.1844325515076 479.6087258766271 501.8523859649687 494.8241125663013 466.92359994483854
          467.1881471535909 510.33658659784044 482.54873326040024 498.0217420329907 518.5184092582383 490.730555920798
          500.5335712593194 484.1706776795048 470.22042136877326 464.02359933403204 470.3526949731496 535.7104859624375
          535.152953053117 499.86530768551506 504.06522519069404 505.2992644515822 502.5822860685489 513.383239824162
          514.3681327581105 516.9688954589866 528.3925222096921 529.5871080093168 534.7413884753488 480.806096215327
          474.83163416831565 477.81886519182115 535.896214284482 549.8573948580662 549.2998619487458 537.9158216081776
          542.0834769626497 542.5051739555917 545.8260756954298 539.0320101251476 549.9631904088792 534.3095590672322
          542.3522894421139
        </DataArray>
        <DataArray type="Float64" Name="Temperature" format="ascii" RangeMin="97.11143334629597" RangeMax="953.2539828233856">
          925.6872118787801 381.3404983609131 569.2518610396662 265.9950253720446 445.30735307740844 539.263034416785
          689.4975193095452 916.335792178455 352.2580439889109 417.32416255061173 390.1061905480799 484.06187188745645
          616.861531983832 417.6234432058555 262.39373636454906 258.0312410583716 595.7727111108791 313.73383701610703
          464.6846124824325 439.6276341741906 343.56655311945246 371.04655647291406 413.3239257191608 458.1702334789703
          477.29078043565613 454.99598277992044 554.2574477282258 501.97382344960874 524.2686211053444 571.0626421273524
          337.7168168029097 332.995940502509 444.17863821557194 399.3323304557624 427.3954015152562 394.48903664166335
          385.7233444544965 441.4668773113516 474.3732421849445 526.6568664635614 427.5542141801852 593.0566965117491
          609.8618909108758 528.2445830790114 493.4376521227608 428.62553869002306 394.33499983938475 435.4911705770911
          548.910307011546 261.93867424885457 294.47173352970515 367.5354193531727 299.8277455258822 224.04960297182708
          428.7512819673665 434.43113941330387 514.315344956585 489.6323019426324 420.3596636172086 582.0596693195506
          510.84111760088615 460.4959331514731 453.30782674031053 906.9843724781301 97.11143334629597 398.8718827352468
          323.1755896169085 270.8782417647412 250.06745674469866 267.04775287350185 275.2096300433032 502.047902912213
          210.14351148160222 334.875062249994 324.4696697399727 297.0269156908249 268.9629973191215 258.5576048091002
          296.7163335295471 186.16053169479957 299.5796681292544 266.65955054925536 153.62747241394902 483.46154118914427
          506.95046152398845 496.75887468365613 666.4614652590541 953.2539828233856 725.0064287535208 471.0331138805322
          602.8622498379195 497.88758954549246 595.8626087649634 487.5891849905742 560.0656149351539 664.4712029279979
          258.7924473570535 461.6318251425258 482.43998271311517 493.28249411478 516.7714144496242 542.1671180202492
          497.790577430578 500.11647781938416 535.6692578943392 517.0081365021782 549.0685877429555 502.2986607463762
          554.5671013390547
        </DataArray>
        <DataArray type="Float64" Name="Density" format="ascii" RangeMin="0.31565855644795565" RangeMax="3.098530891551003">
          0.32505880202836573 0.7890658805965843 0.5285933990566734 1.1312346000660143 0.6757193072758173 0.5579888791593545
          0.43640878715214926 0.3283761026413054 0.8542112274823358 0.7210288862912454 0.771335557950364 0.6216204861849842
          0.4877963052398296 0.7205121767984007 1.1467605146193116 1.1661486218183335 0.5050630392003526 0.9591020815865837
          0.6475419414876147 0.6844491855283821 0.8758209244008548 0.8109569295201363 0.7280071571534119 0.6567488548120738
          0.630439112759814 0.6613306216636193 0.5428935188505373 0.5994391780799716 0.5739477131243985 0.5269172835844339
          0.8909913903455391 0.9036229561604132 0.6774363966604309 0.7535146873854931 0.7040384035005891 0.762765877368656
          0.7800999873934037 0.6815976273891047 0.6343165030985893 0.5713450166648748 0.7037768923018591 0.5073760703085375
          0.4933949483166963 0.569627755371203 0.609809111347331 0.70201784304762 0.763063832195605 0.6909503486547223
          0.5481820477821068 1.1487527643986692 1.0218392527510296 0.8187041582981429 1.0035854941260571 1.343018564438746
          0.7018119567259902 0.6926362980164389 0.5850550233372764 0.6145484580009376 0.7158221927313768 0.5169620779568197
          0.5890339790176911 0.6534319946910734 0.663793471888749 0.3317618089980374 3.098530891551003 0.7543845258855209
          0.9310813867562943 1.1108414399988225 1.2032864254443747 1.12677516627084 1.093358455875793 0.5993507280896051
          1.4318918249000416 0.8985523559878027 0.9273679613488535 1.0130488526484371 1.1187515723186137 1.163774611729013
          1.0141092422076934 1.6163618217400053 1.004416548109897 1.1284155228136625 1.9586521304959839 0.6223923735612555
          0.5935545955352795 0.6057320593173375 0.4514931347596115 0.31565855644795565 0.4150346317116474 0.6388144851799358
          0.49912359950750346 0.6043588602418869 0.5049868404563452 0.6171235651014514 0.537263435072931 0.4528454729420382
          1.1627185384245062 0.6518241589028063 0.6237102788498092 0.6100009218577263 0.5822744210160385 0.5550000473010167
          0.604476640959035 0.6016653909471156 0.5617323968321649 0.5820078155482307 0.5480240226147499 0.5990515198650469
          0.542590383417509
        </DataArray>
      </PointData>
      <CellData>
        <DataArray type="UInt8" Name="vtkGhostType" format="ascii" RangeMin="0" RangeMax="1">
          0 0 0 0 0 1
          1 1 1 0 1 1
          0 0 0 0 0 0
          0 0 0 0 0 0
          0 0 0 0 0 0
          0 0 0 0 0 0
          0 1 0 1 1 0
          0 0 0 0 0 0
          0 0 0 0 0 0
          0 0 0 0 1 0
          1 1 0 0 0 0
          0 0 0 0 1 1
          1 1 1 1 1
        </DataArray>
      </CellData>
      <Points>
        <DataArray type="Float32" Name="Points" NumberOfComponents="3" format="ascii" RangeMin="0" RangeMax="1.25">
          0 0.25 0 0.5 0.25 0
          0.75 0.5 0 1 0.5 0
          0.5 0.375 0 0.625 0.5 0
          0.125 0.25 0 0 0.125 0
          0.5 0.125 0 0.375 0.25 0
          0.625 0.25 0 0.75 0.375 0
          0.75 0.625 0 0.875 0.5 0
          1 0.625 0 1 0.375 0
          0.125 0.125 0 0.375 0.125 0
          0.625 0.375 0 0.875 0.625 0
          0.625 0.125 0 0.875 0.375 0
          0.5 0.3125 0 0.4375 0.375 0
          0.5 0.4375 0 0.5625 0.375 0
          0.6875 0.5 0 0.625 0.4375 0
          0.5625 0.5 0 0.625 0.5625 0
          0.5 0.0625 0 0.4375 0.125 0
          0.375 0.3125 0 0.4375 0.25 0
          0.625 0.3125 0 0.6875 0.25 0
          0.5625 0.25 0 0.75 0.3125 0
          0.6875 0.375 0 0.75 0.4375 0
          0.8125 0.375 0 0.75 0.5625 0
          0.6875 0.625 0 0.8125 0.625 0
          0.8125 0.5 0 0.875 0.5625 0
          0.875 0.4375 0 0.1875 0.125 0
          0.125 0.0625 0 0.375 0.0625 0
          0.3125 0.125 0 0.1875 0.0625 0
          0.4375 0.0625 0 0.3125 0.0625 0
          0.4375 0.3125 0 0.6875 0.3125 0
          0.6875 0.4375 0 0.5625 0.4375 0
          0.5625 0.3125 0 0.6875 0.5625 0
          0.8125 0.5625 0 0.8125 0.4375 0
          0.25 0.25 0 0 0 0
          0.25 0 0 0.75 0.25 0
          0.5 0 0 0.75 0 0
          1 0.25 0 1 0 0
          0.25 0.125 0 0.125 0 0
          0.375 0 0 0.75 0.125 0
          0.875 0.25 0 0.625 0 0
          0.875 0 0 1 0.125 0
          0.875 0.125 0 0.25 0.0625 0
          0.1875 0 0 0.4375 0 0
          0.3125 0 0 0.53125 0.4375 0
          0.5625 0.46875 0 0.25 0.375 0
          0.625 0.75 0 0 0.375 0
          0.125 0.375 0 0.375 0.375 0
          0.625 0.625 0 0.375 0.4375 0
          0.5625 0.625 0 0.4375 0.4375 0
          0.5625 0.5625 0 0.75 0.75 0
          1 0.75 0 0.875 0.75 0
          0.46875 0.4375 0 0.5 0.46875 0
          0.53125 0.5 0 0.5625 0.53125 0
          0.46875 0.46875 0 0.53125 0.46875 0
          0.53125 0.53125 0 0.4375 0.5 0
          0.5 0.5625 0 0.4375 0.46875 0
          0.53125 0.5625 0
          <InformationKey name="L2_NORM_RANGE" location="vtkDataArray" length="2">
            <Value index="0">
              0
            </Value>
            <Value index="1">
              1.25
            </Value>
          </InformationKey>
        </DataArray>
      </Points>
      <Cells>
        <DataArray type="Int64" Name="connectivity" format="ascii" RangeMin="0" RangeMax="108">
          62 6 16 70 0 7
          16 6 63 71 16 7
          1 9 17 8 62 70
          17 9 62 85 88 6
          0 6 88 87 62 9
          89 85 95 86 90 12
          3 14 19 13 96 97
          19 14 95 12 19 97
          67 73 20 75 65 10
          20 73 1 8 20 10
          66 75 20 8 68 15
          21 74 3 13 21 15
          65 74 21 11 69 77
          78 76 68 74 78 77
          65 73 78 74 67 76
          78 73 64 79 51 80
          70 47 51 79 16 48
          51 47 71 80 51 48
          66 30 52 81 8 31
          52 30 17 49 52 31
          72 81 52 49 64 82
          53 79 72 49 53 82
          17 50 53 49 70 79
          53 50 1 22 54 33
          4 23 54 22 89 32
          54 23 9 33 54 32
          89 23 93 91 4 24
          93 23 65 37 55 35
          11 38 55 37 18 34
          55 38 10 35 55 34
          2 26 56 39 5 27
          56 26 18 38 56 27
          11 39 56 38 4 25
          57 24 18 27 57 25
          5 28 57 27 1 36
          58 22 10 34 58 36
          18 25 58 34 4 22
          58 25 2 41 59 26
          12 42 59 41 90 29
          59 42 5 26 59 29
          5 29 94 28 90 92
          94 29 2 44 60 41
          13 45 60 44 19 43
          60 45 12 41 60 43
          2 39 61 44 11 40
          61 39 21 46 61 40
          13 44 61 46 24 99
          102 98 24 83 103 99
          57 84 103 83 28 100
          103 84 28 101 104 100
          93 98 102 107 94 108
          104 101
        </DataArray>
        <DataArray type="Int64" Name="offsets" format="ascii" RangeMin="4" RangeMax="308">
          4 8 12 16 20 24
          28 32 36 40 44 48
          52 56 60 64 68 72
          76 80 84 88 92 96
          100 104 108 112 116 120
          124 128 132 136 140 144
          148 152 156 160 164 168
          172 176 180 184 188 192
          196 200 204 208 212 216
          220 224 228 232 236 240
          244 248 252 256 260 264
          268 272 276 280 284 288
          292 296 300 304 308
        </DataArray>
        <DataArray type="UInt8" Name="types" format="ascii" RangeMin="9" RangeMax="9">
          9 9 9 9 9 9
          9 9 9 9 9 9
          9 9 9 9 9 9
          9 9 9 9 9 9
          9 9 9 9 9 9
          9 9 9 9 9 9
          9 9 9 9 9 9
          9 9 9 9 9 9
          9 9 9 9 9 9
          9 9 9 9 9 9
          9 9 9 9 9 9
          9 9 9 9 9 9
          9 9 9 9 9
        </DataArray>
      </Cells>
    </Piece>
  </UnstructuredGrid>
</VTKFile>
