<?xml version="1.0"?>
<VTKFile type="UnstructuredGrid" version="0.1" byte_order="LittleEndian" header_type="UInt32" compressor="vtkZLibDataCompressor">
  <UnstructuredGrid>
    <Piece NumberOfPoints="99" NumberOfCells="73">
      <PointData>
        <DataArray type="Float64" Name="Velocity" NumberOfComponents="3" format="ascii" RangeMin="0" RangeMax="0.25077641939376605">
          0 0 0 -0.11418496179749407 -0.029488829198455843 0
          -0.03795185980609489 -0.20547574639306818 0 1.0090917254263801e-17 1.4761052361715814e-16 0
          -0.1084708370282486 -0.01697990796656227 0 -0.07035428603254901 -0.10497336656386844 0
          -0.03326788779339835 0.11799668831686011 0 0 0 0
          -0.057092480898747036 -0.014744414599227922 0 -0.0903603686921454 0.10325227371763218 0
          -0.11602580667083189 -0.08749270359700201 0 -0.07790925567513228 -0.17548616219430818 0
          -0.0029964392361567227 -0.13868483390139094 0 -0.018975929903047438 -0.102737873196534 0
          6.116982307467984e-18 6.552209829270628e-17 0 -7.112885850158275e-19 4.827824394993974e-17 0
          -0.016633943896699175 0.058998344158430055 0 -0.0451801843460727 0.05162613685881609 0
          -0.09319004635169043 -0.09623303508043524 0 -0.0014982196180783579 -0.06934241695069543 0
          -0.05801290333541594 -0.043746351798501004 0 -0.03895462783756614 -0.08774308109715406 0
          -0.11132789941287136 -0.02323436858250904 0 -0.10249287943954448 0.04628762134321791 0
          -0.10561377464362584 -0.01072544735061548 0 -0.10083044168996952 -0.05660647152349875 0
          -0.05415307291932195 -0.15522455647846828 0 -0.08177216619211972 -0.10060320082215182 0
          -0.08655549914577605 -0.05472217664926855 0 -0.036933409804884076 -0.09680383578631169 0
          -0.028546240449373518 -0.00737220729961396 0 -0.051136332622409866 0.018440861129794085 0
          -0.0934376452714929 0.10640371218531515 0 -0.10227266524481973 0.03688172225958817 0
          -0.10460792651126116 -0.09186286933871861 0 -0.11694622910750077 -0.11649464079627511 0
          -0.11510538423416297 -0.058490766397728926 0 -0.09788795360965097 -0.1604913700949282 0
          -0.08554965101341136 -0.13585959863737168 0 -0.05793055774061359 -0.19048095429368817 0
          -0.05843194175634921 -0.13161462164573112 0 -0.0204741495211258 -0.17208029014722956 0
          -0.003254486406687941 -0.11365956945507294 0 -0.0022473294271175403 -0.10401362542604319 0
          -0.028463894854571164 -0.15410680979480107 0 -0.010237074760562898 -0.08604014507361471 0
          -0.02896527887030679 -0.09524047714684403 0 -0.024950915845048764 0.08849751623764508 0
          -0.008316971948349587 0.029499172079215027 0 -0.02259009217303635 0.025813068429408045 0
          -0.03922403606973553 0.0848114125878381 0 -0.01247545792252438 0.04424875811882254 0
          -0.025568166311204937 0.009220430564897039 0 -0.019612018034867767 0.04240570629391904 0
          -0.10238277234218211 0.04158467180140304 0 -0.10124794006045607 -0.1261771197168234 0
          -0.06985136196636665 -0.14554207755792 0 -0.09369297041787278 -0.05566432408638365 0
          -0.10796791296206625 -0.057548618960613855 0 -0.028703779663004927 -0.13444206296677058 0
          -0.015355612140844351 -0.12906021761042213 0 -0.043447918305460194 -0.1428607157202661 0
          -0.0665357755867967 0.23599337663372022 0 0 0 0
          0 0 0 -0.11786665154416967 -0.14549657799554822 0
          2.899730492556219e-18 9.660283459106265e-19 0 0 0 0
          -1.1513494424295458e-17 -5.105403571727865e-17 0 0 0 0
          -0.03326788779339835 0.11799668831686011 0 0 0 0
          1.4498652462781095e-18 4.830141729553133e-19 0 -0.058933325772084835 -0.07274828899777411 0
          -0.05893332577208485 -0.07274828899777412 0 1.4498652462781095e-18 4.830141729553133e-19 0
          0 0 0 -5.756747212147729e-18 -2.5527017858639325e-17 0
          -0.029466662886042425 -0.03637414449888706 0 -0.016633943896699175 0.058998344158430055 0
          0 0 0 2.1747978694171642e-18 7.245212594329698e-19 0
          7.249326231390547e-19 2.4150708647765664e-19 0 -0.10275671225900308 -0.004470986734668701 0
          -0.08455900667343219 0.23609020927255853 0 0.0633292188781107 -0.07229524345364144 0
          0 0 0 -0.042279503336716096 0.11804510463627926 0
          -0.09651492185084037 0.10955515065299812 0 -0.0035125335772191596 -0.08863430500875494 0
          -0.10271309363426925 0.05569352042684767 0 -0.09959219843018786 0.1127065891206811 0
          -0.05339267008864235 -0.021527381425393816 0 -0.003770580747750385 -0.06360904056243692 0
          -0.10260298653690685 0.0509905708850328 0 -0.0451630399467632 -0.05916560860585274 0
          0.031958981333781444 -0.0718939214097137 0 2.1430473606721658e-18 -1.6566327031745607e-17 0
          0.015979490666890722 -0.03594696070485686 0
          <InformationKey name="L2_NORM_RANGE" location="vtkDataArray" length="2">
            <Value index="0">
              0
            </Value>
            <Value index="1">
              0.25077641939
            </Value>
          </InformationKey>
        </DataArray>
        <DataArray type="Float64" Name="Pressure" format="ascii" RangeMin="3.0032870293118776" RangeMax="10.193536403748567">
          6.478865717748363 7.234880216346937 7.24087079599542 4.350139194423264 8.408921009370033 8.411916299194445
          6.473936529947537 4.74107637352995 7.407966795094353 6.851943779246994 8.100297923855805 8.103293213680331
          6.712286594670331 5.795504995209285 5.824973536447828 6.072376880765091 5.664461776113967 6.997906986896396
          8.256107111525125 6.268630065559137 8.4937964063256 7.0878350472225975 7.821900612858485 7.892525103514345
          8.995941405881581 8.33251406044758 7.826393547594762 8.334011705359785 8.9974390507939 8.084417425613196
          7.494510084468175 7.202936890995375 7.114036488452825 7.043411997796966 8.178202517690579 8.533006777610353
          7.667589070101371 8.534504422522616 8.179700162602671 7.672082004837762 7.595564130451464 6.976578695332819
          7.2346025733511965 6.490458330114734 6.518187895602523 6.032067530384211 6.441670021215941 6.126154477406033
          5.259724399197239 7.070888590720983 6.792877082797247 5.953495748085288 7.282699337594522 6.8590778438474445
          7.4679685506555415 8.35635347010657 8.00304685509866 8.664976555620683 8.000051565274703 7.530498060472951
          6.504323112858515 7.056876013026795 6.469007342147165 3.0032870293118776 6.706687015249145 8.965715631364901
          7.581053373841996 10.193536403748567 7.794614567106578 10.07302018338737 6.587847178698098 4.854987022280511
          7.1438701945455705 9.579626017556734 8.380165099235683 8.887294888795282 10.133278293567741 8.933817375246917
          9.256721696401883 6.647267096973792 5.780837018764714 7.362461784193783 6.925278604897358 9.58296180239347
          6.343337385947393 7.101920804869678 7.913341789948959 7.1283395879479485 7.376129197658656 7.756918552032062
          8.741638209231837 7.638221906864715 9.19225615589346 8.279234530712984 8.317081656373261 8.638336790753442
          6.1837023933453565 7.299807878472848 6.741755135908875
        </DataArray>
        <DataArray type="Float64" Name="Temperature" format="ascii" RangeMin="233.21434714396185" RangeMax="954.3250706297857">
          953.031543076683 389.1610434529922 549.6879521079394 239.65529562308805 460.5158430561304 540.779297383604
          679.8255062194189 952.2060548613917 339.0545928397803 397.8902564075736 400.4230593874344 480.68651371490796
          600.9743916987824 394.67162386551377 239.38750524883625 239.1208554028145 636.0614815572251 329.4857505464194
          470.6011783855192 420.1809484738093 340.5745487518303 359.90368455886124 424.83844325456135 459.1506720415494
          496.1932428576995 465.5585107208248 545.2336247457717 505.6902378845616 536.3249700214363 566.1525698119144
          314.00136753317435 334.2701716930999 427.83787871727094 393.5256499302829 435.5121188864768 406.05406735465556
          394.7920514202133 446.1857945183923 475.6438460502136 515.1872329114237 420.2950991368846 575.3311719033609
          596.2501169695036 510.5776700862958 472.1797879867265 407.4262861696615 377.2876542121875 477.98919490514174
          614.1794692261282 295.28349761584224 324.70132939973894 445.37254846231906 304.64243257450835 285.9245626571762
          426.3381609859162 440.8489567024345 510.4387353979927 500.94174037113055 430.1752810705191 570.7418708576377
          491.37872903651123 446.23744356180555 406.6194693621551 951.3805666461005 233.21434714396185 411.68507532187664
          288.9481422265684 272.50393400588405 238.58641518254095 239.65226941134398 319.91690825305847 592.2974568950312
          261.0812446852651 342.09450466388034 325.1357452522088 280.7260381162263 256.07810170861404 239.11934229694248
          290.6069234804114 276.5656276985102 412.7559020194965 275.01469345591676 247.14779591461345 531.8706426592687
          455.05515899780636 642.2723870968454 954.3250706297857 704.6901148137961 457.7855010269683 591.5258422402247
          524.7756941528158 487.7331233366657 556.9739677204678 586.8015675109458 491.9631830971826 561.5632687661911
          652.2608312896255 239.1197148745844 445.69027308210497
        </DataArray>
        <DataArray type="Float64" Name="Density" format="ascii" RangeMin="0.31441630192664194" RangeMax="1.2866076346412607">
          0.31484305186229866 0.7710313367466933 0.5458649009727219 1.2520289141250742 0.6515635977951058 0.5548573345818251
          0.44137114126820276 0.315115996176874 0.8849765373480408 0.7541158767053117 0.7493458543629382 0.6242225462586194
          0.4992814397550753 0.7602658549517203 1.2534294938718706 1.2548272254958106 0.4717395538693743 0.9106778033516976
          0.6376001024321523 0.7141098629844272 0.8810269605963503 0.8337101630706573 0.7062810918067194 0.6535008610771369
          0.6047147232703244 0.644506227753677 0.5503243855938024 0.5933580224892435 0.5594655783625098 0.5299902809643382
          0.9555861552469119 0.8976432387714972 0.7013295794260069 0.7624798017523292 0.6889713202711423 0.7389542025723003
          0.7600339430945692 0.6724897189234248 0.6308404114443685 0.5824200220328193 0.713915913270201 0.5215350292087064
          0.5032374015595297 0.5876781871259361 0.6354684532827429 0.7364653919711719 0.7952959928409075 0.6277450677579551
          0.488546710819512 1.0161602729782904 0.9240964922995473 0.6737176787820925 0.9849427639070344 1.0494214164561484
          0.7037966267185984 0.6806307579532979 0.5878381453737898 0.5989825469943828 0.6975188318505688 0.5257286610011876
          0.6106396997111436 0.6724118826701279 0.7379266910509263 0.315389414144839 1.2866076346412607 0.7288468237734872
          1.0384401755662471 1.1011046891411838 1.2576380734574857 1.2520447241343562 0.9379165395845563 0.5065957249187976
          1.149279642453892 0.8771124804770347 0.9228618013394521 1.068854750905114 1.1717337700539712 1.2548351658256267
          1.0325127699978012 1.0849336630884407 0.7269559516295554 1.0910521026084583 1.2140725691398198 0.5641510086796095
          0.6593823926842791 0.46717773575723504 0.31441630192664194 0.42579759987492344 0.6554496786599239 0.50725655265868
          0.5717783100219611 0.6152039818222076 0.5387242078320783 0.5113404192426626 0.6099142575147245 0.534321555970976
          0.460023575154805 1.2548332106395923 0.6732373975054701
        </DataArray>
      </PointData>
      <CellData>
        <DataArray type="UInt8" Name="vtkGhostType" format="ascii" RangeMin="0" RangeMax="1">
          0 0 0 0 0 1
          1 1 1 0 1 1
          0 0 0 0 0 0
          0 0 0 0 0 0
          0 0 0 0 0 0
          0 0 0 0 0 0
          0 1 0 1 1 1
          0 0 0 0 0 0
          0 0 1 0 0 0
          0 0 0 0 0 0
          1 0 1 1 1 0
          0 0 0 0 0 0
          0
        </DataArray>
      </CellData>
      <Points>
        <DataArray type="Float32" Name="Points" NumberOfComponents="3" format="ascii" RangeMin="0" RangeMax="1.25">
          0 0.25 0 0.5 0.25 0
          0.75 0.5 0 1 0.5 0
          0.5 0.375 0 0.625 0.5 0
          0.125 0.25 0 0 0.125 0
          0.5 0.125 0 0.375 0.25 0
          0.625 0.25 0 0.75 0.375 0
          0.75 0.625 0 0.875 0.5 0
          1 0.625 0 1 0.375 0
          0.125 0.125 0 0.375 0.125 0
          0.625 0.375 0 0.875 0.625 0
          0.625 0.125 0 0.875 0.375 0
          0.5 0.3125 0 0.4375 0.375 0
          0.5 0.4375 0 0.5625 0.375 0
          0.6875 0.5 0 0.625 0.4375 0
          0.5625 0.5 0 0.625 0.5625 0
          0.5 0.0625 0 0.4375 0.125 0
          0.375 0.3125 0 0.4375 0.25 0
          0.625 0.3125 0 0.6875 0.25 0
          0.5625 0.25 0 0.75 0.3125 0
          0.6875 0.375 0 0.75 0.4375 0
          0.8125 0.375 0 0.75 0.5625 0
          0.6875 0.625 0 0.8125 0.625 0
          0.8125 0.5 0 0.875 0.5625 0
          0.875 0.4375 0 0.1875 0.125 0
          0.125 0.0625 0 0.375 0.0625 0
          0.3125 0.125 0 0.1875 0.0625 0
          0.4375 0.0625 0 0.3125 0.0625 0
          0.4375 0.3125 0 0.6875 0.3125 0
          0.6875 0.4375 0 0.5625 0.4375 0
          0.5625 0.3125 0 0.6875 0.5625 0
          0.8125 0.5625 0 0.8125 0.4375 0
          0.25 0.25 0 0 0 0
          0.25 0 0 0.75 0.25 0
          0.5 0 0 0.75 0 0
          1 0.25 0 1 0 0
          0.25 0.125 0 0.125 0 0
          0.375 0 0 0.75 0.125 0
          0.875 0.25 0 0.625 0 0
          0.875 0 0 1 0.125 0
          0.875 0.125 0 0.25 0.0625 0
          0.1875 0 0 0.4375 0 0
          0.3125 0 0 0.5 0.5 0
          0.25 0.375 0 0.625 0.75 0
          0 0.375 0 0.125 0.375 0
          0.375 0.375 0 0.625 0.625 0
          0.4375 0.5 0 0.375 0.4375 0
          0.5 0.5625 0 0.5625 0.625 0
          0.4375 0.4375 0 0.5625 0.5625 0
          0.75 0.75 0 1 0.75 0
          0.875 0.75 0
          <InformationKey name="L2_NORM_RANGE" location="vtkDataArray" length="2">
            <Value index="0">
              0
            </Value>
            <Value index="1">
              1.25
            </Value>
          </InformationKey>
        </DataArray>
      </Points>
      <Cells>
        <DataArray type="Int64" Name="connectivity" format="ascii" RangeMin="0" RangeMax="98">
          62 6 16 70 0 7
          16 6 63 71 16 7
          1 9 17 8 62 70
          17 9 62 84 87 6
          0 6 87 86 62 9
          88 84 96 85 89 12
          3 14 19 13 97 98
          19 14 96 12 19 98
          67 73 20 75 65 10
          20 73 1 8 20 10
          66 75 20 8 68 15
          21 74 3 13 21 15
          65 74 21 11 69 77
          78 76 68 74 78 77
          65 73 78 74 67 76
          78 73 64 79 51 80
          70 47 51 79 16 48
          51 47 71 80 51 48
          66 30 52 81 8 31
          52 30 17 49 52 31
          72 81 52 49 64 82
          53 79 72 49 53 82
          17 50 53 49 70 79
          53 50 1 22 54 33
          4 23 54 22 88 32
          54 23 9 33 54 32
          83 90 94 24 88 23
          94 91 4 24 94 23
          65 37 55 35 11 38
          55 37 18 34 55 38
          10 35 55 34 2 26
          56 39 5 27 56 26
          18 38 56 27 11 39
          56 38 83 24 57 28
          4 25 57 24 18 27
          57 25 5 28 57 27
          1 36 58 22 10 34
          58 36 18 25 58 34
          4 22 58 25 2 41
          59 26 12 42 59 41
          89 29 59 42 5 26
          59 29 83 28 95 92
          5 29 95 28 89 93
          95 29 2 44 60 41
          13 45 60 44 19 43
          60 45 12 41 60 43
          2 39 61 44 11 40
          61 39 21 46 61 40
          13 44 61 46
        </DataArray>
        <DataArray type="Int64" Name="offsets" format="ascii" RangeMin="4" RangeMax="292">
          4 8 12 16 20 24
          28 32 36 40 44 48
          52 56 60 64 68 72
          76 80 84 88 92 96
          100 104 108 112 116 120
          124 128 132 136 140 144
          148 152 156 160 164 168
          172 176 180 184 188 192
          196 200 204 208 212 216
          220 224 228 232 236 240
          244 248 252 256 260 264
          268 272 276 280 284 288
          292
        </DataArray>
        <DataArray type="UInt8" Name="types" format="ascii" RangeMin="9" RangeMax="9">
          9 9 9 9 9 9
          9 9 9 9 9 9
          9 9 9 9 9 9
          9 9 9 9 9 9
          9 9 9 9 9 9
          9 9 9 9 9 9
          9 9 9 9 9 9
          9 9 9 9 9 9
          9 9 9 9 9 9
          9 9 9 9 9 9
          9 9 9 9 9 9
          9 9 9 9 9 9
          9
        </DataArray>
      </Cells>
    </Piece>
  </UnstructuredGrid>
</VTKFile>
