<?xml version="1.0"?>
<VTKFile type="UnstructuredGrid" version="0.1" byte_order="LittleEndian" header_type="UInt32" compressor="vtkZLibDataCompressor">
  <UnstructuredGrid>
    <Piece NumberOfPoints="88" NumberOfCells="239">
      <PointData>
        <DataArray type="Float64" Name="nsi_BC" NumberOfComponents="3" format="ascii" RangeMin="0" RangeMax="1">
          1 0 0 1 0 0
          1 0 0 1 0 0
          1 0 0 0 0 0
          1 0 0 0 0 0
          1 0 0 0 0 0
          1 0 0 0 0 0
          0 0 0 0 0 0
          1 0 0 0 0 0
          0 0 0 1 0 0
          1 0 0 1 0 0
          0 0 0 1 0 0
          1 0 0 0 0 0
          0 0 0 0 0 0
          1 0 0 1 0 0
          0 0 0 0 0 0
          0 0 0 0 0 0
          1 0 0 0 0 0
          0 0 0 0 0 0
          1 0 0 1 0 0
          0 0 0 1 0 0
          1 0 0 0 0 0
          0 0 0 0 0 0
          0 0 0 1 0 0
          0 0 0 0 0 0
          1 0 0 0 0 0
          0 0 0 0 0 0
          1 0 0 1 0 0
          0 0 0 0 0 0
          1 0 0 0 0 0
          0 0 0 1 0 0
          0 0 0 0 0 0
          1 0 0 0 0 0
          0 0 0 1 0 0
          0 0 0 0 0 0
          0 0 0 1 0 0
          1 0 0 0 0 0
          0 0 0 1 0 0
          0 0 0 1 0 0
          0 0 0 0 0 0
          1 0 0 1 0 0
          1 0 0 1 0 0
          0 0 0 0 0 0
          1 0 0 0 0 0
          1 0 0 0 0 0
          <InformationKey name="L2_NORM_RANGE" location="vtkDataArray" length="2">
            <Value index="0">
              0
            </Value>
            <Value index="1">
              1
            </Value>
          </InformationKey>
        </DataArray>
        <DataArray type="Float64" Name="nsi_FIXNO" NumberOfComponents="3" format="ascii" RangeMin="1.7320508075688772" RangeMax="1.7320508075688772">
          1 1 1 1 1 1
          1 1 1 1 1 1
          1 1 1 1 1 1
          1 1 1 1 1 1
          1 1 1 -1 -1 -1
          1 1 1 1 1 1
          1 1 1 1 1 1
          1 1 1 -1 -1 -1
          -1 -1 -1 1 1 1
          1 1 1 1 1 1
          1 1 1 1 1 1
          1 1 1 1 1 1
          1 1 1 -1 -1 -1
          1 1 1 1 1 1
          1 1 1 -1 -1 -1
          1 1 1 1 1 1
          1 1 1 1 1 1
          -1 -1 -1 1 1 1
          1 1 1 1 1 1
          1 1 1 1 1 1
          1 1 1 1 1 1
          1 1 1 1 1 1
          1 1 1 1 1 1
          1 1 1 1 1 1
          1 1 1 1 1 1
          1 1 1 1 1 1
          1 1 1 1 1 1
          1 1 1 1 1 1
          1 1 1 1 1 1
          1 1 1 1 1 1
          1 1 1 1 1 1
          1 1 1 1 1 1
          1 1 1 1 1 1
          1 1 1 1 1 1
          1 1 1 1 1 1
          1 1 1 -1 -1 -1
          1 1 1 1 1 1
          1 1 1 1 1 1
          1 1 1 1 1 1
          1 1 1 1 1 1
          1 1 1 1 1 1
          1 1 1 1 1 1
          1 1 1 1 1 1
          1 1 1 1 1 1
          <InformationKey name="L2_NORM_RANGE" location="vtkDataArray" length="2">
            <Value index="0">
              1.7320508076
            </Value>
            <Value index="1">
              1.7320508076
            </Value>
          </InformationKey>
        </DataArray>
        <DataArray type="Float64" Name="tem_BC" format="ascii" RangeMin="0" RangeMax="12">
          0 0 0 0 0 12
          0 12 0 0 0 12
          12 12 0 0 0 0
          0 0 12 0 0 12
          12 0 0 0 12 0
          12 12 0 12 0 12
          0 0 12 0 0 12
          12 12 12 0 12 12
          0 12 12 12 0 0
          12 12 0 12 12 0
          12 12 0 12 12 0
          12 12 12 0 0 0
          12 0 12 7.64356 12 12
          0 7.64356 8.129456 8.136573 12 12
          7.64356 12 8.129456 12
        </DataArray>
        <DataArray type="Float64" Name="tem_FIXNO" format="ascii" RangeMin="-1" RangeMax="1">
          -1 -1 -1 -1 -1 1
          -1 1 -1 -1 -1 1
          1 1 -1 -1 -1 -1
          -1 -1 1 -1 -1 1
          1 -1 -1 -1 1 -1
          1 1 -1 1 -1 1
          -1 -1 1 -1 -1 1
          1 1 1 -1 1 1
          -1 1 1 1 -1 -1
          1 1 -1 1 1 -1
          1 1 -1 1 1 -1
          1 1 1 -1 -1 -1
          1 -1 1 1 1 1
          -1 1 1 1 1 1
          1 1 1 1
        </DataArray>
        <DataArray type="Float64" Name="Velocity" NumberOfComponents="3" format="ascii" RangeMin="0" RangeMax="1.3589632113231902">
          1 0 0 1 0 0
          1 0 0 1 0 0
          1 0 0 0 0 0
          1 0 0 0 0 0
          1 0 0 1.220123835870569 0.4506643506092635 0.3936755999046132
          1 0 0 0 0 0
          0 0 0 0 0 0
          1 0 0 1.0909280126718697 0.11328334262865898 0.15323344514110018
          1.0658439979423453 0.31264022086816196 0.20951879072485377 1 0 0
          1 0 0 1 0 0
          0 0 0 1 0 0
          1 0 0 0 0 0
          0 0 0 0.8030718591898176 0.24183243638365914 -0.03100356128809087
          1 0 0 1 0 0
          0 0 0 0.8046989356287864 0.28864014046488246 0.06074844977915874
          0 0 0 0 0 0
          1 0 0 0 0 0
          0.8797817686386629 -0.011075070301182988 0.11141203507043246 0 0 0
          1 0 0 1 0 0
          0 0 0 1 0 0
          1 0 0 0 0 0
          0 0 0 0 0 0
          0 0 0 1 0 0
          0 0 0 0 0 0
          1 0 0 0 0 0
          0 0 0 0 0 0
          1 0 0 1 0 0
          0 0 0 0 0 0
          1 0 0 0 0 0
          0 0 0 1 0 0
          0 0 0 0 0 0
          1 0 0 0 0 0
          0 0 0 1 0 0
          0 0 0 0 0 0
          0 0 0 1 0 0
          1 0 0 0.8071359626125069 0.05078119782755455 -0.09633768885899056
          0 0 0 1 0 0
          0 0 0 1 0 0
          0 0 0 0 0 0
          1 0 0 1 0 0
          1 0 0 1 0 0
          0 0 0 0 0 0
          1 0 0 0 0 0
          1 0 0 0 0 0
          <InformationKey name="L2_NORM_RANGE" location="vtkDataArray" length="2">
            <Value index="0">
              0
            </Value>
            <Value index="1">
              1.3589632113
            </Value>
          </InformationKey>
        </DataArray>
        <DataArray type="Float64" Name="Pressure" format="ascii" RangeMin="0" RangeMax="17.207142043603326">
          0 11.246887786711538 11.412128719022013 12.447566799940583 13.011484394463233 12.49577923861781
          14.046298940825096 13.51294133517956 14.288439065450003 14.62264442511722 14.739445418262509 14.028492487689439
          14.608849417615351 14.560659475044032 13.608578661453336 15.310291202467614 15.060500215661378 15.09015008679426
          15.439270446739979 14.179643638175095 14.999448402453057 14.505501486398256 15.539506738385509 15.437404989882129
          15.528940894603135 15.716981213640375 14.916295378254507 15.774767077976849 14.6776298494472 15.70154852046499
          15.56429620421348 15.108805683661483 15.242522187375522 16.130793010466018 15.825192585848518 16.138841419101034
          16.07774397857409 15.416989242700998 15.414876385170391 16.229010909140918 16.136779609317323 16.143231768805933
          16.207840066473917 16.23304133725093 16.269148715692886 15.821803988025675 16.294131519406267 15.805310052331984
          16.422444781158497 16.324773110019816 16.28575607642719 16.29859576513815 16.289370096038844 16.102108325431573
          16.51278063937659 16.367876690893258 16.572281640475822 16.353175613372354 16.22970512708768 16.196456773220714
          16.34806959280011 16.413423142639164 16.664015771836052 16.448147164749507 16.328075358258136 16.450558964935162
          16.386888972198772 16.363148564723048 16.378165715345855 16.450938816790718 16.801733581258322 16.730746202561033
          16.377706293291716 16.73825999088851 16.40187856543729 16.919485248501477 16.450057404468634 16.42585097767608
          16.568396988731298 17.069957689574284 16.72183328831584 16.765059234238663 16.538536819012286 16.452222082697947
          17.207142043603326 16.489367717984845 16.93971757796569 16.652953443091874
        </DataArray>
        <DataArray type="Float64" Name="DISSI_NS" format="ascii" RangeMin="0" RangeMax="7709.17245550218">
          0 3.4269691170311725 3.3893361744907753 1.6639814410781486 0.08634358319713195 282.6636394024295
          0.0761520559363194 4.190497212030832 0.12508510256889518 0.24006537146553958 0.1648454641070561 7709.17245550218
          3028.655332630762 2316.2848579713036 9.232760512009334e-34 0.09669067417937206 0.11355408299923367 0.034095046493760134
          0.08763996099401652 0.05070387577741139 376.8477950513116 0.04199012561715571 0.07017970250420014 618.0180827111471
          443.7073663263243 0.10626547835273199 0.04347637909215943 0.012599680308870547 9.84938775510204e-7 0.04167540797442176
          76.98441168771915 224.58060357978826 0.021729926643671054 635.5133363645525 0.05769559006040626 769.048703889458
          0.11237159142533097 0.027972287862031847 113.42585161628756 0.04963834955993537 0.07434744814644158 479.0210487128624
          276.76441715358493 439.7941052333999 660.3927922681786 0.045257420513863146 16.568205341611414 83.48666477035101
          0.0706216459318105 74.30008959855193 140.22577088440218 273.1153362310256 0.26682715627252884 0.009161242771026227
          751.2680095685853 346.36619211598605 0.002699155731227977 59.786377934317976 374.6647440690836 0.04024243816507033
          17.053269559636423 264.12057416337393 0.08389759861474176 38.691752049526116 84.05170318759484 0.1629878473816401
          10.950966861742527 131.79207428169315 15.40365966792258 0.13728862993236288 0.00859997744060482 0.06582335681767532
          52.83364458839194 0.07900070175616204 2.718330319082925 0.0014667188163155968 38.13010288702441 118.67101088797098
          0.0773367679582058 0.008413637369922585 0.03676531573289173 0.07137858967804116 103.57203028031 42.119476407209646
          0.006173349941879957 69.64517083003757 0.03404006404940021 8.732676073508786
        </DataArray>
        <DataArray type="Float64" Name="Temperature" format="ascii" RangeMin="-1.2759192127911383" RangeMax="12.000000000000005">
          0.09912902861678682 -1.1451318579078442 -0.6343173524304799 -1.2759192127911383 0.9256909732489675 11.999999999999998
          -0.5540015529473881 12 -0.6954490521953121 2.513710852951487 0.8905477732713588 12
          12 11.999999999999998 0.03958266983180637 2.6864285857625734 1.8231916637305023 -0.17471996789175406
          1.0426490082871291 -1.1278950640974157 12 -0.7138617848583987 0.2328657229047891 12
          12.000000000000002 5.394307825847768 -0.10431619802955924 1.693932772884468 12 4.282158494869487
          12 12 -0.9000736636800616 12 3.2460460277775964 11.999999999999998
          3.0515692631778384 0.4511020984060919 12 1.4501469069659405 -0.33760607969020495 11.999999999999998
          12 12 12 0.2848183571315074 12.000000000000002 12
          2.989173791111719 11.999999999999998 12.000000000000002 12.000000000000005 4.185931959518928 0.15010974407054128
          12.000000000000002 12.000000000000002 5.184297603198849 12.000000000000002 12.000000000000002 2.0121693452499363
          11.999999999999998 12.000000000000004 4.136056452662835 12.000000000000002 12 5.764473274726193
          12.000000000000002 12 12.000000000000002 4.0738489353245635 4.726808552187239 6.840013282069359
          12.000000000000002 3.2456745276942183 11.999999999999998 7.64356 12 12
          6.474117928453478 7.643559999999999 8.129455999999998 8.136573 12 11.999999999999998
          7.643560000000001 11.999999999999998 8.129456 12
        </DataArray>
        <DataArray type="Float64" Name="DISSI_TEMPE" format="ascii" RangeMin="5.553674174847205e-32" RangeMax="1.9789807023754828">
          0.006025671681406786 0.45081767582183097 0.11323694128152394 0.807102616509524 0.5390969874057582 0.36882825447322093
          0.05094420233866145 0.40089900151649144 0.37656277691192547 0.9042279591137921 0.7553121076963846 0.22325213743483888
          0.3548500479491235 0.39434134235323254 0.005522747698399276 0.5426882258113359 0.671759276123723 0.172255063104015
          0.8376602411423995 0.755663860681652 0.3452375765342134 0.08333660149190257 0.7014680696289557 0.2496809018858638
          0.28782276898002407 0.9588793651298776 0.7283358896282156 0.08564130385318049 0.36786162309921966 0.5634101337731656
          0.3286804991957837 0.41530503053995266 0.19056462629558393 0.10967496090398787 0.7467142069157897 0.22239159398934535
          0.9606749209830624 0.5159435911364662 0.4433088935071782 0.33230744590860783 0.8280497078801565 0.14943725259724502
          0.12902814695195303 0.18476012291886165 0.184448024532108 0.49381944358974983 1.49208912459128e-31 0.32722026054531456
          0.9440179120997256 1.3567114563686442e-31 0.2620259966321447 0.19591831803857299 1.9789807023754828 0.36243062387962416
          0.14999001950827084 0.1876981821562996 0.04164698217574435 1.4780304211421834e-31 0.21188086684524107 0.6191818307886846
          0.3444722457414371 0.16882297193753754 1.2657870282327741 0.04695653282822992 0.27480831162496233 1.2347941992267466
          0.21756752470745544 0.2468283621584335 5.553674174847205e-32 1.7755797680803138 0.31775995475726493 0.9369282630855276
          0.0679351933542003 0.9308863996306496 0.14425323070828974 0.14602652571719227 0.22865346018102917 0.06134729139317307
          1.3581760805854874 0.0901833222491648 0.04596511259181594 0.8689435420029141 0.07321318214991905 0.07514905766545826
          0.15123677340402336 0.04778303271420919 0.5011721631432922 0.015668751205261622
        </DataArray>
        <DataArray type="Float64" Name="CN2" format="ascii" RangeMin="0" RangeMax="2.0109073282001832e-10">
          0 1.9641072304874065e-12 4.914655100739447e-13 4.482560528563807e-12 7.772567446875104e-12 3.0565105900832596e-13
          7.826873690966084e-13 1.3524264632627448e-12 4.913527262155515e-12 9.059829942678772e-12 8.783066400198226e-12 6.146549547500958e-14
          1.3339461744693867e-13 1.6210060076178768e-13 0 7.344440279513825e-12 8.725536738689126e-12 3.4402449023410777e-12
          1.1997425268184676e-11 1.3408019893179015e-11 2.599617870853648e-13 1.5650583310448823e-12 1.0947892950209361e-11 1.5942956008454184e-13
          2.0524739154473853e-13 1.2093052476117262e-11 1.3400229076137649e-11 2.319347543725305e-12 2.0109073282001832e-10 9.863942843001899e-12
          4.2023416629933946e-13 3.716129505254528e-13 4.469862676495324e-12 6.938344688057964e-14 1.1906762583858088e-11 1.3202527940101194e-13
          1.230087558644205e-11 1.0906835629745665e-11 4.98103373376845e-13 5.718500952653751e-12 1.2783845007635715e-11 1.0387970858523105e-13
          1.0768907602548856e-13 1.3214455365293645e-13 1.1520315529458691e-13 8.913954626688627e-12 3.18342263458398e-43 4.072129631233129e-13
          1.4124557435475511e-11 1.7552918524493187e-43 2.7432142057863865e-13 1.6424207037689008e-13 1.8684944298540344e-11 1.1164280179260534e-11
          8.974094796122411e-14 1.453695902599352e-13 1.7922335354638714e-12 2.0559276577428014e-43 1.5985820421138954e-13 1.1334070015475594e-11
          7.279085884136778e-13 1.4311654964538138e-13 1.7588146734010307e-11 7.551199053330254e-14 3.4122382241946364e-13 1.343212905856187e-11
          5.328873519806667e-13 2.6380959513091117e-13 1.2140349218162803e-43 2.095523486495932e-11 9.354346561939989e-12 1.3577865023252824e-11
          9.847289574967987e-14 1.3367497746072845e-11 5.621908404274121e-13 7.434604189496834e-12 3.6950004648279776e-13 6.790050644276745e-14
          1.8750641928959844e-11 2.5649249435622205e-12 7.941186898008972e-13 1.203266565930145e-11 8.479467902150186e-14 1.1747765850536378e-13
          4.769007331391877e-12 6.316886798350949e-14 8.88372758243942e-12 4.138532864340281e-14
        </DataArray>
        <DataArray type="Float64" Name="CT2" format="ascii" RangeMin="0" RangeMax="212.96286841921057">
          0 1.722344498659896 0.43421590867519216 3.9231514973212507 7.0255344190424545 0.32371042394464744
          0.6922931574720496 1.4323053232185992 4.337019169378336 8.380255154246436 7.93456756717687 0.06509518345654895
          0.14127025665246817 0.17167121117181244 0 6.810484672220308 7.990400921831337 3.059830601874324
          10.862330035945632 11.759912315741019 0.2753078215142526 1.381049392612027 9.795498658337445 0.16883950893911748
          0.2173612305615529 11.660640040509113 11.930804755433499 2.1199188932108908 212.96286841921057 9.360244308449959
          0.44503635463769586 0.3935491030210018 3.9334957405334143 0.07347762023664946 11.13087633968103 0.13981579492407317
          11.466919391876328 9.789985366159135 0.5275029724997876 5.208229481232423 11.342885186921098 0.11000940746434654
          0.11404340943704296 0.13994184367421245 0.12200071711598681 7.981675551688048 3.371258793083154e-31 0.4312445626493653
          13.15497740638008 1.8588607751430779e-31 0.29050765867475015 0.17393307081119225 17.706009795356856 9.976906588853327
          0.09503564931817028 0.1539468185551899 1.7229130993647508 2.177234004490452e-31 0.16929077058279934 10.407488162409916
          0.7708576158811213 0.15156070395815674 16.654564496189582 0.07996728906677443 0.3613573072023252 13.020629742080184
          0.5643290398645215 0.27937515433539634 1.2856662458833882e-31 19.825210817211104 8.933518567837785 13.366021269836377
          0.10428306228081656 12.496129549844259 0.5953613290374977 7.4029579317695 0.3913009800153361 0.07190675029262403
          18.36185506295872 2.5539993572824304 0.7962290985640248 12.065853716179866 0.08979750506503197 0.12440897193596467
          4.748680181605434 0.06689585225610291 8.907297708693868 0.04382693346623943
        </DataArray>
      </PointData>
      <CellData>
        <DataArray type="UInt8" Name="vtkGhostType" format="ascii" RangeMin="0" RangeMax="0">
          0 0 0 0 0 0
          0 0 0 0 0 0
          0 0 0 0 0 0
          0 0 0 0 0 0
          0 0 0 0 0 0
          0 0 0 0 0 0
          0 0 0 0 0 0
          0 0 0 0 0 0
          0 0 0 0 0 0
          0 0 0 0 0 0
          0 0 0 0 0 0
          0 0 0 0 0 0
          0 0 0 0 0 0
          0 0 0 0 0 0
          0 0 0 0 0 0
          0 0 0 0 0 0
          0 0 0 0 0 0
          0 0 0 0 0 0
          0 0 0 0 0 0
          0 0 0 0 0 0
          0 0 0 0 0 0
          0 0 0 0 0 0
          0 0 0 0 0 0
          0 0 0 0 0 0
          0 0 0 0 0 0
          0 0 0 0 0 0
          0 0 0 0 0 0
          0 0 0 0 0 0
          0 0 0 0 0 0
          0 0 0 0 0 0
          0 0 0 0 0 0
          0 0 0 0 0 0
          0 0 0 0 0 0
          0 0 0 0 0 0
          0 0 0 0 0 0
          0 0 0 0 0 0
          0 0 0 0 0 0
          0 0 0 0 0 0
          0 0 0 0 0 0
          0 0 0 0 0
        </DataArray>
      </CellData>
      <Points>
        <DataArray type="Float32" Name="Points" NumberOfComponents="3" format="ascii" RangeMin="0" RangeMax="24.49489742783178">
          20 10 10 20 6.5 10
          16 10 10 20 10 5
          16.37211036682129 5.206768989562988 10 20 3 10
          14.333330154418945 10 5.767949104309082 17.5 2.625 10
          12 10 10 14.425399780273438 5.033590793609619 7.012404918670654
          13.360549926757812 4.658843994140625 10 20 3 5
          16.25 2.4375 7.37460994720459 15 2.25 10
          20 10 0 12.214110374450684 6.010365009307861 4.925261974334717
          14.570380210876465 5.105739116668701 2.9404709339141846 12 10 3.0717968940734863
          10 10 6.535898208618164 20 6.5 0
          16.344310760498047 2.451646089553833 3.285098075866699 16 10 0
          10.119270324707031 5.519060134887695 10 13.631239891052246 2.0446860790252686 6.215021133422852
          12.5 1.875 10 10.550640106201172 4.647356033325195 7.100153923034668
          16.37211036682129 5.206768989562988 0 8 10 10
          20 3 0 11.739009857177734 4.367464065551758 2.512845993041992
          13.663330078125 2.049499034881592 2.55780291557312 17.5 2.625 0
          12 10 0 10.661359786987305 1.5992039442062378 6.873061180114746
          9.59029769897461 6.954894065856934 2.912667989730835 10 1.5 10
          8.36054801940918 3.908843994140625 10 13.360549926757812 4.658843994140625 0
          15 2.25 0 6.61377477645874 6.690732002258301 10
          8 10 3.0717968940734863 10.999679565429688 1.6499520540237427 3.4145760536193848
          9 3 5 8 4.732050895690918 5
          8 3 6.732050895690918 10.596699714660645 5.428274154663086 0
          9 1.350000023841858 5 12.5 1.875 0
          5.6666669845581055 10 5.767949104309082 7.9958391189575195 1.1993759870529175 6.734446048736572
          7.5 1.125 10 8 3 3.267949104309082
          5.86054801940918 3.533843994140625 10 8 10 0
          6 4.732050895690918 5 6 3 6.732050895690918
          4 10 10 7.995840072631836 1.1993759870529175 3.2655539512634277
          10 1.5 0 7.719629764556885 4.535800933837891 0
          6.004158973693848 0.9006239175796509 6.734445095062256 6 3 3.267949104309082
          3.305811882019043 6.3972368240356445 10 5 3 5
          5 0.75 10 3.3605480194091797 3.158843994140625 10
          6.004159927368164 0.9006239771842957 3.2655539512634277 7.5 1.125 0
          5 0.75 5 5.535371780395508 3.26835298538208 0
          4 10 0 3.0012240409851074 5.308693885803223 3.156306028366089
          3.720721960067749 0.5581083297729492 6.921747207641602 4.087935924530029 6.566143035888672 0
          2.5 0.375 10 0 10 10
          5 0.75 0 3.3971519470214844 0.5095726847648621 3.1724090576171875
          3.3605480194091797 3.158843994140625 0 0 10 5
          0 5 10 0 4.949490070343018 5.050509929656982
          2.5 0.375 0 0 0 10
          0 10 0 0 0 5
          0 5 0 0 0 0
          <InformationKey name="L2_NORM_RANGE" location="vtkDataArray" length="2">
            <Value index="0">
              0
            </Value>
            <Value index="1">
              24.494897428
            </Value>
          </InformationKey>
        </DataArray>
      </Points>
      <Cells>
        <DataArray type="Int64" Name="connectivity" format="ascii" RangeMin="0" RangeMax="87">
          16 20 19 11 53 40
          70 73 81 63 77 71
          69 59 61 51 62 55
          52 65 66 77 69 76
          55 68 72 63 79 62
          75 80 52 55 64 65
          10 8 2 9 32 37
          21 16 47 41 30 29
          15 9 23 16 54 48
          34 40 44 42 43 25
          43 39 44 25 41 15
          23 29 62 54 81 71
          77 69 78 61 32 17
          53 34 39 54 62 48
          59 73 54 34 19 3
          21 16 11 1 4 12
          79 56 75 62 45 17
          32 34 54 59 61 73
          23 33 24 25 18 22
          39 25 23 10 24 13
          24 10 23 25 39 48
          56 27 46 42 44 33
          4 11 12 9 64 60
          52 50 40 73 54 71
          23 15 41 25 44 35
          36 50 39 18 43 48
          10 9 23 25 43 54
          39 48 23 16 30 29
          85 81 65 72 60 50
          49 55 21 17 32 16
          49 35 44 50 81 62
          79 80 39 22 36 25
          26 38 20 16 81 85
          65 80 81 63 65 72
          8 9 22 25 20 38
          30 16 46 44 49 33
          20 16 19 26 70 40
          48 73 7 4 12 13
          61 59 69 73 45 51
          58 29 52 39 36 55
          69 73 78 71 36 35
          44 25 42 15 41 29
          19 21 3 14 77 63
          61 71 78 82 77 86
          40 73 53 34 18 48
          39 27 68 61 77 63
          17 40 53 34 23 13
          12 9 49 50 44 55
          17 37 32 16 48 54
          34 43 81 77 63 85
          18 8 22 25 44 35
          49 33 36 39 44 55
          61 54 43 59 86 73
          84 71 59 45 53 34
          11 9 3 16 10 13
          23 9 52 50 60 55
          11 1 3 9 77 72
          63 85 86 81 77 71
          6 17 21 16 4 1
          11 9 54 73 61 71
          39 62 56 48 43 15
          42 29 70 48 79 71
          67 59 69 51 4 2
          3 9 37 16 17 29
          43 34 18 25 43 18
          39 25 52 62 39 55
          86 84 79 71 15 34
          17 29 12 13 4 9
          32 17 45 37 3 1
          4 9 45 34 51 29
          79 62 81 71 69 78
          61 71 45 37 17 29
          48 73 40 71 57 58
          67 51 10 2 4 9
          6 8 18 15 31 26
          20 19 67 61 57 51
          54 73 40 34 62 48
          54 71 18 27 39 22
          11 20 12 9 41 58
          57 51 56 62 79 48
          46 41 57 51 41 42
          46 33 47 37 30 38
          46 42 41 51 3 2
          4 1 43 51 59 34
          23 20 30 16 77 86
          85 81 8 15 6 9
          0 2 3 1 24 22
          10 25 41 33 23 25
          87 85 77 86 69 61
          67 51 52 60 64 55
          59 51 45 34 41 51
          42 29 39 55 62 54
          12 20 23 9 15 34
          43 25 15 16 23 29
          22 9 10 25 44 39
          43 54 44 55 39 54
          23 9 15 25 84 70
          79 71 35 33 44 25
          44 33 42 25 61 73
          69 71 84 73 70 71
          17 15 18 34 36 22
          35 25 36 50 55 44
          79 81 86 71 2 8
          6 9 18 17 6 15
          27 22 18 8 4 13
          10 9 42 51 43 29
          22 8 10 9 31 11
          28 19 15 9 8 25
          43 59 54 34 78 73
          86 71 86 77 78 71
          41 15 42 25 18 40
          17 34 54 63 81 71
          70 73 48 71 3 2
          6 9 17 34 45 29
          74 65 64 72 64 55
          60 72 64 65 55 72
          57 61 67 66 69 76
          67 66 67 61 69 66
          21 26 19 16 77 86
          82 87 24 33 35 25
          20 26 31 38 35 22
          24 25 55 68 60 72
          17 16 15 29 76 82
          77 78 77 66 69 61
          77 72 68 63 61 78
          77 71 48 40 54 71
          30 16 37 29 58 51
          41 29 61 63 54 71
          67 58 59 51 59 58
          45 51 37 26 21 16
          23 9 20 16 50 36
          55 52 43 48 18 34
          85 65 80 83 42 15
          43 25 61 59 43 51
          30 38 37 16 45 58
          47 29 43 34 15 29
          62 54 55 63 81 54
          62 63 55 72 65 63
          31 11 19 20 42 33
          41 25 3 9 6 16
          55 65 62 63 62 65
          81 63 48 40 18 34
          74 85 65 72 79 48
          62 71 11 5 1 12
          53 73 59 34 44 39
          36 25 62 80 81 65
          30 41 23 29 53 45
          32 34 3 6 21 16
          12 7 1 4 85 74
          65 83 18 15 8 25
          18 34 15 25 68 61
          66 77 6 15 17 16
          63 72 81 85 47 58
          41 29 47 37 45 29
          20 9 11 16 5 7
          1 12 69 77 78 76
          30 37 47 29 37 38
          26 16 11 3 19 16
          51 34 43 29 6 9
          15 16
        </DataArray>
        <DataArray type="Int64" Name="offsets" format="ascii" RangeMin="4" RangeMax="956">
          4 8 12 16 20 24
          28 32 36 40 44 48
          52 56 60 64 68 72
          76 80 84 88 92 96
          100 104 108 112 116 120
          124 128 132 136 140 144
          148 152 156 160 164 168
          172 176 180 184 188 192
          196 200 204 208 212 216
          220 224 228 232 236 240
          244 248 252 256 260 264
          268 272 276 280 284 288
          292 296 300 304 308 312
          316 320 324 328 332 336
          340 344 348 352 356 360
          364 368 372 376 380 384
          388 392 396 400 404 408
          412 416 420 424 428 432
          436 440 444 448 452 456
          460 464 468 472 476 480
          484 488 492 496 500 504
          508 512 516 520 524 528
          532 536 540 544 548 552
          556 560 564 568 572 576
          580 584 588 592 596 600
          604 608 612 616 620 624
          628 632 636 640 644 648
          652 656 660 664 668 672
          676 680 684 688 692 696
          700 704 708 712 716 720
          724 728 732 736 740 744
          748 752 756 760 764 768
          772 776 780 784 788 792
          796 800 804 808 812 816
          820 824 828 832 836 840
          844 848 852 856 860 864
          868 872 876 880 884 888
          892 896 900 904 908 912
          916 920 924 928 932 936
          940 944 948 952 956
        </DataArray>
        <DataArray type="UInt8" Name="types" format="ascii" RangeMin="10" RangeMax="10">
          10 10 10 10 10 10
          10 10 10 10 10 10
          10 10 10 10 10 10
          10 10 10 10 10 10
          10 10 10 10 10 10
          10 10 10 10 10 10
          10 10 10 10 10 10
          10 10 10 10 10 10
          10 10 10 10 10 10
          10 10 10 10 10 10
          10 10 10 10 10 10
          10 10 10 10 10 10
          10 10 10 10 10 10
          10 10 10 10 10 10
          10 10 10 10 10 10
          10 10 10 10 10 10
          10 10 10 10 10 10
          10 10 10 10 10 10
          10 10 10 10 10 10
          10 10 10 10 10 10
          10 10 10 10 10 10
          10 10 10 10 10 10
          10 10 10 10 10 10
          10 10 10 10 10 10
          10 10 10 10 10 10
          10 10 10 10 10 10
          10 10 10 10 10 10
          10 10 10 10 10 10
          10 10 10 10 10 10
          10 10 10 10 10 10
          10 10 10 10 10 10
          10 10 10 10 10 10
          10 10 10 10 10 10
          10 10 10 10 10 10
          10 10 10 10 10 10
          10 10 10 10 10 10
          10 10 10 10 10 10
          10 10 10 10 10 10
          10 10 10 10 10 10
          10 10 10 10 10
        </DataArray>
      </Cells>
    </Piece>
  </UnstructuredGrid>
</VTKFile>
