<?xml version="1.0"?>
<VTKFile type="UnstructuredGrid" version="0.1" byte_order="LittleEndian" header_type="UInt32" compressor="vtkZLibDataCompressor">
  <UnstructuredGrid>
    <Piece NumberOfPoints="88" NumberOfCells="239">
      <PointData>
        <DataArray type="Float64" Name="nsi_BC" NumberOfComponents="3" format="ascii" RangeMin="0" RangeMax="1">
          1 0 0 1 0 0
          1 0 0 1 0 0
          1 0 0 0 0 0
          1 0 0 0 0 0
          1 0 0 0 0 0
          1 0 0 0 0 0
          0 0 0 0 0 0
          1 0 0 0 0 0
          0 0 0 1 0 0
          1 0 0 1 0 0
          0 0 0 1 0 0
          1 0 0 0 0 0
          0 0 0 0 0 0
          1 0 0 1 0 0
          0 0 0 0 0 0
          0 0 0 0 0 0
          1 0 0 0 0 0
          0 0 0 0 0 0
          1 0 0 1 0 0
          0 0 0 1 0 0
          1 0 0 0 0 0
          0 0 0 0 0 0
          0 0 0 1 0 0
          0 0 0 0 0 0
          1 0 0 0 0 0
          0 0 0 0 0 0
          1 0 0 1 0 0
          0 0 0 0 0 0
          1 0 0 0 0 0
          0 0 0 1 0 0
          0 0 0 0 0 0
          1 0 0 0 0 0
          0 0 0 1 0 0
          0 0 0 0 0 0
          0 0 0 1 0 0
          1 0 0 0 0 0
          0 0 0 1 0 0
          0 0 0 1 0 0
          0 0 0 0 0 0
          1 0 0 1 0 0
          1 0 0 1 0 0
          0 0 0 0 0 0
          1 0 0 0 0 0
          1 0 0 0 0 0
          <InformationKey name="L2_NORM_RANGE" location="vtkDataArray" length="2">
            <Value index="0">
              0
            </Value>
            <Value index="1">
              1
            </Value>
          </InformationKey>
        </DataArray>
        <DataArray type="Float64" Name="nsi_FIXNO" NumberOfComponents="3" format="ascii" RangeMin="1.7320508075688772" RangeMax="1.7320508075688772">
          1 1 1 1 1 1
          1 1 1 1 1 1
          1 1 1 1 1 1
          1 1 1 1 1 1
          1 1 1 -1 -1 -1
          1 1 1 1 1 1
          1 1 1 1 1 1
          1 1 1 -1 -1 -1
          -1 -1 -1 1 1 1
          1 1 1 1 1 1
          1 1 1 1 1 1
          1 1 1 1 1 1
          1 1 1 -1 -1 -1
          1 1 1 1 1 1
          1 1 1 -1 -1 -1
          1 1 1 1 1 1
          1 1 1 1 1 1
          -1 -1 -1 1 1 1
          1 1 1 1 1 1
          1 1 1 1 1 1
          1 1 1 1 1 1
          1 1 1 1 1 1
          1 1 1 1 1 1
          1 1 1 1 1 1
          1 1 1 1 1 1
          1 1 1 1 1 1
          1 1 1 1 1 1
          1 1 1 1 1 1
          1 1 1 1 1 1
          1 1 1 1 1 1
          1 1 1 1 1 1
          1 1 1 1 1 1
          1 1 1 1 1 1
          1 1 1 1 1 1
          1 1 1 1 1 1
          1 1 1 -1 -1 -1
          1 1 1 1 1 1
          1 1 1 1 1 1
          1 1 1 1 1 1
          1 1 1 1 1 1
          1 1 1 1 1 1
          1 1 1 1 1 1
          1 1 1 1 1 1
          1 1 1 1 1 1
          <InformationKey name="L2_NORM_RANGE" location="vtkDataArray" length="2">
            <Value index="0">
              1.7320508076
            </Value>
            <Value index="1">
              1.7320508076
            </Value>
          </InformationKey>
        </DataArray>
        <DataArray type="Float64" Name="tem_BC" format="ascii" RangeMin="0" RangeMax="12">
          0 0 0 0 0 12
          0 12 0 0 0 12
          12 12 0 0 0 0
          0 0 12 0 0 12
          12 0 0 0 12 0
          12 12 0 12 0 12
          0 0 12 0 0 12
          12 12 12 0 12 12
          0 12 12 12 0 0
          12 12 0 12 12 0
          12 12 0 12 12 0
          12 12 12 0 0 0
          12 0 12 7.64356 12 12
          0 7.64356 8.129456 8.136573 12 12
          7.64356 12 8.129456 12
        </DataArray>
        <DataArray type="Float64" Name="tem_FIXNO" format="ascii" RangeMin="-1" RangeMax="1">
          -1 -1 -1 -1 -1 1
          -1 1 -1 -1 -1 1
          1 1 -1 -1 -1 -1
          -1 -1 1 -1 -1 1
          1 -1 -1 -1 1 -1
          1 1 -1 1 -1 1
          -1 -1 1 -1 -1 1
          1 1 1 -1 1 1
          -1 1 1 1 -1 -1
          1 1 -1 1 1 -1
          1 1 -1 1 1 -1
          1 1 1 -1 -1 -1
          1 -1 1 1 1 1
          -1 1 1 1 1 1
          1 1 1 1
        </DataArray>
        <DataArray type="Float64" Name="Velocity" NumberOfComponents="3" format="ascii" RangeMin="0" RangeMax="1.5445347125248567">
          1 0 0 1 0 0
          1 0 0 1 0 0
          1 0 0 0 0 0
          1 0 0 0 0 0
          1 0 0 1.3840445096831822 0.5155168357368523 0.4519409977883677
          1 0 0 0 0 0
          0 0 0 0 0 0
          1 0 0 1.254016022431926 0.16842705550435447 0.2150104496397775
          1.2189345769643278 0.35990400959431296 0.2713641257058482 1 0 0
          1 0 0 1 0 0
          0 0 0 1 0 0
          1 0 0 0 0 0
          0 0 0 0.8983863038809788 0.3209392388055637 -0.027725951785589568
          1 0 0 1 0 0
          0 0 0 0.9440734525156507 0.37354883889702634 0.12680846070996596
          0 0 0 0 0 0
          1 0 0 0 0 0
          0.949158323229774 -0.002570263155973319 0.13982578493862613 0 0 0
          1 0 0 1 0 0
          0 0 0 1 0 0
          1 0 0 0 0 0
          0 0 0 0 0 0
          0 0 0 1 0 0
          0 0 0 0 0 0
          1 0 0 0 0 0
          0 0 0 0 0 0
          1 0 0 1 0 0
          0 0 0 0 0 0
          1 0 0 0 0 0
          0 0 0 1 0 0
          0 0 0 0 0 0
          1 0 0 0 0 0
          0 0 0 1 0 0
          0 0 0 0 0 0
          0 0 0 1 0 0
          1 0 0 0.8235376090901371 0.05662915751076036 -0.08712495301895572
          0 0 0 1 0 0
          0 0 0 1 0 0
          0 0 0 0 0 0
          1 0 0 1 0 0
          1 0 0 1 0 0
          0 0 0 0 0 0
          1 0 0 0 0 0
          1 0 0 0 0 0
          <InformationKey name="L2_NORM_RANGE" location="vtkDataArray" length="2">
            <Value index="0">
              0
            </Value>
            <Value index="1">
              1.5445347125
            </Value>
          </InformationKey>
        </DataArray>
        <DataArray type="Float64" Name="Pressure" format="ascii" RangeMin="0" RangeMax="18.95363251966276">
          0 11.84505979636414 12.147794586558426 13.318207993632875 13.941732558432843 13.283886019580718
          15.215899153170513 14.493518020164325 15.433214506919374 15.856742093928776 15.949196487016751 15.161557076843758
          15.858336574952475 15.748876203841887 14.638602755386287 16.59274203689339 16.416454942733242 16.400533963991645
          16.765595301307684 15.390462087847755 16.36778859612603 15.765186254992331 16.87376625439553 16.808991315253344
          16.861323560046994 17.0659015196749 16.28904079547726 17.169230162022018 15.998087120752478 17.056825851352766
          16.98028323556585 16.548766575179993 16.558811521716418 17.592723654472042 17.223376288776137 17.604507263534764
          17.551294982718147 16.820768046502124 16.85184107060046 17.736493002555456 17.58759052822326 17.617488104855575
          17.711396565889693 17.74359535777125 17.807598548368993 17.21921849124082 17.849037629091658 17.2432800459209
          17.97442191401739 17.903169932195823 17.85016441023442 17.853953203282526 17.865108141751882 17.54451961173602
          18.116815433992233 17.974759304551498 18.168882660251807 17.948075055444423 17.74943587790235 17.722106692747023
          17.961686315869198 18.037834480062976 18.297319053666687 18.09429719734354 17.931477455959655 18.08724685385661
          18.0186361864712 17.96985637755513 18.014429529161244 18.0826445327312 18.438195023070218 18.4125364883252
          18.01979486261071 18.385222355268017 18.030874323303063 18.63345018816353 18.08897355393065 18.088755513960827
          18.244941569342238 18.814182647720372 18.4224215420113 18.50218465102143 18.213322536654292 18.11482838046893
          18.95363251966276 18.19299313507428 18.687837941658195 18.35822727276972
        </DataArray>
        <DataArray type="Float64" Name="DISSI_NS" format="ascii" RangeMin="0" RangeMax="10385.909132595041">
          3.34261521047383e-31 3.7419112417233014 3.722264247960441 1.8502083292016005 0.11443154364980536 305.06847639156615
          0.0954399807562758 9.6698639346491 0.1654645340645398 0.34904303950868715 0.21621654700591525 10385.909132595041
          3975.6039697328165 3275.8122990519405 0 0.1480551954164017 0.18428899050247116 0.05189285887134644
          0.10535038145915407 0.07141901106683315 570.7394267649596 0.0631565520886484 0.08150928886265352 905.3350492290197
          530.1176083874929 0.1456291880806116 0.05677355024213575 0.014363455934830356 9.84938775510204e-7 0.06795416003960601
          156.42067057552686 396.36192586002124 0.04267901847428087 625.0619108944593 0.07714368048212174 891.1882551707868
          0.14024082506914978 0.046503602682733146 176.0121736328617 0.06768336578577071 0.08780272030620057 435.59233553585204
          314.5978050783744 504.9876280010805 897.2895699837227 0.0705726586014875 32.984212751362485 159.161343982484
          0.07640935135217385 154.55766207644817 248.7782513336677 350.0333167030473 0.2669927838755553 0.009742562210010379
          1012.8952933582677 470.27452513033256 0.0038204381733355822 119.62514376112244 450.13058732365863 0.044252448692601025
          21.20753915145416 400.44781509395636 0.08616257800766174 35.80134028053302 124.926217456957 0.16338379467367928
          11.210090010544672 227.40758265095556 31.166892217488172 0.14148597622794754 0.00829135055012196 0.0702693164076778
          69.40986892334988 0.08556288773721253 1.6119116957244828 0.0019375677724335915 56.65803099935608 132.98837549173618
          0.07846219043442208 0.007955313798714475 0.03711709037014002 0.07144956610494257 122.6653447336837 43.1136374824071
          0.005267809729643345 60.615961596642016 0.032962276115627305 8.790160520207742
        </DataArray>
        <DataArray type="Float64" Name="Temperature" format="ascii" RangeMin="-1.3949940784926325" RangeMax="12.000000000000004">
          -0.3013766035692979 -0.8811614986170997 -0.8578434928035226 -1.3949940784926325 1.4790996248443729 11.999999999999998
          -0.3425587328886668 12 -0.6441608397864065 3.543071698918764 1.5480514036434934 12.000000000000002
          11.999999999999998 11.999999999999998 -0.35766129966233434 3.852676631391548 2.586236419350837 -0.00685769200558664
          1.453953217316967 -1.11219880671889 12 -1.0430685234929549 0.939822510696567 11.999999999999998
          12.000000000000002 6.443992816677041 0.11176550096744078 2.1931489777444377 12 5.294417226448814
          12.000000000000002 12 -0.9979617550608201 12.000000000000002 3.8877316148183585 12.000000000000002
          3.719037717771161 0.8998775599502493 12 2.1433586391912867 0.39761981820954595 12
          12 12.000000000000004 12.000000000000004 0.7909409326583353 12.000000000000002 12
          3.646873815569436 11.999999999999998 12.000000000000002 11.999999999999996 5.066678591773696 0.5347748378977344
          11.999999999999996 12.000000000000002 5.795068182243749 12.000000000000002 12 2.729921631676929
          11.999999999999998 12.000000000000002 4.678888840388252 12.000000000000004 12 6.441903394247614
          12.000000000000002 12 12.000000000000002 5.010454763953986 5.243836925880267 7.482019350938465
          12.000000000000002 4.164343541849456 11.999999999999998 7.64356 12 12.000000000000002
          7.072670930946867 7.643559999999999 8.129455999999998 8.136573 12 11.999999999999998
          7.643560000000001 11.999999999999998 8.129455999999998 12
        </DataArray>
        <DataArray type="Float64" Name="DISSI_TEMPE" format="ascii" RangeMin="5.804759643384037e-32" RangeMax="1.5693199054618947">
          0.0024200012168245104 0.3765688296223031 0.12404610135444655 0.6687971257880581 0.48333449585459476 0.35416393971872
          0.06884031355232735 0.37054752609125147 0.3711096976066098 0.8673631214712625 0.7685409821212307 0.20607012537838865
          0.309991397574426 0.34566823016565956 0.0030400024785194562 0.4301249697780527 0.6609721828350884 0.1723475592082566
          0.6248615041093186 0.6820899085486831 0.3090942395280414 0.09087921540870449 0.6877120836780857 0.20571789943503432
          0.25145099142932253 0.8365018293138387 0.69685866789765 0.09188871224316088 0.3669824876643199 0.46888086202303597
          0.283812620852587 0.40842442035711324 0.21703217751613185 0.07758833317656558 0.5640579151674079 0.18671860835094234
          0.7383462356141413 0.5412619935598861 0.41237665824666786 0.2336074243671566 0.6887888098188781 0.11163929441195455
          0.09494179321088393 0.1543608329341233 0.15046704689865162 0.38091502399677635 1.6916553245546798e-31 0.2903186504034141
          0.7502506963257326 3.350434410875989e-31 0.21579599656133053 0.1674459934965494 1.5693199054618947 0.3198581888891113
          0.12422210688851638 0.1529402861236946 0.0627179607280788 1.731079572273247e-31 0.18296049991128488 0.5329347558912962
          0.2711955293557651 0.13502184653455865 1.008224179005168 0.03884518373772698 0.2168231186500454 0.9217835694085739
          0.16918708976702332 0.2002717903326308 5.804759643384037e-32 1.3631381446950224 0.3203323688127995 0.7226758704418036
          0.05480956207265071 0.734311360876185 0.11461235613307592 0.13411383615029868 0.17817380319226336 0.04816775765027911
          0.9598942095621179 0.09930394124610889 0.03760374797375292 0.6531503378030421 0.05792155720898655 0.05916559439039403
          0.13496042444844739 0.0395901676312062 0.35107140347196747 0.015668751205261632
        </DataArray>
        <DataArray type="Float64" Name="CN2" format="ascii" RangeMin="0" RangeMax="2.0061545260268657e-10">
          0 1.5870880116671795e-12 5.235470459281309e-13 3.591724313758897e-12 6.293285402364498e-12 2.8613464428518163e-13
          9.7795013046684e-13 9.459746910037732e-13 4.407998779951009e-12 7.557808511294976e-12 8.086556170762588e-12 5.137064882250142e-14
          1.0643133507418698e-13 1.265920459211365e-13 0 4.965980743912603e-12 7.225378509917732e-12 2.985111241245137e-12
          8.366944392850232e-12 1.0794362662388156e-11 2.0267660327150604e-13 1.4968568930016222e-12 1.0106230798979556e-11 1.1566397995309155e-13
          1.6898917761087304e-13 9.35615997108917e-12 1.1693163651650829e-11 2.365036671477937e-12 2.0061545260268657e-10 6.873763475179938e-12
          2.865041868581621e-13 3.0241822531153435e-13 4.070928270518247e-12 4.935805590313343e-14 8.088987329155238e-12 1.055359736727467e-13
          8.696946412173617e-12 9.595839748852108e-12 4.0022975588384865e-13 3.589002632831612e-12 9.952856915653829e-12 8.010504279564175e-14
          7.592926570629088e-14 1.0543403143559099e-13 8.485322613533194e-14 5.8859206164366175e-12 2.8691155121233563e-43 2.9138151985728387e-13
          1.0831259668843192e-11 3.3958065250504195e-43 1.8662827879785768e-13 1.292339256291083e-13 1.462774905036347e-11 9.599005647958553e-12
          6.727977955812515e-14 1.0697378605735079e-13 2.3829445173636533e-12 1.910946793469421e-43 1.2985195503791274e-13 9.353593596993225e-12
          5.329154029307416e-13 9.963881815987002e-14 1.377770445134015e-11 6.410782990033475e-14 2.3591739658922836e-13 9.922658420840566e-12
          4.1118492828889434e-13 1.7846677539868094e-13 1.0032889740893185e-43 1.5714030169681016e-11 9.475251550700583e-12 1.0154129200111612e-11
          7.254190140430395e-14 1.013286194812725e-11 5.31688742927088e-13 6.223163669352339e-12 2.5232694866955173e-13 5.1328528236706506e-14
          1.307651330199156e-11 2.87765608114875e-12 6.476262589077811e-13 9.041794944098936e-12 6.340754804244996e-14 9.177791334288345e-14
          4.486997160186844e-12 5.4819220496423354e-14 6.290376695325256e-12 4.1296324438823276e-14
        </DataArray>
        <DataArray type="Float64" Name="CT2" format="ascii" RangeMin="0" RangeMax="212.45391833529624">
          0 1.3971263751026637 0.46103780171888126 3.1379306234589235 5.73440492550861 0.3030361077198506
          0.8676712526911878 1.0018274961270865 3.8936461403759624 7.095730444959649 7.375529515710161 0.05440297872017386
          0.1127122415892506 0.13406300395406043 0 4.6831987364959655 6.690201559811562 2.661491529040099
          7.620688602792041 9.469480707324285 0.21463511225693188 1.3144606259754201 9.136084422656351 0.12248741046515044
          0.17895826435932954 9.158125044396787 10.443638698323827 2.177367150553353 212.45391833529624 6.618297836082999
          0.303405050966986 0.3202606210365682 3.5771883156185242 0.0522690444148183 7.632135338027056 0.11176013914094445
          8.185735906654823 8.669641709138205 0.4238403728085355 3.301782607058851 8.926322548659893 0.08482935337925301
          0.08040715281384546 0.11165187415063364 0.08985722609246591 5.309314189126628 3.038311674990946e-31 0.3085684747583727
          10.183882650949808 3.59605857598149e-31 0.1976340315274185 0.1368550359123873 14.037856296799726 8.626253727141409
          0.07124699033269809 0.11328191027151994 2.3108762384914137 2.0236342629259672e-31 0.13750979879510722 8.678621710755218
          0.5643409742098286 0.10551427445907093 13.148413801766887 0.06788803447071168 0.24982939715473113 9.712144154643545
          0.43543166040962866 0.18899077955809754 1.0624509571020903e-31 15.068079018473515 9.116221797681757 10.087358632347037
          0.07681954680912768 9.59859320457645 0.5630412001273116 6.196461672898416 0.26720577563376435 0.05435519008866974
          12.914939593782714 2.8652984431015787 0.649325275768137 9.066418751057201 0.0671462997361013 0.09718968176556353
          4.4677160037786114 0.05805159512916293 6.306845728394477 0.04373118705488344
        </DataArray>
        <DataArray type="Float64" Name="CN2_MEAN" format="ascii" RangeMin="0" RangeMax="1.9759583116822938e-10">
          0 2.8337230415200395e-12 4.041873278546702e-13 6.2740604154060615e-12 8.582333776796997e-12 3.573982094457995e-13
          5.78486346217808e-13 1.8071460199663456e-12 3.886583749017037e-12 8.811731057981303e-12 8.313669864544923e-12 8.67657149649996e-14
          1.898449276783265e-13 2.356208352215431e-13 0 9.820246503888261e-12 8.687504760021828e-12 2.7098064921139635e-12
          2.0500009755713625e-11 1.6400348282527548e-11 3.8459870581650385e-13 1.3876642351058535e-12 9.882686337387713e-12 2.6735761221117595e-13
          2.732606679877173e-13 1.668828718782699e-11 1.3003339014854516e-11 2.5634900958576827e-12 1.9759583116822938e-10 1.3073361749663027e-11
          5.094842373094874e-13 4.739535115163505e-13 2.969949874883199e-12 1.6057470577948767e-13 1.6631512158369362e-11 2.7903956044386335e-13
          2.2943735991179148e-11 8.614599137857133e-12 6.820655767338731e-13 1.731368038485011e-11 2.112595392563926e-11 2.0703017536201766e-13
          2.6309766713793836e-13 2.2497587033839123e-13 2.3647357860038525e-13 1.4189623118534202e-11 5.844254316690753e-42 4.420937944290728e-13
          2.239468167398493e-11 1.3070230937473772e-41 7.898958750783758e-13 3.3513652458743275e-13 2.5097363512249193e-11 9.443156069351415e-12
          1.700127188661123e-13 2.5247999763361807e-13 9.428456714150497e-12 1.673503843653169e-42 3.305565470124604e-13 1.402383064247241e-11
          1.6352202463703152e-12 2.62717810748045e-13 2.7300072736497495e-11 9.563475519836396e-14 8.503924302509381e-13 2.166579991554454e-11
          8.515392906536063e-13 7.08609770503403e-13 2.4053696655572166e-42 3.0690979830653714e-11 7.3248606266675e-12 2.2400741761880603e-11
          2.0274142256337655e-13 2.172232485456597e-11 7.402036481379655e-13 1.0352572250819563e-11 8.229835848418843e-13 1.1284227743287762e-13
          3.537012283042098e-11 2.956828190657811e-12 1.2419893235390545e-12 1.969792961546598e-11 1.7003116524802874e-13 2.0375584645000497e-13
          4.4483205178099e-12 1.039144350694668e-13 1.4513761833807294e-11 4.804287133000451e-14
        </DataArray>
        <DataArray type="Float64" Name="CN2_FROM_MEAN" format="ascii" RangeMin="0" RangeMax="1.9759555697212565e-10">
          0 2.568863014468234e-12 4.100102436760974e-13 5.6993656484582485e-12 8.432426191232871e-12 3.351650759998983e-13
          6.035157375467979e-13 1.427232530308486e-12 3.908742037429933e-12 8.33925294168831e-12 8.248988227004154e-12 7.282765673637787e-14
          1.629368646166818e-13 1.9727364896649294e-13 0 8.338162656823648e-12 8.05540676133444e-12 2.577596913419406e-12
          1.9040710990744718e-11 1.5416010716684748e-11 3.1312261155112233e-13 1.3599296853043659e-12 9.831562351678027e-12 2.1041240009580945e-13
          2.480077698130715e-13 1.4840245368919134e-11 1.2851624022562439e-11 2.30946158986745e-12 1.9759555697212565e-10 1.1508292571409632e-11
          4.741870484508388e-13 4.050892577240372e-13 2.4654150209027924e-12 1.1956300502121438e-13 1.516151260203495e-11 1.8799644160148782e-13
          2.0895418563214782e-11 7.818498812101771e-12 5.808413105841416e-13 1.2082481506475405e-11 1.8947913475075937e-11 1.635269667888645e-13
          1.7521333793494713e-13 1.8595834819102593e-13 1.6786262704963007e-13 1.3600148308048558e-11 2.8926582714622304e-43 4.285467013061013e-13
          2.1629551225821664e-11 3.4266375196063216e-43 3.9504820916627083e-13 2.2631129403481207e-13 2.4928902838136756e-11 9.155198725857178e-12
          1.352033205024561e-13 2.0934232264861488e-13 5.318658309194104e-12 1.5288647627526107e-43 2.167240608483154e-13 1.3922268212188241e-11
          1.1422783967668528e-12 2.1194498749700052e-13 2.6717611792449993e-11 9.676970750482502e-14 5.312412826498121e-13 2.1453294083947622e-11
          7.596343661829291e-13 3.798427142436414e-13 2.054535118012578e-43 2.9974857495716197e-11 6.684272698218691e-12 2.149845224761358e-11
          1.5448034747509968e-13 2.1003147587147985e-11 7.241266067174352e-13 8.98142249185274e-12 5.689025050806485e-13 1.0647276620408268e-13
          3.4148017775519906e-11 2.961698293269273e-12 1.240419780157305e-12 1.986031959988315e-11 1.4106179665710204e-13 1.8484143133044613e-13
          4.058880150935989e-12 9.301978612248728e-14 1.497651324571319e-11 4.2228031084195574e-14
        </DataArray>
      </PointData>
      <CellData>
        <DataArray type="UInt8" Name="vtkGhostType" format="ascii" RangeMin="0" RangeMax="0">
          0 0 0 0 0 0
          0 0 0 0 0 0
          0 0 0 0 0 0
          0 0 0 0 0 0
          0 0 0 0 0 0
          0 0 0 0 0 0
          0 0 0 0 0 0
          0 0 0 0 0 0
          0 0 0 0 0 0
          0 0 0 0 0 0
          0 0 0 0 0 0
          0 0 0 0 0 0
          0 0 0 0 0 0
          0 0 0 0 0 0
          0 0 0 0 0 0
          0 0 0 0 0 0
          0 0 0 0 0 0
          0 0 0 0 0 0
          0 0 0 0 0 0
          0 0 0 0 0 0
          0 0 0 0 0 0
          0 0 0 0 0 0
          0 0 0 0 0 0
          0 0 0 0 0 0
          0 0 0 0 0 0
          0 0 0 0 0 0
          0 0 0 0 0 0
          0 0 0 0 0 0
          0 0 0 0 0 0
          0 0 0 0 0 0
          0 0 0 0 0 0
          0 0 0 0 0 0
          0 0 0 0 0 0
          0 0 0 0 0 0
          0 0 0 0 0 0
          0 0 0 0 0 0
          0 0 0 0 0 0
          0 0 0 0 0 0
          0 0 0 0 0 0
          0 0 0 0 0
        </DataArray>
      </CellData>
      <Points>
        <DataArray type="Float32" Name="Points" NumberOfComponents="3" format="ascii" RangeMin="0" RangeMax="24.49489742783178">
          20 10 10 20 6.5 10
          16 10 10 20 10 5
          16.37211036682129 5.206768989562988 10 20 3 10
          14.333330154418945 10 5.767949104309082 17.5 2.625 10
          12 10 10 14.425399780273438 5.033590793609619 7.012404918670654
          13.360549926757812 4.658843994140625 10 20 3 5
          16.25 2.4375 7.37460994720459 15 2.25 10
          20 10 0 12.214110374450684 6.010365009307861 4.925261974334717
          14.570380210876465 5.105739116668701 2.9404709339141846 12 10 3.0717968940734863
          10 10 6.535898208618164 20 6.5 0
          16.344310760498047 2.451646089553833 3.285098075866699 16 10 0
          10.119270324707031 5.519060134887695 10 13.631239891052246 2.0446860790252686 6.215021133422852
          12.5 1.875 10 10.550640106201172 4.647356033325195 7.100153923034668
          16.37211036682129 5.206768989562988 0 8 10 10
          20 3 0 11.739009857177734 4.367464065551758 2.512845993041992
          13.663330078125 2.049499034881592 2.55780291557312 17.5 2.625 0
          12 10 0 10.661359786987305 1.5992039442062378 6.873061180114746
          9.59029769897461 6.954894065856934 2.912667989730835 10 1.5 10
          8.36054801940918 3.908843994140625 10 13.360549926757812 4.658843994140625 0
          15 2.25 0 6.61377477645874 6.690732002258301 10
          8 10 3.0717968940734863 10.999679565429688 1.6499520540237427 3.4145760536193848
          9 3 5 8 4.732050895690918 5
          8 3 6.732050895690918 10.596699714660645 5.428274154663086 0
          9 1.350000023841858 5 12.5 1.875 0
          5.6666669845581055 10 5.767949104309082 7.9958391189575195 1.1993759870529175 6.734446048736572
          7.5 1.125 10 8 3 3.267949104309082
          5.86054801940918 3.533843994140625 10 8 10 0
          6 4.732050895690918 5 6 3 6.732050895690918
          4 10 10 7.995840072631836 1.1993759870529175 3.2655539512634277
          10 1.5 0 7.719629764556885 4.535800933837891 0
          6.004158973693848 0.9006239175796509 6.734445095062256 6 3 3.267949104309082
          3.305811882019043 6.3972368240356445 10 5 3 5
          5 0.75 10 3.3605480194091797 3.158843994140625 10
          6.004159927368164 0.9006239771842957 3.2655539512634277 7.5 1.125 0
          5 0.75 5 5.535371780395508 3.26835298538208 0
          4 10 0 3.0012240409851074 5.308693885803223 3.156306028366089
          3.720721960067749 0.5581083297729492 6.921747207641602 4.087935924530029 6.566143035888672 0
          2.5 0.375 10 0 10 10
          5 0.75 0 3.3971519470214844 0.5095726847648621 3.1724090576171875
          3.3605480194091797 3.158843994140625 0 0 10 5
          0 5 10 0 4.949490070343018 5.050509929656982
          2.5 0.375 0 0 0 10
          0 10 0 0 0 5
          0 5 0 0 0 0
          <InformationKey name="L2_NORM_RANGE" location="vtkDataArray" length="2">
            <Value index="0">
              0
            </Value>
            <Value index="1">
              24.494897428
            </Value>
          </InformationKey>
        </DataArray>
      </Points>
      <Cells>
        <DataArray type="Int64" Name="connectivity" format="ascii" RangeMin="0" RangeMax="87">
          16 20 19 11 53 40
          70 73 81 63 77 71
          69 59 61 51 62 55
          52 65 66 77 69 76
          55 68 72 63 79 62
          75 80 52 55 64 65
          10 8 2 9 32 37
          21 16 47 41 30 29
          15 9 23 16 54 48
          34 40 44 42 43 25
          43 39 44 25 41 15
          23 29 62 54 81 71
          77 69 78 61 32 17
          53 34 39 54 62 48
          59 73 54 34 19 3
          21 16 11 1 4 12
          79 56 75 62 45 17
          32 34 54 59 61 73
          23 33 24 25 18 22
          39 25 23 10 24 13
          24 10 23 25 39 48
          56 27 46 42 44 33
          4 11 12 9 64 60
          52 50 40 73 54 71
          23 15 41 25 44 35
          36 50 39 18 43 48
          10 9 23 25 43 54
          39 48 23 16 30 29
          85 81 65 72 60 50
          49 55 21 17 32 16
          49 35 44 50 81 62
          79 80 39 22 36 25
          26 38 20 16 81 85
          65 80 81 63 65 72
          8 9 22 25 20 38
          30 16 46 44 49 33
          20 16 19 26 70 40
          48 73 7 4 12 13
          61 59 69 73 45 51
          58 29 52 39 36 55
          69 73 78 71 36 35
          44 25 42 15 41 29
          19 21 3 14 77 63
          61 71 78 82 77 86
          40 73 53 34 18 48
          39 27 68 61 77 63
          17 40 53 34 23 13
          12 9 49 50 44 55
          17 37 32 16 48 54
          34 43 81 77 63 85
          18 8 22 25 44 35
          49 33 36 39 44 55
          61 54 43 59 86 73
          84 71 59 45 53 34
          11 9 3 16 10 13
          23 9 52 50 60 55
          11 1 3 9 77 72
          63 85 86 81 77 71
          6 17 21 16 4 1
          11 9 54 73 61 71
          39 62 56 48 43 15
          42 29 70 48 79 71
          67 59 69 51 4 2
          3 9 37 16 17 29
          43 34 18 25 43 18
          39 25 52 62 39 55
          86 84 79 71 15 34
          17 29 12 13 4 9
          32 17 45 37 3 1
          4 9 45 34 51 29
          79 62 81 71 69 78
          61 71 45 37 17 29
          48 73 40 71 57 58
          67 51 10 2 4 9
          6 8 18 15 31 26
          20 19 67 61 57 51
          54 73 40 34 62 48
          54 71 18 27 39 22
          11 20 12 9 41 58
          57 51 56 62 79 48
          46 41 57 51 41 42
          46 33 47 37 30 38
          46 42 41 51 3 2
          4 1 43 51 59 34
          23 20 30 16 77 86
          85 81 8 15 6 9
          0 2 3 1 24 22
          10 25 41 33 23 25
          87 85 77 86 69 61
          67 51 52 60 64 55
          59 51 45 34 41 51
          42 29 39 55 62 54
          12 20 23 9 15 34
          43 25 15 16 23 29
          22 9 10 25 44 39
          43 54 44 55 39 54
          23 9 15 25 84 70
          79 71 35 33 44 25
          44 33 42 25 61 73
          69 71 84 73 70 71
          17 15 18 34 36 22
          35 25 36 50 55 44
          79 81 86 71 2 8
          6 9 18 17 6 15
          27 22 18 8 4 13
          10 9 42 51 43 29
          22 8 10 9 31 11
          28 19 15 9 8 25
          43 59 54 34 78 73
          86 71 86 77 78 71
          41 15 42 25 18 40
          17 34 54 63 81 71
          70 73 48 71 3 2
          6 9 17 34 45 29
          74 65 64 72 64 55
          60 72 64 65 55 72
          57 61 67 66 69 76
          67 66 67 61 69 66
          21 26 19 16 77 86
          82 87 24 33 35 25
          20 26 31 38 35 22
          24 25 55 68 60 72
          17 16 15 29 76 82
          77 78 77 66 69 61
          77 72 68 63 61 78
          77 71 48 40 54 71
          30 16 37 29 58 51
          41 29 61 63 54 71
          67 58 59 51 59 58
          45 51 37 26 21 16
          23 9 20 16 50 36
          55 52 43 48 18 34
          85 65 80 83 42 15
          43 25 61 59 43 51
          30 38 37 16 45 58