<?xml version="1.0"?>
<VTKFile type="UnstructuredGrid" version="0.1" byte_order="LittleEndian" header_type="UInt32" compressor="vtkZLibDataCompressor">
  <UnstructuredGrid>
    <Piece NumberOfPoints="88" NumberOfCells="239">
      <PointData>
        <DataArray type="Float64" Name="nsi_BC" NumberOfComponents="3" format="ascii" RangeMin="0" RangeMax="1">
          1 0 0 1 0 0
          1 0 0 1 0 0
          1 0 0 0 0 0
          1 0 0 0 0 0
          1 0 0 0 0 0
          1 0 0 0 0 0
          0 0 0 0 0 0
          1 0 0 0 0 0
          0 0 0 1 0 0
          1 0 0 1 0 0
          0 0 0 1 0 0
          1 0 0 0 0 0
          0 0 0 0 0 0
          1 0 0 1 0 0
          0 0 0 0 0 0
          0 0 0 0 0 0
          1 0 0 0 0 0
          0 0 0 0 0 0
          1 0 0 1 0 0
          0 0 0 1 0 0
          1 0 0 0 0 0
          0 0 0 0 0 0
          0 0 0 1 0 0
          0 0 0 0 0 0
          1 0 0 0 0 0
          0 0 0 0 0 0
          1 0 0 1 0 0
          0 0 0 0 0 0
          1 0 0 0 0 0
          0 0 0 1 0 0
          0 0 0 0 0 0
          1 0 0 0 0 0
          0 0 0 1 0 0
          0 0 0 0 0 0
          0 0 0 1 0 0
          1 0 0 0 0 0
          0 0 0 1 0 0
          0 0 0 1 0 0
          0 0 0 0 0 0
          1 0 0 1 0 0
          1 0 0 1 0 0
          0 0 0 0 0 0
          1 0 0 0 0 0
          1 0 0 0 0 0
          <InformationKey name="L2_NORM_RANGE" location="vtkDataArray" length="2">
            <Value index="0">
              0
            </Value>
            <Value index="1">
              1
            </Value>
          </InformationKey>
        </DataArray>
        <DataArray type="Float64" Name="nsi_FIXNO" NumberOfComponents="3" format="ascii" RangeMin="1.7320508075688772" RangeMax="1.7320508075688772">
          1 1 1 1 1 1
          1 1 1 1 1 1
          1 1 1 1 1 1
          1 1 1 1 1 1
          1 1 1 -1 -1 -1
          1 1 1 1 1 1
          1 1 1 1 1 1
          1 1 1 -1 -1 -1
          -1 -1 -1 1 1 1
          1 1 1 1 1 1
          1 1 1 1 1 1
          1 1 1 1 1 1
          1 1 1 -1 -1 -1
          1 1 1 1 1 1
          1 1 1 -1 -1 -1
          1 1 1 1 1 1
          1 1 1 1 1 1
          -1 -1 -1 1 1 1
          1 1 1 1 1 1
          1 1 1 1 1 1
          1 1 1 1 1 1
          1 1 1 1 1 1
          1 1 1 1 1 1
          1 1 1 1 1 1
          1 1 1 1 1 1
          1 1 1 1 1 1
          1 1 1 1 1 1
          1 1 1 1 1 1
          1 1 1 1 1 1
          1 1 1 1 1 1
          1 1 1 1 1 1
          1 1 1 1 1 1
          1 1 1 1 1 1
          1 1 1 1 1 1
          1 1 1 1 1 1
          1 1 1 -1 -1 -1
          1 1 1 1 1 1
          1 1 1 1 1 1
          1 1 1 1 1 1
          1 1 1 1 1 1
          1 1 1 1 1 1
          1 1 1 1 1 1
          1 1 1 1 1 1
          1 1 1 1 1 1
          <InformationKey name="L2_NORM_RANGE" location="vtkDataArray" length="2">
            <Value index="0">
              1.7320508076
            </Value>
            <Value index="1">
              1.7320508076
            </Value>
          </InformationKey>
        </DataArray>
        <DataArray type="Float64" Name="tem_BC" format="ascii" RangeMin="0" RangeMax="12">
          0 0 0 0 0 12
          0 12 0 0 0 12
          12 12 0 0 0 0
          0 0 12 0 0 12
          12 0 0 0 12 0
          12 12 0 12 0 12
          0 0 12 0 0 12
          12 12 12 0 12 12
          0 12 12 12 0 0
          12 12 0 12 12 0
          12 12 0 12 12 0
          12 12 12 0 0 0
          12 0 12 7.64356 12 12
          0 7.64356 8.129456 8.136573 12 12
          7.64356 12 8.129456 12
        </DataArray>
        <DataArray type="Float64" Name="tem_FIXNO" format="ascii" RangeMin="-1" RangeMax="1">
          -1 -1 -1 -1 -1 1
          -1 1 -1 -1 -1 1
          1 1 -1 -1 -1 -1
          -1 -1 1 -1 -1 1
          1 -1 -1 -1 1 -1
          1 1 -1 1 -1 1
          -1 -1 1 -1 -1 1
          1 1 1 -1 1 1
          -1 1 1 1 -1 -1
          1 1 -1 1 1 -1
          1 1 -1 1 1 -1
          1 1 1 -1 -1 -1
          1 -1 1 1 1 1
          -1 1 1 1 1 1
          1 1 1 1
        </DataArray>
        <DataArray type="Float64" Name="Velocity" NumberOfComponents="3" format="ascii" RangeMin="0" RangeMax="1">
          1 0 0 1 0 0
          1 0 0 1 0 0
          1 0 0 0 0 0
          1 0 0 0 0 0
          1 0 0 0.7178481779772874 0.24128660972323265 0.24579046345322889
          1 0 0 0 0 0
          0 0 0 0 0 0
          1 0 0 0.5795486380792526 0.04801437307941229 0.03158205652907999
          0.6206866531416394 0.1878775257930085 0.070085085957091 1 0 0
          1 0 0 1 0 0
          0 0 0 1 0 0
          1 0 0 0 0 0
          0 0 0 0.49725481990156667 0.02477976787394515 -0.02275069104719543
          1 0 0 1 0 0
          0 0 0 0.3768105994209501 0.10864095878755912 -0.05059857463307267
          0 0 0 0 0 0
          1 0 0 0 0 0
          0.6497521699738732 -0.05091353802604471 0.03864857884729999 0 0 0
          1 0 0 1 0 0
          0 0 0 1 0 0
          1 0 0 0 0 0
          0 0 0 0 0 0
          0 0 0 1 0 0
          0 0 0 0 0 0
          1 0 0 0 0 0
          0 0 0 0 0 0
          1 0 0 1 0 0
          0 0 0 0 0 0
          1 0 0 0 0 0
          0 0 0 1 0 0
          0 0 0 0 0 0
          1 0 0 0 0 0
          0 0 0 1 0 0
          0 0 0 0 0 0
          0 0 0 1 0 0
          1 0 0 0.7513844943832821 0.024568170854622453 -0.11487939672553238
          0 0 0 1 0 0
          0 0 0 1 0 0
          0 0 0 0 0 0
          1 0 0 1 0 0
          1 0 0 1 0 0
          0 0 0 0 0 0
          1 0 0 0 0 0
          1 0 0 0 0 0
          <InformationKey name="L2_NORM_RANGE" location="vtkDataArray" length="2">
            <Value index="0">
              0
            </Value>
            <Value index="1">
              1
            </Value>
          </InformationKey>
        </DataArray>
        <DataArray type="Float64" Name="Pressure" format="ascii" RangeMin="0" RangeMax="11.498911311975592">
          0 8.471893339977669 8.431494828804293 9.062586103026753 9.374985855314176 9.172554346452877
          9.870580093890142 9.700217275550466 10.08677451981612 10.225123952306218 10.314784538475827 9.91000269562223
          10.188718755035737 10.215132932646538 9.722717030003828 10.647410270807207 10.38107795085437 10.444036510846741
          10.672904475179351 9.897169056297907 10.327419251269971 10.103675257345119 10.724683694228602 10.626507475376657
          10.730769577488315 10.831280322833013 10.253796568360922 10.835197313946672 10.154123125287276 10.822268875982118
          10.678639027594468 10.322586946246476 10.556356903765577 10.974360765866598 10.867446990496921 10.97566729438263
          10.932223329870448 10.567997666384848 10.56850651650617 11.024660748997274 11.038869604901635 10.9768806956327
          10.988682356602832 11.007023919354722 10.996354891305922 10.851405857078081 10.996576953073404 10.821382467434985
          11.125540083483562 11.000162296771503 10.99159466466286 11.001952524715623 10.980228490270779 11.02516093664163
          11.132283493520825 11.00813961914832 11.181941165877365 11.003833515356737 10.992186031599939 10.97652781909872
          10.99947449567166 11.019565341889177 11.22500934938534 11.025105763852508 10.993845845662433 11.045703929886406
          11.00668008768288 11.005597092925303 11.003165084397017 11.045227817320255 11.29812495664274 11.213534252972886
          10.999416645767777 11.246360658676297 11.032927370402192 11.310706103683119 11.05320743108319 11.010919625755786
          11.082807322157494 11.390604307864589 11.185609564485697 11.166879035402781 11.07779561017182 11.028506710506427
          11.498911311975592 11.014890936379102 11.296219705596078 11.143731723998064
        </DataArray>
        <DataArray type="Float64" Name="DISSI_NS" format="ascii" RangeMin="0" RangeMax="2625.1393901866254">
          0 2.0574170211063114 2.0208203199111177 0.9648463166959854 0.06168428414467892 157.92322237215615
          0.037340566404258355 0.9996279379369017 0.06714597311621713 0.07823963273318706 0.10274705355463319 2625.1393901866254
          1169.0815724393742 752.7378780835137 0 0.02618865440557442 0.03186189626399562 0.031429332279586934
          0.05047976715342913 0.020690130694925875 105.46125067904009 0.01416919089255576 0.06756593119958208 209.7679274410762
          283.0783080460351 0.04241905181080544 0.04700552404989042 0.004311559229082111 9.84938775510204e-7 0.01502168334417025
          62.639105856234416 65.4634842719376 0.047362468959618056 256.1370503522366 0.025478166789894077 203.56565980330612
          0.05936050302253546 0.060153951639622366 22.1816427487789 0.01325061759741732 0.043727274906778885 232.42906275758736
          95.8007679385964 181.91439863088203 155.37902718309905 0.027205713816738166 0.3726035186133154 115.92321993359656
          0.05760105004359645 1.9215726061408251 15.394291291656051 59.91561181185093 0.267613981236012 0.009156381869157917
          263.01917509872334 139.93747290844058 0.0005889585861561688 1.539654922065249 90.46405368200502 0.03461837460612685
          4.022005571951567 86.86844426022758 0.07814652968994668 82.15759590048629 22.692052486298515 0.16273811281658054
          9.182528568758379 17.425771795823938 0.8319161895647955 0.12586697376951705 0.011524063283848704 0.05563888967507966
          29.168676714641336 0.06389725441030246 6.731809187968103 0.0005960939723542556 9.932983952056269 93.76509359820741
          0.07345271900296428 0.01229598589186048 0.036238200859599654 0.07266010793163383 60.669297021762645 36.85490448595737
          0.011119164385194462 69.36385788722569 0.039459056664772736 12.53200500505512
        </DataArray>
        <DataArray type="Float64" Name="Temperature" format="ascii" RangeMin="-1.2212723618931003" RangeMax="12.000000000000005">
          0.5340269162814869 -1.197340308779484 -0.07313713400247533 -0.7670077111872573 0.2398528213098933 11.999999999999998
          -0.4403778928302409 12 -0.43464821965357786 0.918609579355672 0.07861243405310325 12.000000000000002
          11.999999999999996 12.000000000000002 0.42405625794291313 0.5917424726931 0.7485960312717441 -0.216593577676501
          0.47434026386300077 -0.9658695842570446 11.999999999999998 -0.11802453030851405 -0.6081273483743004 11.999999999999998
          12.000000000000002 2.9338559574853393 -0.17766922203384575 0.7146468559976145 12 2.014637728172912
          12 12 -0.4692581047475065 12.000000000000002 1.9190308080684204 12.000000000000002
          1.7029452049245506 -0.029549493553147895 11.999999999999998 0.27799328880058216 -1.2212723618931003 12
          12.000000000000002 12.000000000000002 12.000000000000002 -0.30875622146166076 12.000000000000002 12
          1.548069072790198 11.999999999999998 12.000000000000002 12 2.0257124482866082 -0.1855584910003002
          11.999999999999996 12.000000000000002 3.3830641328338844 12.000000000000002 12.000000000000004 0.7903888490554405
          11.999999999999998 12.000000000000005 2.6694505361674308 12 12 3.8142550856176713
          12.000000000000002 12 12.000000000000002 1.8844859902701416 3.428481408375041 4.623337723459414
          12.000000000000002 1.2422706943669275 11.999999999999998 7.64356 12 12
          4.674934308856904 7.643559999999999 8.129455999999998 8.136573 12 11.999999999999998
          7.64356 11.999999999999998 8.129456000000001 12
        </DataArray>
        <DataArray type="Float64" Name="DISSI_TEMPE" format="ascii" RangeMin="8.477906658246357e-32" RangeMax="3.139044807107119">
          0.00857824692911143 0.6220215137146365 0.06644995256735112 1.0735998409230303 0.6255709101052019 0.37176381896864175
          0.016260053343295017 0.434638346558916 0.23481069747330868 0.6546009857975129 0.6193918800667685 0.2481667973579186
          0.42544866016591465 0.46725936033090015 0.005953620550184479 0.6357212483482291 0.4868236874664413 0.12545424203968758
          1.5218450941779345 0.8629739975897128 0.39978736532641607 0.05251567354056213 0.5964743487488439 0.3381516054849504
          0.3549592771209881 1.1832909607273603 0.7629974177444341 0.06802765248637951 0.3588373060096779 0.7066400225386653
          0.4183242433398064 0.41170844767560083 0.10461418620706284 0.20659321519621154 1.0745273929143717 0.31111725562821335
          1.8213408870434304 0.43129142363317474 0.4792632142390773 0.7696390336818979 1.2734691582485067 0.25450807174315593
          0.22579140964038674 0.26522250997101654 0.27275381838067847 0.9490638811843821 8.477906658246357e-32 0.4082812633050495
          1.6546741853910578 2.1644721732457854e-31 0.38574537406094767 0.26324398673303157 3.139044807107119 0.3231178940900778
          0.2332838285922088 0.2865400019707497 0.08733313426706601 8.598154134534879e-32 0.2774310962200804 0.8375347838776043
          0.561259400866336 0.26758092651701715 2.224588823656153 0.08057632855360139 0.4539196926773285 2.394896797585566
          0.35436048870133663 0.36697289128150584 1.8129527640303637e-31 3.0048291736595023 0.21664900970520148 1.804060497699127
          0.11528227661511078 1.6786197478727134 0.24859687926907406 0.16891314357884868 0.37520630301141805 0.11056731291284586
          2.9585717924276156 0.10803199124946501 0.0849749815945154 1.7803002864769086 0.13264770023729536 0.13486440453760415
          0.1735304666074025 0.07850781861180613 1.1260864470502594 0.0156687512052616
        </DataArray>
        <DataArray type="Float64" Name="CN2" format="ascii" RangeMin="0" RangeMax="1.961398666839499e-10">
          0 3.214708875393441e-12 3.398305351628201e-13 7.0967336065700515e-12 1.0190142155296087e-11 3.7403705608975946e-13
          3.16243952120718e-13 2.3640101447247532e-12 3.755235379914707e-12 9.753549440426109e-12 8.531733404738993e-12 9.783527416208967e-14
          2.1963618375176892e-13 2.7934998336120913e-13 0 1.370778800265541e-11 9.8104466490136e-12 2.575812464073049e-12
          2.6412842118041987e-11 2.0593084661304375e-11 4.601904806368336e-13 1.4041633863857676e-12 9.543757614154515e-12 3.0950943605621787e-13
          2.940036411432838e-13 2.0998000075121316e-11 1.3690878854546999e-11 2.6715763763924755e-12 1.961398666839499e-10 1.7962173588007215e-11
          5.728493698425357e-13 5.55558208861664e-13 1.8804550973514435e-12 1.769173438114651e-13 2.29350158161476e-11 2.8763016380032186e-13
          2.941680008069898e-11 7.112697750216055e-12 9.27650734695318e-13 2.0922275219744215e-11 2.376967009698028e-11 2.2512130408616267e-13
          2.683673634987105e-13 2.545658424848368e-13 2.75921401888097e-13 2.047416737084406e-11 6.4074466198889086e-43 4.553861309386072e-13
          2.7055355192493684e-11 9.468440514530578e-43 8.433207766119339e-13 3.6586752008319726e-13 3.054636686673782e-11 1.0003097684958072e-11
          1.980167944397587e-13 3.0015992006537965e-13 6.40623691063362e-12 4.0495755686916435e-43 3.3610509939032646e-13 1.640772511000595e-11
          1.9193821320784873e-12 3.2858420890359617e-13 3.2326186070754013e-11 1.0080231325669785e-13 8.719664145828174e-13 2.6804112690893093e-11
          9.203152820772196e-13 7.698073816215005e-13 1.0483477579787834e-42 3.7676728984051484e-11 5.893718915437815e-12 2.8541061535792216e-11
          2.0367403942352644e-13 2.6632491196262785e-11 7.160292093192842e-13 1.160873448392367e-11 9.492691985454853e-13 1.3236053054339e-13
          4.2635125168069676e-11 2.707228832098278e-12 1.4749953302165982e-12 2.4504108550958455e-11 1.8359300318116305e-13 2.2039980361202984e-13
          4.496897575110294e-12 1.0391558165846958e-13 1.8999648576065894e-11 3.668660239249309e-14
        </DataArray>
        <DataArray type="Float64" Name="CT2" format="ascii" RangeMin="0" RangeMax="207.73850052586567">
          0 2.8170017259003677 0.3027433358322458 6.258143838049709 9.119566312759522 0.3961633284940986
          0.2802103347925772 2.503827441100142 3.327619836715897 8.815701381798428 7.617249814249658 0.10362122049785658
          0.23262409972337586 0.29586884524619855 0 12.330617218731218 8.845118289081276 2.289792434676341
          23.718496235275097 18.106414110492526 0.4874019275878279 1.250056778869363 8.43538675790569 0.3278090264858297
          0.3113858099665837 19.543111574629815 12.177624694517545 2.4074827410842716 207.73850052586567 16.49609619265201
          0.6067181694818429 0.588408885987476 1.6654628634983903 0.1873761897262285 21.033776234200598 0.3046340261162623
          26.89353323903652 6.340233484799758 0.982498759487933 18.734014936285952 20.82060974014589 0.23842981785391373
          0.284232390867355 0.26961486881212643 0.2922329552092992 18.175982140092195 6.786233470646898e-31 0.48230872830964044
          24.678845631348672 1.002818238517434e-30 0.8931751742072755 0.38749634464336663 28.057592196814323 8.896288551953276
          0.20972231702994557 0.31790429884672083 6.001225476178717 4.288972333050798e-31 0.3559745419243531 14.802092434956093
          2.032849477433478 0.348008850259695 29.97107603771532 0.10676134854530109 0.9235142080993709 25.266564503137225
          0.9747210518392329 0.8153156766937348 1.110322430886925e-30 34.53597121828362 5.52472476416473 27.219538799658242
          0.2157145563502306 24.185073539095026 0.7583579141985293 11.560617118180435 1.005385685525298 0.14018520297089426
          40.69133797318298 2.6960032565466796 1.4790789398542725 24.574445789299386 0.1944460927239987 0.2334289550726667
          4.4782414048708175 0.11005868358126265 19.052208056239152 0.03885527749310955
        </DataArray>
      </PointData>
      <CellData>
        <DataArray type="UInt8" Name="vtkGhostType" format="ascii" RangeMin="0" RangeMax="0">
          0 0 0 0 0 0
          0 0 0 0 0 0
          0 0 0 0 0 0
          0 0 0 0 0 0
          0 0 0 0 0 0
          0 0 0 0 0 0
          0 0 0 0 0 0
          0 0 0 0 0 0
          0 0 0 0 0 0
          0 0 0 0 0 0
          0 0 0 0 0 0
          0 0 0 0 0 0
          0 0 0 0 0 0
          0 0 0 0 0 0
          0 0 0 0 0 0
          0 0 0 0 0 0
          0 0 0 0 0 0
          0 0 0 0 0 0
          0 0 0 0 0 0
          0 0 0 0 0 0
          0 0 0 0 0 0
          0 0 0 0 0 0
          0 0 0 0 0 0
          0 0 0 0 0 0
          0 0 0 0 0 0
          0 0 0 0 0 0
          0 0 0 0 0 0
          0 0 0 0 0 0
          0 0 0 0 0 0
          0 0 0 0 0 0
          0 0 0 0 0 0
          0 0 0 0 0 0
          0 0 0 0 0 0
          0 0 0 0 0 0
          0 0 0 0 0 0
          0 0 0 0 0 0
          0 0 0 0 0 0
          0 0 0 0 0 0
          0 0 0 0 0 0
          0 0 0 0 0
        </DataArray>
      </CellData>
      <Points>
        <DataArray type="Float32" Name="Points" NumberOfComponents="3" format="ascii" RangeMin="0" RangeMax="24.49489742783178">
          20 10 10 20 6.5 10
          16 10 10 20 10 5
          16.37211036682129 5.206768989562988 10 20 3 10
          14.333330154418945 10 5.767949104309082 17.5 2.625 10
          12 10 10 14.425399780273438 5.033590793609619 7.012404918670654
          13.360549926757812 4.658843994140625 10 20 3 5
          16.25 2.4375 7.37460994720459 15 2.25 10
          20 10 0 12.214110374450684 6.010365009307861 4.925261974334717
          14.570380210876465 5.105739116668701 2.9404709339141846 12 10 3.0717968940734863
          10 10 6.535898208618164 20 6.5 0
          16.344310760498047 2.451646089553833 3.285098075866699 16 10 0
          10.119270324707031 5.519060134887695 10 13.631239891052246 2.0446860790252686 6.215021133422852
          12.5 1.875 10 10.550640106201172 4.647356033325195 7.100153923034668
          16.37211036682129 5.206768989562988 0 8 10 10
          20 3 0 11.739009857177734 4.367464065551758 2.512845993041992
          13.663330078125 2.049499034881592 2.55780291557312 17.5 2.625 0
          12 10 0 10.661359786987305 1.5992039442062378 6.873061180114746
          9.59029769897461 6.954894065856934 2.912667989730835 10 1.5 10
          8.36054801940918 3.908843994140625 10 13.360549926757812 4.658843994140625 0
          15 2.25 0 6.61377477645874 6.690732002258301 10
          8 10 3.0717968940734863 10.999679565429688 1.6499520540237427 3.4145760536193848
          9 3 5 8 4.732050895690918 5
          8 3 6.732050895690918 10.596699714660645 5.428274154663086 0
          9 1.350000023841858 5 12.5 1.875 0
          5.6666669845581055 10 5.767949104309082 7.9958391189575195 1.1993759870529175 6.734446048736572
          7.5 1.125 10 8 3 3.267949104309082
          5.86054801940918 3.533843994140625 10 8 10 0
          6 4.732050895690918 5 6 3 6.732050895690918
          4 10 10 7.995840072631836 1.1993759870529175 3.2655539512634277
          10 1.5 0 7.719629764556885 4.535800933837891 0
          6.004158973693848 0.9006239175796509 6.734445095062256 6 3 3.267949104309082
          3.305811882019043 6.3972368240356445 10 5 3 5
          5 0.75 10 3.3605480194091797 3.158843994140625 10
          6.004159927368164 0.9006239771842957 3.2655539512634277 7.5 1.125 0
          5 0.75 5 5.535371780395508 3.26835298538208 0
          4 10 0 3.0012240409851074 5.308693885803223 3.156306028366089
          3.720721960067749 0.5581083297729492 6.921747207641602 4.087935924530029 6.566143035888672 0
          2.5 0.375 10 0 10 10
          5 0.75 0 3.3971519470214844 0.5095726847648621 3.1724090576171875
          3.3605480194091797 3.158843994140625 0 0 10 5
          0 5 10 0 4.949490070343018 5.050509929656982
          2.5 0.375 0 0 0 10
          0 10 0 0 0 5
          0 5 0 0 0 0
          <InformationKey name="L2_NORM_RANGE" location="vtkDataArray" length="2">
            <Value index="0">
              0
            </Value>
            <Value index="1">
              24.494897428
            </Value>
          </InformationKey>
        </DataArray>
      </Points>
      <Cells>
        <DataArray type="Int64" Name="connectivity" format="ascii" RangeMin="0" RangeMax="87">
          16 20 19 11 53 40
          70 73 81 63 77 71
          69 59 61 51 62 55
          52 65 66 77 69 76
          55 68 72 63 79 62
          75 80 52 55 64 65
          10 8 2 9 32 37
          21 16 47 41 30 29
          15 9 23 16 54 48
          34 40 44 42 43 25
          43 39 44 25 41 15
          23 29 62 54 81 71
          77 69 78 61 32 17
          53 34 39 54 62 48
          59 73 54 34 19 3
          21 16 11 1 4 12
          79 56 75 62 45 17
          32 34 54 59 61 73
          23 33 24 25 18 22
          39 25 23 10 24 13
          24 10 23 25 39 48
          56 27 46 42 44 33
          4 11 12 9 64 60
          52 50 40 73 54 71
          23 15 41 25 44 35
          36 50 39 18 43 48
          10 9 23 25 43 54
          39 48 23 16 30 29
          85 81 65 72 60 50
          49 55 21 17 32 16
          49 35 44 50 81 62
          79 80 39 22 36 25
          26 38 20 16 81 85
          65 80 81 63 65 72
          8 9 22 25 20 38
          30 16 46 44 49 33
          20 16 19 26 70 40
          48 73 7 4 12 13
          61 59 69 73 45 51
          58 29 52 39 36 55
          69 73 78 71 36 35
          44 25 42 15 41 29
          19 21 3 14 77 63
          61 71 78 82 77 86
          40 73 53 34 18 48
          39 27 68 61 77 63
          17 40 53 34 23 13
          12 9 49 50 44 55
          17 37 32 16 48 54
          34 43 81 77 63 85
          18 8 22 25 44 35
          49 33 36 39 44 55
          61 54 43 59 86 73
          84 71 59 45 53 34
          11 9 3 16 10 13
          23 9 52 50 60 55
          11 1 3 9 77 72
          63 85 86 81 77 71
          6 17 21 16 4 1
          11 9 54 73 61 71
          39 62 56 48 43 15
          42 29 70 48 79 71
          67 59 69 51 4 2
          3 9 37 16 17 29
          43 34 18 25 43 18
          39 25 52 62 39 55
          86 84 79 71 15 34
          17 29 12 13 4 9
          32 17 45 37 3 1
          4 9 45 34 51 29
          79 62 81 71 69 78
          61 71 45 37 17 29
          48 73 40 71 57 58
          67 51 10 2 4 9
          6 8 18 15 31 26
          20 19 67 61 57 51
          54 73 40 34 62 48
          54 71 18 27 39 22
          11 20 12 9 41 58
          57 51 56 62 79 48
          46 41 57 51 41 42
          46 33 47 37 30 38
          46 42 41 51 3 2
          4 1 43 51 59 34
          23 20 30 16 77 86
          85 81 8 15 6 9
          0 2 3 1 24 22
          10 25 41 33 23 25
          87 85 77 86 69 61
          67 51 52 60 64 55
          59 51 45 34 41 51
          42 29 39 55 62 54
          12 20 23 9 15 34
          43 25 15 16 23 29
          22 9 10 25 44 39
          43 54 44 55 39 54
          23 9 15 25 84 70
          79 71 35 33 44 25
          44 33 42 25 61 73
          69 71 84 73 70 71
          17 15 18 34 36 22
          35 25 36 50 55 44
          79 81 86 71 2 8
          6 9 18 17 6 15
          27 22 18 8 4 13
          10 9 42 51 43 29
          22 8 10 9 31 11
          28 19 15 9 8 25
          43 59 54 34 78 73
          86 71 86 77 78 71
          41 15 42 25 18 40
          17 34 54 63 81 71
          70 73 48 71 3 2
          6 9 17 34 45 29
          74 65 64 72 64 55
          60 72 64 65 55 72
          57 61 67 66 69 76
          67 66 67 61 69 66
          21 26 19 16 77 86
          82 87 24 33 35 25
          20 26 31 38 35 22
          24 25 55 68 60 72
          17 16 15 29 76 82
          77 78 77 66 69 61
          77 72 68 63 61 78
          77 71 48 40 54 71
          30 16 37 29 58 51
          41 29 61 63 54 71
          67 58 59 51 59 58
          45 51 37 26 21 16
          23 9 20 16 50 36
          55 52 43 48 18 34
          85 65 80 83 42 15
          43 25 61 59 43 51
          30 38 37 16 45 58
          47 29 43 34 15 29
          62 54 55 63 81 54
          62 63 55 72 65 63
          31 11 19 20 42 33
          41 25 3 9 6 16
          55 65 62 63 62 65
          81 63 48 40 18 34
          74 85 65 72 79 48
          62 71 11 5 1 12
          53 73 59 34 44 39
          36 25 62 80 81 65
          30 41 23 29 53 45
          32 34 3 6 21 16
          12 7 1 4 85 74
          65 83 18 15 8 25
          18 34 15 25 68 61
          66 77 6 15 17 16
          63 72 81 85 47 58
          41 29 47 37 45 29
          20 9 11 16 5 7
          1 12 69 77 78 76
          30 37 47 29 37 38
          26 16 11 3 19 16
          51 34 43 29 6 9
          15 16
        </DataArray>
        <DataArray type="Int64" Name="offsets" format="ascii" RangeMin="4" RangeMax="956">
          4 8 12 16 20 24
          28 32 36 40 44 48
          52 56 60 64 68 72
          76 80 84 88 92 96
          100 104 108 112 116 120
          124 128 132 136 140 144
          148 152 156 160 164 168
          172 176 180 184 188 192
          196 200 204 208 212 216
          220 224 228 232 236 240
          244 248 252 256 260 264
          268 272 276 280 284 288
          292 296 300 304 308 312
          316 320 324 328 332 336
          340 344 348 352 356 360
          364 368 372 376 380 384
          388 392 396 400 404 408
          412 416 420 424 428 432
          436 440 444 448 452 456
          460 464 468 472 476 480
          484 488 492 496 500 504
          508 512 516 520 524 528
          532 536 540 544 548 552
          556 560 564 568 572 576
          580 584 588 592 596 600
          604 608 612 616 620 624
          628 632 636 640 644 648
          652 656 660 664 668 672
          676 680 684 688 692 696
          700 704 708 712 716 720
          724 728 732 736 740 744
          748 752 756 760 764 768
          772 776 780 784 788 792
          796 800 804 808 812 816
          820 824 828 832 836 840
          844 848 852 856 860 864
          868 872 876 880 884 888
          892 896 900 904 908 912
          916 920 924 928 932 936
          940 944 948 952 956
        </DataArray>
        <DataArray type="UInt8" Name="types" format="ascii" RangeMin="10" RangeMax="10">
          10 10 10 10 10 10
          10 10 10 10 10 10
          10 10 10 10 10 10
          10 10 10 10 10 10
          10 10 10 10 10 10
          10 10 10 10 10 10
          10 10 10 10 10 10
          10 10 10 10 10 10
          10 10 10 10 10 10
          10 10 10 10 10 10
          10 10 10 10 10 10
          10 10 10 10 10 10
          10 10 10 10 10 10
          10 10 10 10 10 10
          10 10 10 10 10 10
          10 10 10 10 10 10
          10 10 10 10 10 10
          10 10 10 10 10 10
          10 10 10 10 10 10
          10 10 10 10 10 10
          10 10 10 10 10 10
          10 10 10 10 10 10
          10 10 10 10 10 10
          10 10 10 10 10 10
          10 10 10 10 10 10
          10 10 10 10 10 10
          10 10 10 10 10 10
          10 10 10 10 10 10
          10 10 10 10 10 10
          10 10 10 10 10 10
          10 10 10 10 10 10
          10 10 10 10 10 10
          10 10 10 10 10 10
          10 10 10 10 10 10
          10 10 10 10 10 10
          10 10 10 10 10 10
          10 10 10 10 10 10
          10 10 10 10 10 10
          10 10 10 10 10 10
          10 10 10 10 10
        </DataArray>
      </Cells>
    </Piece>
  </UnstructuredGrid>
</VTKFile>
