<?xml version="1.0"?>
<VTKFile type="UnstructuredGrid" version="0.1" byte_order="LittleEndian" header_type="UInt32" compressor="vtkZLibDataCompressor">
  <UnstructuredGrid>
    <Piece NumberOfPoints="88" NumberOfCells="140">
      <PointData>
        <DataArray type="Float64" Name="ale_BC" NumberOfComponents="3" format="ascii" RangeMin="0" RangeMax="1">
          0 0 0 0 0 0
          0 0 0 0 0 0
          0 0 0 0 0 0
          0 0 0 0 1 0
          0 0 0 0 0 0
          0 0 0 0 1 0
          0 1 0 0 0 0
          0 0 0 0 0 0
          0 0 0 0 1 0
          0 0 0 0 0 0
          0 0 0 0 1 0
          0 0 0 0 1 0
          0 0 0 0 0 0
          0 0 0 0 1 0
          0 0 0 0 0 0
          0 0 0 0 1 0
          0 1 0 0 0 0
          0 0 0 0 0 0
          0 1 0 0 0 0
          0 0 0 0 1 0
          0 0 0 0 0 0
          0 1 0 0 1 0
          0 1 0 0 0 0
          0 0 0 0 0 0
          0 0 0 0 0 0
          0 0 0 0 0 0
          0 0 0 0 0 0
          0 0 0 0 0 0
          0 0 0 0 0 0
          0 0 0 0 0 0
          0 0 0 0 0 0
          0 0 0 0 0 0
          0 0 0 0 0 0
          0 0 0 0 0 0
          0 0 0 0 0 0
          0 0 0 0 0 0
          0 0 0 0 0 0
          0 0 0 0 0 0
          0 0 0 0 0 0
          0 0 0 0 0 0
          0 0 0 0 1 0
          0 0 0 0 1 0
          0 0 0 0 0 0
          0 0 0 0 0 0
          <InformationKey name="L2_NORM_RANGE" location="vtkDataArray" length="2">
            <Value index="0">
              0
            </Value>
            <Value index="1">
              1
            </Value>
          </InformationKey>
        </DataArray>
        <DataArray type="Float64" Name="ale_FIXNO" NumberOfComponents="3" format="ascii" RangeMin="1.4142135623730951" RangeMax="1.4142135623730951">
          -1 -1 0 -1 -1 0
          -1 -1 0 -1 -1 0
          -1 -1 0 -1 -1 0
          -1 -1 0 1 1 0
          -1 -1 0 -1 -1 0
          -1 -1 0 1 1 0
          1 1 0 -1 -1 0
          -1 -1 0 -1 -1 0
          -1 -1 0 1 1 0
          -1 -1 0 -1 -1 0
          -1 -1 0 1 1 0
          -1 -1 0 1 1 0
          -1 -1 0 -1 -1 0
          -1 -1 0 1 1 0
          -1 -1 0 -1 -1 0
          -1 -1 0 1 1 0
          1 1 0 -1 -1 0
          -1 -1 0 -1 -1 0
          1 1 0 -1 -1 0
          -1 -1 0 1 1 0
          -1 -1 0 -1 -1 0
          1 1 0 1 1 0
          1 1 0 -1 -1 0
          -1 -1 0 -1 -1 0
          -1 -1 0 -1 -1 0
          -1 -1 0 -1 -1 0
          -1 -1 0 1 1 0
          -1 -1 0 -1 -1 0
          -1 -1 0 -1 -1 0
          -1 -1 0 -1 -1 0
          -1 -1 0 -1 -1 0
          -1 -1 0 -1 -1 0
          -1 -1 0 -1 -1 0
          -1 -1 0 1 1 0
          -1 -1 0 -1 -1 0
          1 1 0 1 1 0
          1 1 0 1 1 0
          -1 -1 0 -1 -1 0
          -1 -1 0 -1 -1 0
          -1 -1 0 -1 -1 0
          1 1 0 1 1 0
          -1 -1 0 1 1 0
          -1 -1 0 -1 -1 0
          -1 -1 0 1 1 0
          <InformationKey name="L2_NORM_RANGE" location="vtkDataArray" length="2">
            <Value index="0">
              1.4142135624
            </Value>
            <Value index="1">
              1.4142135624
            </Value>
          </InformationKey>
        </DataArray>
        <DataArray type="Float64" Name="Density" format="ascii" RangeMin="1.0000000000000113" RangeMax="1.029449491963914">
          1.0015838232087246 1.0026907764158624 1.0007466655827637 1.005716030365867 1.0037986220704114 1.0080587875622606
          1.0088862226635333 1.0095322917375344 1.0021802916030809 1.010137653556053 1.0118957873307697 1.013768797153056
          1.0177308234878926 1.014775268336716 1.008147811406571 1.0116943055798457 1.0008985234862922 1.0215620364507032
          1.0174296791255095 1.004950649583246 1.0139477965249837 1.0245432268248365 1.0193772194564035 1.026784783436466
          1.015684406753036 1.0100094994613553 1.020726338532767 1.0282726789296388 1.0024689376588052 1.0160413056086777
          1.0218856092005089 1.029181579229996 1.029449491963914 1.0223545783684655 1.010966269643571 1.0166020860620282
          1.029050174543192 1.0225012163138802 1.0172251020311993 1.0278448544003254 1.0059631236556195 1.0221729313931394
          1.025925575050288 1.0233697633535064 1.0202977948257872 1.0210197326669648 1.0173769179466539 1.010950152349071
          1.0196322037338963 1.0177530592124504 1.0168714629369402 1.0012915359324033 1.016940066389796 1.0002808262681147
          1.0154332520576728 1.0124869562400378 1.0034848232780904 1.0139609690804454 1.0063878038732041 1.0131191184919726
          1.0121058643712315 1.0088231968304986 1.0123849903636546 1.0128268001414356 1.006730151995287 1.014084209295473
          1.0095284335463908 1.0013199784996134 1.00661055719397 1.0097386417122005 1.0000000000000113 1.005376066911634
          1.0000000000000113 1.0000000000000113 1.0054453368387832 1.0027467222872777 1.0009691949170327 1.0009377431878963
          1.0004957710032965 1.0002172260143112 1.0000636534152032 1.0049935169064335 1.0055292834723177 1.0165651517851626
          1.0152627702481487 1.0120823202158824 1.010874552748066 1.0000000000000113
        </DataArray>
        <DataArray type="Float64" Name="Momentum" NumberOfComponents="3" format="ascii" RangeMin="0.0020983772514363342" RangeMax="1.5999308930993748">
          0.10184282869215266 0.014061319722781665 0 0.2029549839719332 -0.026160847485203385 0
          0.041660619448278265 0.015985054406242347 0 0.40537738900224723 0.08222235166415036 0
          0.24757780563031873 0.07561820527889636 0 0.4884243236381333 0.27945834722378643 0
          0.33926994017025935 0.6474675599062021 0 0 1.5999308930993743 0
          0.11698620332659117 0.059087946646366844 0 0.5401260193810368 0.36231743755397416 0
          0.424886248969817 0.774427063919158 0 0 1.5999308930993745 0
          0 1.5999308930993748 0 0.4549917164402027 0.9167074272653376 0
          0.45239866847854193 0.3282872913278408 0 0.5587720298513821 0.5589437913192524 0
          0.03589149802273524 0.019574665473708803 0 0 1.5999308930993743 0
          0.43695229656842655 1.0546688361881698 0 0.22602949863833222 0.2066689393653652 0
          0.49041469162867646 0.6893879438213812 0 0 1.599930893099374 0
          0.36095164997433116 1.1891623834017977 0 0 1.5999308930993745 0
          0.392915508218938 0.9201752772324131 0 0.3355900457242262 0.4952492151790136 0
          0.26209065682050764 1.295866258936847 0 0 1.5999308930993745 0
          0.0866992477459013 0.0824399143825036 0 0.2529111975246453 0.9579138260596896 0
          0.13578005925808923 1.347841424383287 0 0 1.5999308930993743 0
          0 1.599930893099374 0 0.002618833624401972 1.3614451100308995 0
          0.2065686035048929 0.6581157946402889 0 0.10512404216833385 0.997322231065421 0
          0 1.5999308930993748 0 -0.12043046119310027 1.3187392750453137 0
          -0.04154230241165766 1.0190840025175623 0 0 1.5999308930993743 0
          0.1395637262296356 0.2543352570798512 0 -0.23316379585465583 1.2301486518933171 0
          0 1.5999308930993743 0 0 1.5999308930993739 0
          0 1.599930893099374 0 -0.31221028654783534 1.1188736010678992 0
          -0.1817465871227748 0.8853670162136745 0 0.03383155246315803 0.5318834550064188 0
          -0.3367730994987239 0.981416172177851 0 -0.32239498516333015 0.8314906081261837 0
          -0.2865244369523181 0.769146544741671 0 0.060653583978658 0.025027160839397093 0
          -0.37032380091614603 0.6558575025234042 0 0.012279795893464444 0 0
          -0.3427701902585178 0.42506174564991933 0 -0.12091109962784855 0.5089328277956531 0
          0.0888185163920648 0.07329542753643259 0 -0.30353780350385356 0.27841805877791803 0
          0.10162666634501008 0.2136169244435353 0 -0.21767075842117578 0.30245898905372565 0
          -0.1096715423764546 0.06682361690166125 0 0.05499703269202623 0.27022138949360563 0
          0.07487753812549593 0.12397261988287385 0 0.09612051338076755 0.09137644873132719 0
          0.17496441158946355 0.12901479541241923 0 0.25387631669486366 -0.007574101813553489 0
          0.3017937625562246 0.11447480539975972 0 0.056641910368742145 0 0
          0.2262657913958543 -0.005086909766939911 0 0.26945241029332667 0.02226404157110095 0
          1.0000000000000113 0 0 0.32872802815748914 0 0
          1.0000000000000113 0 0 1.0000000000000113 0 0
          0.359049775947859 0.0665525549410431 0 0.2181963279078854 -0.11638921922229768 0
          0.08210045550168872 -0.10448315522185471 0 0.06330706241063143 -0.027448030957847445 0
          0.029448636745336508 -0.0013169341751499502 0 0.010666822270530844 0.0033877038643517566 0
          0.0020983772514363342 0 0 0 1.5999308930993743 0
          0.22358693199405874 0.5573922995973974 0 0 1.5999308930993736 0
          -0.25858533115793964 0.7039564064745996 0 -0.16353757379181483 0.11185538276974989 0
          0.179394340048314 -0.1577023092389903 0 1.0000000000000113 0 0
          <InformationKey name="L2_NORM_RANGE" location="vtkDataArray" length="2">
            <Value index="0">
              0.0020983772514
            </Value>
            <Value index="1">
              1.5999308931
            </Value>
          </InformationKey>
        </DataArray>
        <DataArray type="Float64" Name="Energy" format="ascii" RangeMin="3723.1639433121436" RangeMax="3872.5860334182703">
          3731.1285543732065 3736.937457655404 3726.761343275353 3752.7194849508305 3742.731777574704 3765.2354564623947
          3769.462291178582 3771.678527516053 3734.2656264039038 3775.2235350552464 3785.674949651555 3793.282294798417
          3813.323981872677 3800.9875041189125 3765.5057108471397 3784.3708108134206 3727.539262389518 3832.749973446307
          3815.112129107852 3748.8857694374788 3795.064938392043 3847.8137800643744 3825.8338103628967 3859.077886487613
          3804.8264069446927 3775.2985047383127 3833.1660475378567 3866.5821709058973 3735.8460968312047 3806.51495475609
          3839.1094974112634 3871.1937330360274 3872.5860334182703 3841.721170813051 3780.5907513231095 3809.484354922504
          3870.654131780027 3842.383075430598 3813.1263200095127 3864.6502223370153 3754.1783739589837 3840.450667531943
          3855.033088224669 3842.2916407719417 3826.8726137998415 3834.3181378334884 3813.4798554823997 3780.1099358779747
          3826.8880818160205 3816.4290280202276 3811.0017866293247 3729.591722160092 3810.613871944465 3724.3184043074334
          3803.787440999281 3788.3397183050924 3741.0595734808126 3795.7082928126215 3756.6179494718776 3791.517247578743
          3785.847033960731 3769.2384892325313 3787.723017841286 3790.0842277307647 3757.9096890636874 3797.418763951191
          3773.079690532144 3729.722070537955 3757.6424989142997 3774.1300424000196 3723.330000000043 3751.123338263825
          3723.330000000042 3723.330000000042 3751.0125755625118 3737.0946060333354 3727.8429693864746 3727.7334905928124
          3725.429350761815 3723.966423826183 3723.1639433121436 3748.3678521338443 3751.7060969045183 3808.0009198649395
          3803.084706009676 3786.008915560732 3779.810372154934 3723.3300000000427
        </DataArray>
        <DataArray type="Float64" Name="ALEdispl" NumberOfComponents="3" format="ascii" RangeMin="0" RangeMax="0.012878058051792087">
          0 0.005704001591853303 0 0 0.007459008839792292 0
          0 0.003816295748886823 0 0 0.009231855200004 0
          0 0.007314091063706547 0 0 0.010683779481761625 0
          0 0.01180164145016026 0 0 0.012878058051792086 0
          0 0.005415360638611739 0 0 0.01045055795204375 0
          0 0.011787636979984698 0 0 0.012878058051792087 0
          0 0.012878058051792087 0 0 0.01176194104279268 0
          0 0.0090670618343713 0 0 0.010398221970441017 0
          0 0.003309900196327707 0 0 0.012878058051792086 0
          0 0.011728892709205152 0 0 0.006914723407949234 0
          0 0.010303128920265399 0 0 0.012878058051792084 0
          0 0.01168944720598817 0 0 0.012878058051792087 0
          0 0.010449372498218312 0 0 0.008685495760591409 0
          0 0.011648575445856952 0 0 0.012878058051792086 0
          0 0.004559584776407687 0 0 0.010126573708020125 0
          0 0.01159880013065944 0 0 0.012878058051792084 0
          0 0.012878058051792086 0 0 0.011539363315998976 0
          0 0.008461193776896012 0 0 0.010007129548975202 0
          0 0.012878058051792087 0 0 0.01146936437001123 0
          0 0.010000203907915754 0 0 0.012878058051792086 0
          0 0.006111914499269353 0 0 0.011391463782617349 0
          0 0.012878058051792086 0 0 0.012878058051792084 0
          0 0.012878058051792086 0 0 0.011302931378923499 0
          0 0.009699518689208647 0 0 0.007710600362540471 0
          0 0.011219577648673889 0 0 0.011128331220950527 0
          0 0.009521886586013708 0 0 0.0022614842759100065 0
          0 0.009575968019043096 0 0 0 0
          0 0.009105478635475537 0 0 0.007639774476910849 0
          0 0.003806820234431932 0 0 0.008917446981086126 0
          0 0.00517458533652796 0 0 0.0073842967099842435 0
          0 0.006689276506161974 0 0 0.005457134353475904 0
          0 0.004748702113257453 0 0 0.004048429013519977 0
          0 0.003330638536180002 0 0 0.0030075323420248093 0
          0 0.0028911491232921915 0 0 0 0
          0 0.001301808220939148 0 0 0.0017325881635068755 0
          0 0 0 0 0 0
          0 0 0 0 0 0
          0 0.01053188021520152 0 0 0.009122725852490491 0
          0 0.007417664100974969 0 0 0.005874723711240435 0
          0 0.004113617434265682 0 0 0.002234952395542779 0
          0 0 0 0 0.012878058051792086 0
          0 0.01181484356427653 0 0 0.012878058051792086 0
          0 0.011047613198697421 0 0 0.008733888728294508 0
          0 0.005919786794968046 0 0 0 0
          <InformationKey name="L2_NORM_RANGE" location="vtkDataArray" length="2">
            <Value index="0">
              0
            </Value>
            <Value index="1">
              0.012878058052
            </Value>
          </InformationKey>
        </DataArray>
        <DataArray type="Float64" Name="ALEveloc" NumberOfComponents="3" format="ascii" RangeMin="0" RangeMax="1.5999308930993563">
          0 0.708647866346902 0 0 0.9266846466050971 0
          0 0.4741250149123298 0 0 1.1469377040935862 0
          0 0.9086805014159416 0 0 1.3273203754158245 0
          0 1.4662001576212593 0 0 1.599930893099356 0
          0 0.6727879893182719 0 0 1.2983456395642812 0
          0 1.4644602847005708 0 0 1.5999308930993563 0
          0 1.5999308930993563 0 0 1.4612678993599155 0
          0 1.126464275911075 0 0 1.291843575864138 0
          0 0.4112119665777866 0 0 1.599930893099356 0
          0 1.4571620745795417 0 0 0.8590642745297863 0
          0 1.280029503580635 0 0 1.5999308930993559 0
          0 1.4522614848371374 0 0 1.5999308930993563 0
          0 1.298198362374659 0 0 1.0790596636050975 0
          0 1.4471837012593423 0 0 1.599930893099356 0
          0 0.5664689904441779 0 0 1.2580948192304882 0
          0 1.4409997669908383 0 0 1.5999308930993559 0
          0 1.599930893099356 0 0 1.4336155173174598 0
          0 1.051193065112183 0 0 1.243255439000357 0
          0 1.5999308930993563 0 0 1.4249190604666069 0
          0 1.2423950183499015 0 0 1.599930893099356 0
          0 0.7593257293945916 0 0 1.4152409276409272 0
          0 1.599930893099356 0 0 1.5999308930993559 0
          0 1.599930893099356 0 0 1.4042419301880138 0
          0 1.2050387982914827 0 0 0.9579416147029157 0
          0 1.3938863154248964 0 0 1.3825501358539984 0
          0 1.182970324274296 0 0 0.2809599508509238 0
          0 1.189689237568429 0 0 0 0
          0 1.131237062821456 0 0 0.9491424213777866 0
          0 0.4729478057210511 0 0 1.1078765800896413 0
          0 0.6428747956869106 0 0 0.9174026380842152 0
          0 0.8310554348839068 0 0 0.6779778290178531 0
          0 0.5899643550736697 0 0 0.5029645480087742 0
          0 0.41378843505368873 0 0 0.3736467009737811 0
          0 0.35918760268894745 0 0 0 0
          0 0.16173270699625525 0 0 0.215251501170798 0
          0 0 0 0 0 0
          0 0 0 0 0 0
          0 1.3084488710142097 0 0 1.1333798047792294 0
          0 0.9215481015891539 0 0 0.7298578649231128 0
          0 0.5110633597864475 0 0 0.2776637104643046 0
          0 0 0 0 1.599930893099356 0
          0 1.4678403482574482 0 0 1.599930893099356 0
          0 1.372521973462336 0 0 1.0850718592114197 0
          0 0.7354563658387143 0 0 0 0
          <InformationKey name="L2_NORM_RANGE" location="vtkDataArray" length="2">
            <Value index="0">
              0
            </Value>
            <Value index="1">
              1.5999308931
            </Value>
          </InformationKey>
        </DataArray>
      </PointData>
      <CellData>
        <DataArray type="UInt8" Name="vtkGhostType" format="ascii" RangeMin="0" RangeMax="1">
          1 1 0 1 0 1
          1 1 0 0 1 1
          0 1 1 1 0 0
          1 0 0 0 0 0
          0 0 0 1 0 0
          0 0 0 0 0 0
          0 0 0 0 0 0
          1 0 0 0 0 0
          0 0 0 1 1 0
          0 0 0 0 0 0
          0 0 0 0 0 0
          0 0 0 0 0 0
          0 0 1 0 0 0
          0 0 0 0 1 0
          1 0 0 0 0 0
          0 0 0 0 0 0
          0 0 0 1 1 0
          0 0 0 1 0 0
          0 0 0 0 0 0
          0 0 1 0 0 0
          0 0 0 1 0 0
          0 0 1 0 0 0
          0 0 0 0 0 0
          0 0
        </DataArray>
      </CellData>
      <Points>
        <DataArray type="Float32" Name="Points" NumberOfComponents="3" format="ascii" RangeMin="1.8803550135780176" RangeMax="4.055759004528563">
          -2.2300779819488525 0.13570579886436462 0 -2.3709781169891357 -0.062260668724775314 0
          -2.059462070465088 0.44021978974342346 0 -2.5443649291992188 -0.10779819637537003 0
          -2.4642961025238037 0.07101144641637802 0 -2.6271650791168213 -0.17486029863357544 0
          -2.6636691093444824 -0.24169839918613434 0 -2.701296091079712 -0.28768301010131836 0
          -2.383152961730957 0.3095952868461609 0 -2.654539108276367 -0.11641339957714081 0
          -2.694011926651001 -0.18914400041103363 0 -2.7230820655822754 -0.2409639060497284 0
          -2.7526490688323975 -0.1987375020980835 0 -2.7330191135406494 -0.14265699684619904 0
          -2.650291919708252 0.011698920279741287 0 -2.706774950027466 -0.06417694687843323 0
          -2.265990972518921 0.6523954272270203 0 -2.789099931716919 -0.16228699684143066 0
          -2.779505968093872 -0.10364969819784164 0 -2.617074966430664 0.21585670113563538 0
          -2.76728892326355 -0.021804839372634888 0 -2.8313260078430176 -0.13271979987621307 0
          -2.8320600986480713 -0.07330747693777084 0 -2.878045082092285 -0.1109343022108078 0
          -2.8383469581604004 -0.0027822840493172407 0 -2.7977020740509033 0.10521770268678665 0
          -2.889085054397583 -0.05255214869976044 0 -2.9278368949890137 -0.09759248048067093 0
          -2.6022489070892334 0.5176013708114624 0 -2.9055979251861572 0.02853533998131752 0
          -2.948848009109497 -0.04201440140604973 0 -2.9791901111602783 -0.0930996984243393 0
          -3.030543088912964 -0.09759248048067093 0 -3.0095319747924805 -0.04201440140604973 0
          -2.923835039138794 0.1344859004020691 0 -2.9791901111602783 0.03497384116053581 0
          -3.0803349018096924 -0.1109343022108078 0 -3.0692949295043945 -0.05255214869976044 0
          -3.0480120182037354 0.022753920406103134 0 -3.12705397605896 -0.13271979987621307 0
          -2.878783941268921 0.3397555947303772 0 -3.1263198852539062 -0.07330747693777084 0
          -3.1692800521850586 -0.16228699684143066 0 -3.20573091506958 -0.1987375020980835 0
          -3.235297918319702 -0.24096380174160004 0 -3.1788740158081055 -0.10364969819784164 0
          -3.1241390705108643 0.009415465407073498 0 -3.0579030513763428 0.16394680738449097 0
          -3.2253611087799072 -0.14265699684619904 0 -3.2643680572509766 -0.18914400041103363 0
          -3.1910910606384277 -0.021804839372634888 0 -2.6045689582824707 0.9419500827789307 0
          -3.25103497505188 -0.07930652797222137 0 -2.1272919178009033 1.4731700420379639 0
          -3.3038411140441895 -0.11641339957714081 0 -3.2044050693511963 0.0941474512219429 0
          -2.892124891281128 0.6298788785934448 0 -3.3462131023406982 -0.1769271045923233 0
          -3.0603749752044678 0.3931475877761841 0 -3.33001708984375 -0.012432189658284187 0
          -3.435275077819824 -0.1454842984676361 0 -3.2308011054992676 0.26955080032348633 0
          -3.4064109325408936 0.15343579649925232 0 -3.518059015274048 0.028400490060448647 0
          -3.280010938644409 0.5167043805122375 0 -3.613848924636841 -0.13029329478740692 0
          -3.444891929626465 0.4024854004383087 0 -2.7232348918914795 1.4731700420379639 0
          -3.235137939453125 1.018826961517334 0 -3.5035080909729004 0.6253349184989929 0
          -3.778749942779541 0.2763518989086151 0 -3.2737109661102295 1.4731700420379639 0
          -3.778749942779541 0.9123057126998901 0 -3.778749942779541 1.4731700420379639 0
          -2.580946922302246 -0.24387919902801514 0 -2.4644439220428467 -0.2509022057056427 0
          -2.2871220111846924 -0.25536561012268066 0 -2.119029998779297 -0.06761106103658676 0
          -1.8855739831924438 0.1918828934431076 0 -1.733451008796692 0.7286168932914734 0
          -1.4868500232696533 1.4731700420379639 0 -2.6879539489746094 -0.3374752998352051 0
          -2.642914056777954 -0.2987231910228729 0 -3.2570838928222656 -0.28768301010131836 0
          -3.294711112976074 -0.24169839918613434 0 -3.3774330615997314 -0.24387919902801514 0
          -3.501086950302124 -0.3039725124835968 0 -3.778749942779541 -0.4253365099430084 0
          <InformationKey name="L2_NORM_RANGE" location="vtkDataArray" length="2">
            <Value index="0">
              1.8803550136
            </Value>
            <Value index="1">
              4.0557590045
            </Value>
          </InformationKey>
        </DataArray>
      </Points>
      <Cells>
        <DataArray type="Int64" Name="connectivity" format="ascii" RangeMin="0" RangeMax="87">
          74 75 3 75 76 1
          4 3 1 1 3 75
          4 1 0 1 76 77
          0 1 77 0 77 78
          4 0 8 8 0 2
          0 78 2 2 78 79
          8 2 16 16 2 79
          80 53 79 16 79 53
          12 11 10 27 23 26
          7 81 82 32 31 33
          21 17 18 11 7 6
          36 32 37 23 21 22
          31 27 30 17 12 13
          26 23 22 6 7 82
          10 11 6 22 21 18
          37 32 33 18 17 13
          33 31 30 13 12 10
          30 27 26 33 30 35
          10 6 5 22 18 20
          13 10 9 26 22 24
          18 13 15 30 26 29
          6 82 74 20 18 15
          20 15 14 35 30 29
          35 29 34 15 13 9
          15 9 14 9 10 5
          9 5 3 5 6 74
          5 74 3 29 26 24
          29 25 34 24 22 20
          24 20 25 9 3 14
          20 14 25 25 14 19
          24 25 29 34 25 40
          19 14 4 25 19 40
          14 3 4 19 4 8
          19 8 28 40 19 28
          56 40 28 28 8 16
          56 28 51 28 16 51
          51 16 53 39 36 41
          83 44 84 43 42 48
          44 43 49 42 39 45
          48 42 45 41 36 37
          45 39 41 49 43 48
          84 44 49 37 33 38
          84 49 57 49 48 54
          48 45 52 41 37 46
          45 41 50 54 48 52
          54 52 59 57 49 54
          57 54 60 52 45 50
          52 50 59 50 41 46
          50 46 55 38 33 35
          38 35 47 85 84 57
          85 57 60 46 37 38
          46 47 55 60 54 59
          50 55 59 85 60 86
          46 38 47 47 35 34
          47 34 40 55 47 61
          61 47 58 55 61 62
          60 59 63 63 59 62
          62 59 55 60 63 65
          86 60 65 63 62 70
          58 47 40 58 40 56
          62 61 66 61 58 64
          65 63 70 86 65 87
          66 61 64 66 64 69
          64 58 56 62 66 70
          87 65 70 69 64 68
          66 69 70 64 56 68
          68 56 51 69 68 72
          71 73 68 70 69 72
          72 68 73 67 71 68
          68 51 67 67 51 53
        </DataArray>
        <DataArray type="Int64" Name="offsets" format="ascii" RangeMin="3" RangeMax="420">
          3 6 9 12 15 18
          21 24 27 30 33 36
          39 42 45 48 51 54
          57 60 63 66 69 72
          75 78 81 84 87 90
          93 96 99 102 105 108
          111 114 117 120 123 126
          129 132 135 138 141 144
          147 150 153 156 159 162
          165 168 171 174 177 180
          183 186 189 192 195 198
          201 204 207 210 213 216
          219 222 225 228 231 234
          237 240 243 246 249 252
          255 258 261 264 267 270
          273 276 279 282 285 288
          291 294 297 300 303 306
          309 312 315 318 321 324
          327 330 333 336 339 342
          345 348 351 354 357 360
          363 366 369 372 375 378
          381 384 387 390 393 396
          399 402 405 408 411 414
          417 420
        </DataArray>
        <DataArray type="UInt8" Name="types" format="ascii" RangeMin="5" RangeMax="5">
          5 5 5 5 5 5
          5 5 5 5 5 5
          5 5 5 5 5 5
          5 5 5 5 5 5
          5 5 5 5 5 5
          5 5 5 5 5 5
          5 5 5 5 5 5
          5 5 5 5 5 5
          5 5 5 5 5 5
          5 5 5 5 5 5
          5 5 5 5 5 5
          5 5 5 5 5 5
          5 5 5 5 5 5
          5 5 5 5 5 5
          5 5 5 5 5 5
          5 5 5 5 5 5
          5 5 5 5 5 5
          5 5 5 5 5 5
          5 5 5 5 5 5
          5 5 5 5 5 5
          5 5 5 5 5 5
          5 5 5 5 5 5
          5 5 5 5 5 5
          5 5
        </DataArray>
      </Cells>
    </Piece>
  </UnstructuredGrid>
</VTKFile>
