<?xml version="1.0"?>
<VTKFile type="UnstructuredGrid" version="0.1" byte_order="LittleEndian" header_type="UInt32" compressor="vtkZLibDataCompressor">
  <UnstructuredGrid>
    <Piece NumberOfPoints="88" NumberOfCells="140">
      <PointData>
        <DataArray type="Float64" Name="ale_BC" NumberOfComponents="3" format="ascii" RangeMin="0" RangeMax="1">
          0 0 0 0 0 0
          0 0 0 0 0 0
          0 0 0 0 0 0
          0 0 0 0 1 0
          0 0 0 0 0 0
          0 0 0 0 1 0
          0 1 0 0 0 0
          0 0 0 0 0 0
          0 0 0 0 1 0
          0 0 0 0 0 0
          0 0 0 0 1 0
          0 0 0 0 1 0
          0 0 0 0 0 0
          0 0 0 0 1 0
          0 0 0 0 0 0
          0 0 0 0 1 0
          0 1 0 0 0 0
          0 0 0 0 0 0
          0 1 0 0 0 0
          0 0 0 0 1 0
          0 0 0 0 0 0
          0 1 0 0 1 0
          0 1 0 0 0 0
          0 0 0 0 0 0
          0 0 0 0 0 0
          0 0 0 0 0 0
          0 0 0 0 0 0
          0 0 0 0 0 0
          0 0 0 0 0 0
          0 0 0 0 0 0
          0 0 0 0 0 0
          0 0 0 0 0 0
          0 0 0 0 0 0
          0 0 0 0 0 0
          0 0 0 0 0 0
          0 0 0 0 0 0
          0 0 0 0 0 0
          0 0 0 0 0 0
          0 0 0 0 0 0
          0 0 0 0 0 0
          0 0 0 0 1 0
          0 0 0 0 1 0
          0 0 0 0 0 0
          0 0 0 0 0 0
          <InformationKey name="L2_NORM_RANGE" location="vtkDataArray" length="2">
            <Value index="0">
              0
            </Value>
            <Value index="1">
              1
            </Value>
          </InformationKey>
        </DataArray>
        <DataArray type="Float64" Name="ale_FIXNO" NumberOfComponents="3" format="ascii" RangeMin="1.4142135623730951" RangeMax="1.4142135623730951">
          -1 -1 0 -1 -1 0
          -1 -1 0 -1 -1 0
          -1 -1 0 -1 -1 0
          -1 -1 0 1 1 0
          -1 -1 0 -1 -1 0
          -1 -1 0 1 1 0
          1 1 0 -1 -1 0
          -1 -1 0 -1 -1 0
          -1 -1 0 1 1 0
          -1 -1 0 -1 -1 0
          -1 -1 0 1 1 0
          -1 -1 0 1 1 0
          -1 -1 0 -1 -1 0
          -1 -1 0 1 1 0
          -1 -1 0 -1 -1 0
          -1 -1 0 1 1 0
          1 1 0 -1 -1 0
          -1 -1 0 -1 -1 0
          1 1 0 -1 -1 0
          -1 -1 0 1 1 0
          -1 -1 0 -1 -1 0
          1 1 0 1 1 0
          1 1 0 -1 -1 0
          -1 -1 0 -1 -1 0
          -1 -1 0 -1 -1 0
          -1 -1 0 -1 -1 0
          -1 -1 0 1 1 0
          -1 -1 0 -1 -1 0
          -1 -1 0 -1 -1 0
          -1 -1 0 -1 -1 0
          -1 -1 0 -1 -1 0
          -1 -1 0 -1 -1 0
          -1 -1 0 -1 -1 0
          -1 -1 0 1 1 0
          -1 -1 0 -1 -1 0
          1 1 0 1 1 0
          1 1 0 1 1 0
          -1 -1 0 -1 -1 0
          -1 -1 0 -1 -1 0
          -1 -1 0 -1 -1 0
          1 1 0 1 1 0
          -1 -1 0 1 1 0
          -1 -1 0 -1 -1 0
          -1 -1 0 1 1 0
          <InformationKey name="L2_NORM_RANGE" location="vtkDataArray" length="2">
            <Value index="0">
              1.4142135624
            </Value>
            <Value index="1">
              1.4142135624
            </Value>
          </InformationKey>
        </DataArray>
      </PointData>
      <CellData>
        <DataArray type="UInt8" Name="vtkGhostType" format="ascii" RangeMin="0" RangeMax="1">
          1 1 0 1 0 1
          1 1 0 0 1 1
          0 1 1 1 0 0
          1 0 0 0 0 0
          0 0 0 1 0 0
          0 0 0 0 0 0
          0 0 0 0 0 0
          1 0 0 0 0 0
          0 0 0 1 1 0
          0 0 0 0 0 0
          0 0 0 0 0 0
          0 0 0 0 0 0
          0 0 1 0 0 0
          0 0 0 0 1 0
          1 0 0 0 0 0
          0 0 0 0 0 0
          0 0 0 1 1 0
          0 0 0 1 0 0
          0 0 0 0 0 0
          0 0 1 0 0 0
          0 0 0 1 0 0
          0 0 1 0 0 0
          0 0 0 0 0 0
          0 0
        </DataArray>
      </CellData>
      <Points>
        <DataArray type="Float32" Name="Points" NumberOfComponents="3" format="ascii" RangeMin="1.8803550135780176" RangeMax="4.055759004528563">
          -2.2300779819488525 0.13570579886436462 0 -2.3709781169891357 -0.062260668724775314 0
          -2.059462070465088 0.44021978974342346 0 -2.5443649291992188 -0.10779819637537003 0
          -2.4642961025238037 0.07101144641637802 0 -2.6271650791168213 -0.17486029863357544 0
          -2.6636691093444824 -0.24169839918613434 0 -2.701296091079712 -0.28768301010131836 0
          -2.383152961730957 0.3095952868461609 0 -2.654539108276367 -0.11641339957714081 0
          -2.694011926651001 -0.18914400041103363 0 -2.7230820655822754 -0.2409639060497284 0
          -2.7526490688323975 -0.1987375020980835 0 -2.7330191135406494 -0.14265699684619904 0
          -2.650291919708252 0.011698920279741287 0 -2.706774950027466 -0.06417694687843323 0
          -2.265990972518921 0.6523954272270203 0 -2.789099931716919 -0.16228699684143066 0
          -2.779505968093872 -0.10364969819784164 0 -2.617074966430664 0.21585670113563538 0
          -2.76728892326355 -0.021804839372634888 0 -2.8313260078430176 -0.13271979987621307 0
          -2.8320600986480713 -0.07330747693777084 0 -2.878045082092285 -0.1109343022108078 0
          -2.8383469581604004 -0.0027822840493172407 0 -2.7977020740509033 0.10521770268678665 0
          -2.889085054397583 -0.05255214869976044 0 -2.9278368949890137 -0.09759248048067093 0
          -2.6022489070892334 0.5176013708114624 0 -2.9055979251861572 0.02853533998131752 0
          -2.948848009109497 -0.04201440140604973 0 -2.9791901111602783 -0.0930996984243393 0
          -3.030543088912964 -0.09759248048067093 0 -3.0095319747924805 -0.04201440140604973 0
          -2.923835039138794 0.1344859004020691 0 -2.9791901111602783 0.03497384116053581 0
          -3.0803349018096924 -0.1109343022108078 0 -3.0692949295043945 -0.05255214869976044 0
          -3.0480120182037354 0.022753920406103134 0 -3.12705397605896 -0.13271979987621307 0
          -2.878783941268921 0.3397555947303772 0 -3.1263198852539062 -0.07330747693777084 0
          -3.1692800521850586 -0.16228699684143066 0 -3.20573091506958 -0.1987375020980835 0
          -3.235297918319702 -0.24096380174160004 0 -3.1788740158081055 -0.10364969819784164 0
          -3.1241390705108643 0.009415465407073498 0 -3.0579030513763428 0.16394680738449097 0
          -3.2253611087799072 -0.14265699684619904 0 -3.2643680572509766 -0.18914400041103363 0
          -3.1910910606384277 -0.021804839372634888 0 -2.6045689582824707 0.9419500827789307 0
          -3.25103497505188 -0.07930652797222137 0 -2.1272919178009033 1.4731700420379639 0
          -3.3038411140441895 -0.11641339957714081 0 -3.2044050693511963 0.0941474512219429 0
          -2.892124891281128 0.6298788785934448 0 -3.3462131023406982 -0.1769271045923233 0
          -3.0603749752044678 0.3931475877761841 0 -3.33001708984375 -0.012432189658284187 0
          -3.435275077819824 -0.1454842984676361 0 -3.2308011054992676 0.26955080032348633 0
          -3.4064109325408936 0.15343579649925232 0 -3.518059015274048 0.028400490060448647 0
          -3.280010938644409 0.5167043805122375 0 -3.613848924636841 -0.13029329478740692 0
          -3.444891929626465 0.4024854004383087 0 -2.7232348918914795 1.4731700420379639 0
          -3.235137939453125 1.018826961517334 0 -3.5035080909729004 0.6253349184989929 0
          -3.778749942779541 0.2763518989086151 0 -3.2737109661102295 1.4731700420379639 0
          -3.778749942779541 0.9123057126998901 0 -3.778749942779541 1.4731700420379639 0
          -2.580946922302246 -0.24387919902801514 0 -2.4644439220428467 -0.2509022057056427 0
          -2.2871220111846924 -0.25536561012268066 0 -2.119029998779297 -0.06761106103658676 0
          -1.8855739831924438 0.1918828934431076 0 -1.733451008796692 0.7286168932914734 0
          -1.4868500232696533 1.4731700420379639 0 -2.6879539489746094 -0.3374752998352051 0
          -2.642914056777954 -0.2987231910228729 0 -3.2570838928222656 -0.28768301010131836 0
          -3.294711112976074 -0.24169839918613434 0 -3.3774330615997314 -0.24387919902801514 0
          -3.501086950302124 -0.3039725124835968 0 -3.778749942779541 -0.4253365099430084 0
          <InformationKey name="L2_NORM_RANGE" location="vtkDataArray" length="2">
            <Value index="0">
              1.8803550136
            </Value>
            <Value index="1">
              4.0557590045
            </Value>
          </InformationKey>
        </DataArray>
      </Points>
      <Cells>
        <DataArray type="Int64" Name="connectivity" format="ascii" RangeMin="0" RangeMax="87">
          74 75 3 75 76 1
          4 3 1 1 3 75
          4 1 0 1 76 77
          0 1 77 0 77 78
          4 0 8 8 0 2
          0 78 2 2 78 79
          8 2 16 16 2 79
          80 53 79 16 79 53
          12 11 10 27 23 26
          7 81 82 32 31 33
          21 17 18 11 7 6
          36 32 37 23 21 22
          31 27 30 17 12 13
          26 23 22 6 7 82
          10 11 6 22 21 18
          37 32 33 18 17 13
          33 31 30 13 12 10
          30 27 26 33 30 35
          10 6 5 22 18 20
          13 10 9 26 22 24
          18 13 15 30 26 29
          6 82 74 20 18 15
          20 15 14 35 30 29
          35 29 34 15 13 9
          15 9 14 9 10 5
          9 5 3 5 6 74
          5 74 3 29 26 24
          29 25 34 24 22 20
          24 20 25 9 3 14
          20 14 25 25 14 19
          24 25 29 34 25 40
          19 14 4 25 19 40
          14 3 4 19 4 8
          19 8 28 40 19 28
          56 40 28 28 8 16
          56 28 51 28 16 51
          51 16 53 39 36 41
          83 44 84 43 42 48
          44 43 49 42 39 45
          48 42 45 41 36 37
          45 39 41 49 43 48
          84 44 49 37 33 38
          84 49 57 49 48 54
          48 45 52 41 37 46
          45 41 50 54 48 52
          54 52 59 57 49 54
          57 54 60 52 45 50
          52 50 59 50 41 46
          50 46 55 38 33 35
          38 35 47 85 84 57
          85 57 60 46 37 38
          46 47 55 60 54 59
          50 55 59 85 60 86
          46 38 47 47 35 34
          47 34 40 55 47 61
          61 47 58 55 61 62
          60 59 63 63 59 62
          62 59 55 60 63 65
          86 60 65 63 62 70
          58 47 40 58 40 56
          62 61 66 61 58 64
          65 63 70 86 65 87
          66 61 64 66 64 69
          64 58 56 62 66 70
          87 65 70 69 64 68
          66 69 70 64 56 68
          68 56 51 69 68 72
          71 73 68 70 69 72
          72 68 73 67 71 68
          68 51 67 67 51 53
        </DataArray>
        <DataArray type="Int64" Name="offsets" format="ascii" RangeMin="3" RangeMax="420">
          3 6 9 12 15 18
          21 24 27 30 33 36
          39 42 45 48 51 54
          57 60 63 66 69 72
          75 78 81 84 87 90
          93 96 99 102 105 108
          111 114 117 120 123 126
          129 132 135 138 141 144
          147 150 153 156 159 162
          165 168 171 174 177 180
          183 186 189 192 195 198
          201 204 207 210 213 216
          219 222 225 228 231 234
          237 240 243 246 249 252
          255 258 261 264 267 270
          273 276 279 282 285 288
          291 294 297 300 303 306
          309 312 315 318 321 324
          327 330 333 336 339 342
          345 348 351 354 357 360
          363 366 369 372 375 378
          381 384 387 390 393 396
          399 402 405 408 411 414
          417 420
        </DataArray>
        <DataArray type="UInt8" Name="types" format="ascii" RangeMin="5" RangeMax="5">
          5 5 5 5 5 5
          5 5 5 5 5 5
          5 5 5 5 5 5
          5 5 5 5 5 5
          5 5 5 5 5 5
          5 5 5 5 5 5
          5 5 5 5 5 5
          5 5 5 5 5 5
          5 5 5 5 5 5
          5 5 5 5 5 5
          5 5 5 5 5 5
          5 5 5 5 5 5
          5 5 5 5 5 5
          5 5 5 5 5 5
          5 5 5 5 5 5
          5 5 5 5 5 5
          5 5 5 5 5 5
          5 5 5 5 5 5
          5 5 5 5 5 5
          5 5 5 5 5 5
          5 5 5 5 5 5
          5 5 5 5 5 5
          5 5 5 5 5 5
          5 5
        </DataArray>
      </Cells>
    </Piece>
  </UnstructuredGrid>
</VTKFile>
