<?xml version="1.0"?>
<VTKFile type="UnstructuredGrid" version="0.1" byte_order="LittleEndian" header_type="UInt32" compressor="vtkZLibDataCompressor">
  <UnstructuredGrid>
    <Piece NumberOfPoints="91" NumberOfCells="142">
      <PointData>
        <DataArray type="Float64" Name="ale_BC" NumberOfComponents="3" format="ascii" RangeMin="0" RangeMax="1">
          0 0 0 0 0 0
          0 0 0 0 0 0
          0 0 0 0 0 0
          0 0 0 0 0 0
          0 0 0 0 0 0
          0 0 0 0 1 0
          0 0 0 0 0 0
          0 0 0 0 1 0
          0 0 0 0 0 0
          0 1 0 0 1 0
          0 0 0 0 0 0
          0 0 0 0 0 0
          0 1 0 0 0 0
          0 0 0 0 0 0
          0 1 0 0 0 0
          0 0 0 0 1 0
          0 0 0 0 0 0
          0 1 0 0 0 0
          0 0 0 0 0 0
          0 0 0 0 1 0
          0 0 0 0 0 0
          0 1 0 0 0 0
          0 1 0 0 0 0
          0 0 0 0 1 0
          0 0 0 0 0 0
          0 0 0 0 1 0
          0 0 0 0 1 0
          0 0 0 0 1 0
          0 1 0 0 0 0
          0 0 0 0 0 0
          0 0 0 0 0 0
          0 0 0 0 0 0
          0 0 0 0 0 0
          0 0 0 0 0 0
          0 0 0 0 0 0
          0 0 0 0 0 0
          0 0 0 0 0 0
          0 0 0 0 0 0
          0 1 0 0 0 0
          0 0 0 0 0 0
          0 0 0 0 0 0
          0 0 0 0 0 0
          0 0 0 0 1 0
          0 0 0 0 0 0
          0 0 0 0 0 0
          0 0 0
          <InformationKey name="L2_NORM_RANGE" location="vtkDataArray" length="2">
            <Value index="0">
              0
            </Value>
            <Value index="1">
              1
            </Value>
          </InformationKey>
        </DataArray>
        <DataArray type="Float64" Name="ale_FIXNO" NumberOfComponents="3" format="ascii" RangeMin="1.4142135623730951" RangeMax="1.4142135623730951">
          1 1 0 -1 -1 0
          1 1 0 -1 -1 0
          -1 -1 0 -1 -1 0
          -1 -1 0 -1 -1 0
          -1 -1 0 -1 -1 0
          -1 -1 0 1 1 0
          -1 -1 0 -1 -1 0
          -1 -1 0 1 1 0
          -1 -1 0 -1 -1 0
          1 1 0 1 1 0
          -1 -1 0 -1 -1 0
          -1 -1 0 -1 -1 0
          1 1 0 -1 -1 0
          1 1 0 -1 -1 0
          1 1 0 -1 -1 0
          -1 -1 0 1 1 0
          -1 -1 0 -1 -1 0
          1 1 0 -1 -1 0
          -1 -1 0 -1 -1 0
          -1 -1 0 1 1 0
          -1 -1 0 -1 -1 0
          1 1 0 -1 -1 0
          1 1 0 -1 -1 0
          -1 -1 0 1 1 0
          -1 -1 0 -1 -1 0
          -1 -1 0 1 1 0
          -1 -1 0 1 1 0
          -1 -1 0 1 1 0
          1 1 0 -1 -1 0
          -1 -1 0 -1 -1 0
          -1 -1 0 -1 -1 0
          -1 -1 0 -1 -1 0
          -1 -1 0 -1 -1 0
          1 1 0 -1 -1 0
          -1 -1 0 1 1 0
          -1 -1 0 -1 -1 0
          -1 -1 0 -1 -1 0
          1 1 0 1 1 0
          1 1 0 -1 -1 0
          -1 -1 0 -1 -1 0
          -1 -1 0 -1 -1 0
          -1 -1 0 -1 -1 0
          1 1 0 1 1 0
          -1 -1 0 -1 -1 0
          -1 -1 0 -1 -1 0
          1 1 0
          <InformationKey name="L2_NORM_RANGE" location="vtkDataArray" length="2">
            <Value index="0">
              1.4142135624
            </Value>
            <Value index="1">
              1.4142135624
            </Value>
          </InformationKey>
        </DataArray>
        <DataArray type="Float64" Name="Density" format="ascii" RangeMin="0.9768171904047618" RangeMax="1.0202977948257872">
          1.0002132097918917 1.000372525229508 1.001303203565933 0.9960780111633033 0.9997885377587907 0.9929074987187912
          0.9895309795620735 0.9878179916219112 0.9925035036423462 0.9836618477113878 0.9875035605761159 0.9811896314832461
          0.9975844442341877 1.0023187988000568 0.9823031884262007 0.9789214895961823 0.9871797146053626 0.98127951530975
          0.9774861375835769 0.9768171904047618 0.9812528422752197 0.9933712646320333 0.9870348164346398 1.0011596879110005
          0.9770430670958321 0.9818563444892691 1.0067902215221751 0.9882973089315447 0.978021521111515 0.9982849428952393
          0.9831864063942517 0.9796908962189964 0.9890012870520726 0.9850260063704078 0.9820412401311776 0.9950156116704961
          0.9902387326726005 1.006038696811773 0.9875836544535781 0.9851511868554771 0.9934219800184335 0.9907121079225522
          0.9889733145114838 1.005126201495072 0.9932924050349641 0.9955905667685498 0.9941722459868646 0.9981601103732755
          0.999244171647065 1.00396103805982 0.9979832666695598 1.0029753695947632 0.9989154407912199 1.007747830439919
          1.0018364888632267 1.0124327205238337 1.0165651517851626 1.0055980187885976 1.0020476342128821 1.0091625955741526
          1.0125237995300036 1.0152627702481487 1.0047367786964505 1.0035580805499464 1.0075082214545785 1.0048915381073684
          1.0000000000000113 1.0102431964212408 1.0120823202158824 1.0000000000000113 1.0083652081575896 1.008576078828473
          1.008121840512901 1.010874552748066 1.0000000000000113 1.0000000000000113 0.9839900453186349 0.9859652609943909
          0.9910832591936813 0.9951181111203539 0.9974605789542926 0.9986512493547357 0.999623620619364 0.9999320920479233
          0.9999960249020948 1.0202977948257872 1.0177530592124504 1.0139609690804454 1.0121058643712315 1.014084209295473
          1.0000000000000113
        </DataArray>
        <DataArray type="Float64" Name="Momentum" NumberOfComponents="3" format="ascii" RangeMin="0.0007346639109965177" RangeMax="1.5999308930993748">
          0.006302294099841379 0 0 0.04550638026831777 0.028895701416885283 0
          0.08718816679541824 0 0 -0.10684894989762712 0.26549651492034176 0
          0.0511980862785519 0.12042572422965837 0 -0.3608096263084814 0.39968977936076017 0
          -0.4768473662520366 0.5567232074964615 0 -0.4350672100105958 0.7992408927368982 0
          -0.11533924246804796 0.5904792636901658 0 -0.3793184610995167 1.101895831135117 0
          -0.2687201251146948 0.8897229271007583 0 0 1.5999308930993748 0
          0.07244240182447957 0.31544952086853173 0 0.16153569446437072 0.044323539910907074 0
          -0.29894817237210897 1.234445218680139 0 0 1.5999308930993739 0
          -0.0934655102718169 0.9776097960483899 0 -0.16583688907032504 1.3244930617991297 0
          0 1.5999308930993745 0 0 1.5999308930993739 0
          -0.007740152979670934 1.3769953545975147 0 0.19466189083592886 0.6679261127045768 0
          0.12743178905398944 1.085595118572265 0 0.19868332999672525 0.15870769357134482 0
          0 1.599930893099374 0 0.14662001382979842 1.3724405322637765 0
          0.25166998478128894 0 0 0.2888175782630835 0.9790077279075875 0
          0 1.599930893099374 0 0.2722074777403637 0.3199211120691541 0
          0.2946664308618687 1.3076500490367278 0 0 1.5999308930993743 0
          0.4830328889707966 0.9091217356121636 0 0.4143253691269691 1.2030244074893814 0
          0 1.599930893099374 0 0.5145100929916298 0.5168413862844493 0
          0.5736553002972451 0.8198972025228249 0 0.3826833831710674 0.07677377250050334 0
          0.48829574941346604 1.0499295028638327 0 0 1.5999308930993745 0
          0.6689837348065705 0.5170776167696738 0 0.5212358831886568 0.8951114343723618 0
          0 1.599930893099374 0 0.39531183247791396 0.0900235950566057 0
          0 1.5999308930993743 0 0.6689454201178299 0.40803390765466385 0
          0.48489215547653053 0.7359435144370826 0 0 1.5999308930993745 0
          0.5980915212963791 0.22737009947094625 0 0.49337300867368733 0.1562060485124694 0
          0.4041902114201868 0.6076372096048615 0 0 1.5999308930993743 0
          0.6221106820149129 0.14982793552973708 0 0 1.5999308930993743 0
          0.284554684694215 0.5235252213563901 0 0 1.599930893099374 0
          0 1.5999308930993736 0 0.13100982559184302 0.49165530530678303 0
          0.4990417240123821 0.004907273679073574 0 -0.016540901794368783 0.5156165135670152 0
          -0.1484295796385556 0.5898515595660692 0 -0.25858533115793964 0.7039564064745996 0
          0.3296005662443568 -0.005243772707336186 0 0.5474667740188109 -0.07401491227428063 0
          0.17062074352487772 -0.06937969306348586 0 0.5336901652127981 0.010866480000012483 0
          1.0000000000000113 0 0 -0.013298511989206214 0.006819953306608382 0
          -0.16353757379181483 0.11185538276974989 0 1.0000000000000113 0 0
          0.4117300115624384 -0.22326333141775181 0 0.5016460075145754 -0.001308812780125838 0
          0.49704041791833525 -0.11916746856384315 0 0.179394340048314 -0.1577023092389903 0
          1.0000000000000113 0 0 1.0000000000000113 0 0
          0 1.5999308930993745 0 -0.42088439840175096 0.9460762741030092 0
          -0.5106910889376156 0.4300518170907125 0 -0.36842844485735343 0.12398052446472563 0
          -0.16857989805273096 0.07273895877908441 0 -0.05506207736231697 0.07721192555596654 0
          -0.02144146736495196 0.028340272133474707 0 -0.0005032171478169376 0.0032692158353090847 0
          0.0007346639109965177 0 0 0 1.599930893099374 0
          -0.32239498516333015 0.8314906081261837 0 -0.30353780350385356 0.27841805877791803 0
          -0.1096715423764546 0.06682361690166125 0 0.25387631669486366 -0.007574101813553489 0
          1.0000000000000113 0 0
          <InformationKey name="L2_NORM_RANGE" location="vtkDataArray" length="2">
            <Value index="0">
              0.000734663911
            </Value>
            <Value index="1">
              1.5999308931
            </Value>
          </InformationKey>
        </DataArray>
        <DataArray type="Float64" Name="Energy" format="ascii" RangeMin="3593.48430737605" RangeMax="3826.8726137998415">
          3723.947437135714 3724.7814042673012 3729.6056186928317 3702.4328441273697 3721.785777949966 3685.6829872549747
          3668.1349468851067 3658.824893389485 3683.806249949373 3638.0688606265403 3657.370169259742 3619.7853406763797
          3710.326146909964 3734.8866630611706 3630.8593752158254 3606.415745604617 3655.608886583284 3625.62099062734
          3597.717565734775 3593.48430737605 3625.4215206238155 3688.1834276706063 3655.1742884211285 3728.8952943983563
          3594.489993275088 3628.7463664024535 3758.478032415434 3661.6355265506086 3600.305420711232 3714.0555994282813
          3635.3445849080917 3610.1186015429407 3665.6297472553656 3645.32969464673 3623.7304846618845 3696.73362337291
          3671.947909348915 3754.719994002754 3658.287974530863 3641.732513450095 3688.1756617590518 3674.6046795438715
          3663.0799109519503 3749.70030507424 3686.8119109261997 3699.8004865170265 3692.3145211041283 3712.8211414766038
          3718.979298441896 3743.6182299843413 3712.132192878986 3738.2080966322023 3717.037326608654 3762.964327287485
          3732.190735529986 3786.995183976959 3808.0009198649395 3751.868905809426 3733.459755401546 3770.6386065065053
          3788.5318852124915 3803.084706009676 3747.474363458837 3741.452467308832 3762.1535819007254 3748.2376083233817
          3723.3300000000418 3776.102459292694 3786.008915560732 3723.3300000000418 3766.441080741318 3768.4718769968713
          3765.218100939773 3779.810372154934 3723.3300000000413 3723.3300000000427 3636.0372838029307 3649.677010047028
          3675.713136671815 3697.06023006708 3709.6161725135175 3715.806481916393 3720.876765363279 3722.4762888226546
          3722.8087731274977 3826.8726137998415 3816.4290280202276 3795.7082928126215 3785.847033960731 3797.418763951191
          3723.330000000043
        </DataArray>
        <DataArray type="Float64" Name="ALEdispl" NumberOfComponents="3" format="ascii" RangeMin="0" RangeMax="0.012878058051792087">
          0 0 0 0 0.0019067273436046053 0
          0 0 0 0 0.007009765742495696 0
          0 0.004000238140451382 0 0 0.008990649844000017 0
          0 0.010379142027576995 0 0 0.010519548392961467 0
          0 0.00854669175474404 0 0 0.011726618995888343 0
          0 0.010221305583506377 0 0 0.012878058051792087 0
          0 0.006048478161754747 0 0 0.0021800693300617706 0
          0 0.011687424743156672 0 0 0.012878058051792086 0
          0 0.010123265134338595 0 0 0.011645572697664358 0
          0 0.012878058051792086 0 0 0.012878058051792082 0
          0 0.011591482465306658 0 0 0.008196746217594522 0
          0 0.010204743325105788 0 0 0.004004757509248756 0
          0 0.012878058051792084 0 0 0.011535585049821677 0
          0 0 0 0 0.009858901354701837 0
          0 0.012878058051792086 0 0 0.00594192973158719 0
          0 0.011458716359964658 0 0 0.012878058051792087 0
          0 0.009902631848245531 0 0 0.011383563856636882 0
          0 0.012878058051792084 0 0 0.008043326280727346 0
          0 0.009942436706718514 0 0 0.0017760098460933675 0
          0 0.011296398379640303 0 0 0.012878058051792087 0
          0 0.009300282881428827 0 0 0.011209642409910504 0
          0 0.012878058051792086 0 0 0.0028686061293934388 0
          0 0.012878058051792084 0 0 0.009421468215735697 0
          0 0.011120437186202163 0 0 0.012878058051792086 0
          0 0.006948485667420178 0 0 0.004201289702503291 0
          0 0.011046365832795325 0 0 0.012878058051792086 0
          0 0.008901421542635584 0 0 0.012878058051792087 0
          0 0.01098715641241432 0 0 0.012878058051792086 0
          0 0.012878058051792086 0 0 0.010953851806424702 0
          0 0.008752483515723657 0 0 0.01095318882652544 0
          0 0.01098621344015694 0 0 0.011047613198697421 0
          0 0.008972824221288324 0 0 0.006241665142433775 0
          0 0.008578772072287053 0 0 0.003824554722343466 0
          0 0 0 0 0.008630207677119988 0
          0 0.008733888728294508 0 0 0 0
          0 0.005879276190380777 0 0 0.002306969865343526 0
          0 0.0035005740586388527 0 0 0.005919786794968046 0
          0 0 0 0 0 0
          0 0.012878058051792087 0 0 0.011756042538586139 0
          0 0.010644950137528706 0 0 0.0090410110856188 0
          0 0.006977963391579188 0 0 0.00531881312847258 0
          0 0.0034763303200215376 0 0 0.0016454243647116846 0
          0 0 0 0 0.012878058051792086 0
          0 0.011128331220950527 0 0 0.008917446981086126 0
          0 0.006689276506161974 0 0 0.0030075323420248093 0
          0 0 0
          <InformationKey name="L2_NORM_RANGE" location="vtkDataArray" length="2">
            <Value index="0">
              0
            </Value>
            <Value index="1">
              0.012878058052
            </Value>
          </InformationKey>
        </DataArray>
        <DataArray type="Float64" Name="ALEveloc" NumberOfComponents="3" format="ascii" RangeMin="0" RangeMax="1.5999308930993563">
          0 0 0 0 0.2368860250110271 0
          0 0 0 0 0.8708720460572651 0
          0 0.49697746002720194 0 0 1.1169710818668679 0
          0 1.289473141602703 0 0 1.3069168028024716 0
          0 1.0618150746967376 0 0 1.4568795953297213 0
          0 1.2698640202654692 0 0 1.5999308930993563 0
          0 0.7514445911261886 0 0 0.27084520478449514 0
          0 1.4520102201859573 0 0 1.599930893099356 0
          0 1.2576837720660876 0 0 1.4468106489265908 0
          0 1.599930893099356 0 0 1.5999308930993557 0
          0 1.440090642430583 0 0 1.0183389020054792 0
          0 1.2678063754895235 0 0 0.49753893270632393 0
          0 1.5999308930993559 0 0 1.4331461169812367 0
          0 0 0 0 1.2248400174909557 0
          0 1.599930893099356 0 0 0.7382073371589577 0
          0 1.4235961839773856 0 0 1.5999308930993563 0
          0 1.2302729614417949 0 0 1.4142594647853854 0
          0 1.5999308930993559 0 0 0.9992784741347577 0
          0 1.2352181963918354 0 0 0.22064607938446085 0
          0 1.4034302901615638 0 0 1.5999308930993563 0
          0 1.15543895179836 0 0 1.392651991479164 0
          0 1.599930893099356 0 0 0.3563869294650412 0
          0 1.5999308930993559 0 0 1.1704946503647407 0
          0 1.381569404907274 0 0 1.599930893099356 0
          0 0.8632587952976813 0 0 0.5219554966177397 0
          0 1.3723670045039933 0 0 1.599930893099356 0
          0 1.1058856281969436 0 0 1.5999308930993563 0
          0 1.3650110056065592 0 0 1.599930893099356 0
          0 1.599930893099356 0 0 1.360873342319828 0
          0 1.0873820192323531 0 0 1.3607909757069374 0
          0 1.3648938535918804 0 0 1.372521973462336 0
          0 1.1147564805387427 0 0 0.7754455559680852 0
          0 1.065800636098238 0 0 0.47515108473787554 0
          0 0 0 0 1.072190839717953 0
          0 1.0850718592114197 0 0 0 0
          0 0.7304234511308726 0 0 0.2866109425946203 0
          0 0.4349007092120631 0 0 0.7354563658387143 0
          0 0 0 0 0 0
          0 1.5999308930993563 0 0 1.4605350870783456 0
          0 1.322496335397742 0 0 1.1232278098577406 0
          0 0.8669210183867982 0 0 0.6607932193380288 0
          0 0.43188874062005395 0 0 0.20442253504162947 0
          0 0 0 0 1.599930893099356 0
          0 1.3825501358539984 0 0 1.1078765800896413 0
          0 0.8310554348839068 0 0 0.3736467009737811 0
          0 0 0
          <InformationKey name="L2_NORM_RANGE" location="vtkDataArray" length="2">
            <Value index="0">
              0
            </Value>
            <Value index="1">
              1.5999308931
            </Value>
          </InformationKey>
        </DataArray>
      </PointData>
      <CellData>
        <DataArray type="UInt8" Name="vtkGhostType" format="ascii" RangeMin="0" RangeMax="1">
          1 1 0 1 0 0
          0 0 1 1 0 0
          0 1 0 0 1 1
          0 0 0 1 1 0
          0 1 0 1 1 0
          0 1 1 0 0 0
          0 0 0 0 0 0
          0 0 0 0 0 0
          0 0 0 0 0 0
          0 0 0 0 0 0
          0 0 0 0 0 0
          0 0 0 0 0 0
          0 0 0 0 0 0
          0 0 0 0 0 0
          0 0 0 0 0 0
          0 0 0 0 0 0
          0 0 0 0 0 0
          0 0 0 0 0 0
          0 0 0 0 0 0
          0 0 0 0 0 0
          0 0 0 0 0 0
          0 0 0 0 0 0
          0 0 0 0 0 0
          0 0 0 0
        </DataArray>
      </CellData>
      <Points>
        <DataArray type="Float32" Name="Points" NumberOfComponents="3" format="ascii" RangeMin="2.5330862087033426" RangeMax="4.415217469119645">
          -2.170166015625 -2.283679962158203 0 -2.691119909286499 -1.8072350025177002 0
          -2.74910306930542 -2.283679962158203 0 -2.690108060836792 -1.0087660551071167 0
          -2.8477039337158203 -1.4020040035247803 0 -2.6877200603485107 -0.8177986741065979 0
          -2.706774950027466 -0.7134789824485779 0 -2.7652220726013184 -0.7408525943756104 0
          -2.841264009475708 -0.9035742282867432 0 -2.779505968093872 -0.6740062832832336 0
          -2.8342409133911133 -0.7870715260505676 0 -2.789099931716919 -0.6153690218925476 0
          -2.9563119411468506 -1.1200250387191772 0 -3.0674641132354736 -1.6710790395736694 0
          -2.8320600986480713 -0.7043485045433044 0 -2.8313260078430176 -0.644936203956604 0
          -2.9055979251861572 -0.8061913251876831 0 -2.889085054397583 -0.7251037955284119 0
          -2.878045082092285 -0.6667217016220093 0 -2.9278368949890137 -0.6800634860992432 0
          -2.948848009109497 -0.735641598701477 0 -3.0256359577178955 -0.9197046160697937 0
          -2.988478899002075 -0.8006740808486938 0 -3.1323978900909424 -1.3007270097732544 0
          -2.9791901111602783 -0.6845563054084778 0 -3.0095319747924805 -0.735641598701477 0
          -3.282470941543579 -2.283679962158203 0 -3.0527820587158203 -0.8061913251876831 0
          -3.030543088912964 -0.6800634860992432 0 -3.156229019165039 -1.0495460033416748 0
          -3.0692949295043945 -0.7251037955284119 0 -3.0803349018096924 -0.6667217016220093 0
          -3.1287789344787598 -0.7726597189903259 0 -3.1263198852539062 -0.7043485045433044 0
          -3.12705397605896 -0.644936203956604 0 -3.1992249488830566 -0.8433429002761841 0
          -3.176959991455078 -0.7415673136711121 0 -3.3836259841918945 -1.561750054359436 0
          -3.1788740158081055 -0.6740062832832336 0 -3.1692800521850586 -0.6153690218925476 0
          -3.2516050338745117 -0.7134789824485779 0 -3.2253611087799072 -0.6349989771842957 0
          -3.20573091506958 -0.5789185166358948 0 -3.417664051055908 -1.20107102394104 0
          -3.235297918319702 -0.5366920828819275 0 -3.2887110710144043 -0.6606734991073608 0
          -3.2643680572509766 -0.5885120034217834 0 -3.2570838928222656 -0.4899730086326599 0
          -3.3560099601745605 -0.7656483054161072 0 -3.431668996810913 -0.9636631011962891 0
          -3.294711112976074 -0.5359575748443604 0 -3.270426034927368 -0.4401806890964508 0
          -3.3462131023406982 -0.6007289290428162 0 -3.2749180793762207 -0.38882800936698914 0
          -3.3154659271240234 -0.47893279790878296 0 -3.270426034927368 -0.3374752998352051 0
          -3.2570838928222656 -0.28768301010131836 0 -3.3260040283203125 -0.4191702902317047 0
          -3.3774330615997314 -0.5337768197059631 0 -3.3260040283203125 -0.35848569869995117 0
          -3.3154659271240234 -0.2987231910228729 0 -3.294711112976074 -0.24169839918613434 0
          -3.384929895401001 -0.4598917067050934 0 -3.462165117263794 -0.614043116569519 0
          -3.402992010116577 -0.38882800936698914 0 -3.53951096534729 -0.7811691761016846 0
          -3.778749942779541 -2.283679962158203 0 -3.3965530395507812 -0.31523561477661133 0
          -3.3774330615997314 -0.24387919902801514 0 -3.778749942779541 -1.7314280271530151 0
          -3.5027570724487305 -0.47875070571899414 0 -3.6378090381622314 -0.7895874977111816 0
          -3.5936028957366943 -0.6207522749900818 0 -3.501086950302124 -0.3039725124835968 0
          -3.778749942779541 -1.111603021621704 0 -3.778749942779541 -0.4253365099430084 0
          -2.7526490688323975 -0.5789185166358948 0 -2.7330191135406494 -0.6349989771842957 0
          -2.657727003097534 -0.6464416980743408 0 -2.5426599979400635 -0.6944894194602966 0
          -2.4337658882141113 -0.876357913017273 0 -2.4568591117858887 -1.145993947982788 0
          -2.194478988647461 -1.3969999551773071 0 -1.8212720155715942 -1.7605379819869995 0
          -1.546241044998169 -2.283679962158203 0 -3.235297918319702 -0.24096380174160004 0
          -3.2643680572509766 -0.18914400041103363 0 -3.3462131023406982 -0.1769271045923233 0
          -3.435275077819824 -0.1454842984676361 0 -3.613848924636841 -0.13029329478740692 0
          -3.778749942779541 0.2763518989086151 0
          <InformationKey name="L2_NORM_RANGE" location="vtkDataArray" length="2">
            <Value index="0">
              2.5330862087
            </Value>
            <Value index="1">
              4.4152174691
            </Value>
          </InformationKey>
        </DataArray>
      </Points>
      <Cells>
        <DataArray type="Int64" Name="connectivity" format="ascii" RangeMin="0" RangeMax="90">
          76 11 77 77 11 9
          9 14 7 77 9 6
          6 9 7 6 7 5
          10 16 8 16 21 8
          78 77 6 78 6 79
          7 14 10 7 10 5
          10 8 5 6 5 79
          5 8 3 3 8 12
          5 3 80 79 5 80
          8 21 12 12 23 4
          3 12 4 80 3 81
          81 3 4 4 23 13
          4 13 1 82 81 1
          1 13 26 4 1 81
          83 82 1 26 2 1
          1 2 0 0 84 83
          0 83 1 19 24 20
          34 39 38 28 31 30
          15 18 14 42 44 46
          24 28 25 11 15 9
          39 42 41 31 34 33
          18 19 17 17 19 20
          41 42 46 30 31 33
          38 39 41 14 18 17
          33 34 38 25 28 30
          20 24 25 9 15 14
          41 46 45 17 20 16
          30 33 32 38 41 40
          33 38 36 25 30 27
          20 25 22 14 17 10
          32 33 36 32 36 35
          27 30 32 27 32 35
          10 17 16 16 20 22
          36 38 40 36 40 35
          40 41 45 40 45 48
          22 25 27 22 27 21
          40 48 35 21 27 35
          22 21 16 21 35 29
          29 35 49 21 29 12
          35 48 49 12 29 23
          23 29 43 29 49 43
          43 49 74 23 43 37
          37 43 74 23 37 13
          13 37 26 66 26 69
          37 74 69 37 69 26
          47 51 54 56 85 61
          53 55 59 51 53 57
          55 56 60 44 47 50
          60 56 61 59 55 60
          54 51 57 50 47 54
          57 53 59 61 85 86
          46 44 50 61 86 87
          60 61 68 59 60 67
          50 54 58 57 59 64
          54 57 62 46 50 52
          64 59 67 64 67 73
          52 50 58 52 58 63
          62 57 64 62 64 70
          67 60 68 67 68 73
          45 46 52 45 52 48
          68 61 87 68 87 88
          58 54 62 58 70 63
          48 52 63 68 88 73
          64 73 70 70 73 75
          62 70 58 63 70 72
          48 63 65 65 63 72
          65 72 71 48 65 49
          73 88 89 72 70 75
          49 65 71 71 72 75
          73 89 75 75 89 90
          49 71 74 74 71 75
        </DataArray>
        <DataArray type="Int64" Name="offsets" format="ascii" RangeMin="3" RangeMax="426">
          3 6 9 12 15 18
          21 24 27 30 33 36
          39 42 45 48 51 54
          57 60 63 66 69 72
          75 78 81 84 87 90
          93 96 99 102 105 108
          111 114 117 120 123 126
          129 132 135 138 141 144
          147 150 153 156 159 162
          165 168 171 174 177 180
          183 186 189 192 195 198
          201 204 207 210 213 216
          219 222 225 228 231 234
          237 240 243 246 249 252
          255 258 261 264 267 270
          273 276 279 282 285 288
          291 294 297 300 303 306
          309 312 315 318 321 324
          327 330 333 336 339 342
          345 348 351 354 357 360
          363 366 369 372 375 378
          381 384 387 390 393 396
          399 402 405 408 411 414
          417 420 423 426
        </DataArray>
        <DataArray type="UInt8" Name="types" format="ascii" RangeMin="5" RangeMax="5">
          5 5 5 5 5 5
          5 5 5 5 5 5
          5 5 5 5 5 5
          5 5 5 5 5 5
          5 5 5 5 5 5
          5 5 5 5 5 5
          5 5 5 5 5 5
          5 5 5 5 5 5
          5 5 5 5 5 5
          5 5 5 5 5 5
          5 5 5 5 5 5
          5 5 5 5 5 5
          5 5 5 5 5 5
          5 5 5 5 5 5
          5 5 5 5 5 5
          5 5 5 5 5 5
          5 5 5 5 5 5
          5 5 5 5 5 5
          5 5 5 5 5 5
          5 5 5 5 5 5
          5 5 5 5 5 5
          5 5 5 5 5 5
          5 5 5 5 5 5
          5 5 5 5
        </DataArray>
      </Cells>
    </Piece>
  </UnstructuredGrid>
</VTKFile>
