<?xml version="1.0"?>
<VTKFile type="UnstructuredGrid" version="0.1" byte_order="LittleEndian" header_type="UInt32" compressor="vtkZLibDataCompressor">
  <UnstructuredGrid>
    <Piece NumberOfPoints="90" NumberOfCells="138">
      <PointData>
        <DataArray type="Float64" Name="ale_BC" NumberOfComponents="3" format="ascii" RangeMin="0" RangeMax="1">
          0 0 0 0 0 0
          0 0 0 0 0 0
          0 0 0 0 0 0
          0 0 0 0 0 0
          0 0 0 0 0 0
          0 0 0 0 0 0
          0 0 0 0 0 0
          0 0 0 0 0 0
          0 0 0 0 0 0
          0 0 0 0 0 0
          0 0 0 0 0 0
          0 0 0 0 0 0
          0 0 0 0 0 0
          0 0 0 0 0 0
          0 0 0 0 0 0
          0 0 0 0 0 0
          0 0 0 0 0 0
          0 0 0 0 0 0
          0 0 0 0 0 0
          0 0 0 0 0 0
          0 0 0 0 0 0
          0 0 0 0 0 0
          0 0 0 0 0 0
          0 0 0 0 0 0
          0 0 0 0 0 0
          0 0 0 0 0 0
          0 0 0 0 0 0
          0 0 0 0 0 0
          0 0 0 0 0 0
          0 0 0 0 0 0
          0 0 0 0 0 0
          0 0 0 0 0 0
          0 0 0 0 1 0
          0 1 0 0 1 0
          0 1 0 0 1 0
          0 0 0 0 1 0
          0 0 0 0 1 0
          0 0 0 0 0 0
          0 0 0 0 0 0
          0 0 0 0 0 0
          0 0 0 0 0 0
          0 0 0 0 0 0
          0 0 0 0 0 0
          0 0 0 0 1 0
          0 0 0 0 0 0
          <InformationKey name="L2_NORM_RANGE" location="vtkDataArray" length="2">
            <Value index="0">
              0
            </Value>
            <Value index="1">
              1
            </Value>
          </InformationKey>
        </DataArray>
        <DataArray type="Float64" Name="ale_FIXNO" NumberOfComponents="3" format="ascii" RangeMin="1.4142135623730951" RangeMax="1.4142135623730951">
          1 1 0 1 1 0
          1 1 0 -1 -1 0
          1 1 0 1 1 0
          -1 -1 0 -1 -1 0
          1 1 0 -1 -1 0
          1 1 0 -1 -1 0
          -1 -1 0 1 1 0
          1 1 0 -1 -1 0
          -1 -1 0 -1 -1 0
          -1 -1 0 1 1 0
          -1 -1 0 1 1 0
          -1 -1 0 -1 -1 0
          -1 -1 0 -1 -1 0
          -1 -1 0 -1 -1 0
          -1 -1 0 -1 -1 0
          -1 -1 0 1 1 0
          -1 -1 0 1 1 0
          -1 -1 0 -1 -1 0
          -1 -1 0 1 1 0
          -1 -1 0 -1 -1 0
          1 1 0 -1 -1 0
          -1 -1 0 -1 -1 0
          -1 -1 0 -1 -1 0
          -1 -1 0 -1 -1 0
          -1 -1 0 -1 -1 0
          -1 -1 0 -1 -1 0
          1 1 0 -1 -1 0
          -1 -1 0 -1 -1 0
          -1 -1 0 -1 -1 0
          -1 -1 0 -1 -1 0
          -1 -1 0 -1 -1 0
          -1 -1 0 -1 -1 0
          -1 -1 0 1 1 0
          1 1 0 1 1 0
          1 1 0 1 1 0
          -1 -1 0 1 1 0
          1 1 0 1 1 0
          -1 -1 0 -1 -1 0
          -1 -1 0 -1 -1 0
          -1 -1 0 -1 -1 0
          -1 -1 0 -1 -1 0
          -1 -1 0 -1 -1 0
          -1 -1 0 1 1 0
          1 1 0 1 1 0
          -1 -1 0 -1 -1 0
          <InformationKey name="L2_NORM_RANGE" location="vtkDataArray" length="2">
            <Value index="0">
              1.4142135624
            </Value>
            <Value index="1">
              1.4142135624
            </Value>
          </InformationKey>
        </DataArray>
        <DataArray type="Float64" Name="Density" format="ascii" RangeMin="0.9873002356574152" RangeMax="1.0101495889807597">
          0.9999999999999954 0.999999935871193 0.9999999999999954 0.9999994376507069 0.9999993306113679 0.9999999999999954
          0.9999969051358557 0.9999993117057541 0.9999976348800056 1.0000001380706067 0.9999999999999957 1.0000004438899643
          0.9999854465687733 0.9999852642219811 0.9999999999999954 1.000015906819579 0.9999159970410355 0.9999990782248491
          0.9999055191392447 1.0000106071544599 1.0000978819144786 0.9999999999999954 1.0000565768007172 0.9998658873938945
          1.0000008938723841 0.9995456593823443 1.0000030054533398 0.9996953654388844 0.9992316742141725 1.0004247752697284
          1.0005848937317456 0.9999999999999954 1.0001147464771416 1.0000005726578187 0.998510136638271 0.9999805312297027
          0.9988181492296239 1.0000010621096693 0.997687746149761 0.9991956546947499 1.0000161810429788 0.9963686105513314
          0.9973857949363771 1.0017078854248609 1.0024972071465195 1.002147006306172 0.9976843544317128 0.9946842648977409
          1.00083123986729 1.0010016439931362 0.9940238972811365 0.9985537414752315 1.0000914637263536 0.9960648534687901
          1.004161833840269 0.9920608151848797 1.0011152805827888 0.9931306533617983 1.0035828277176844 0.9955094867037545
          0.9905217545382391 0.9984466755337201 0.98872225310683 1.0015497009019172 1.006475900404026 0.9960587460410393
          0.9930632601525693 0.9994168762831742 0.9900307225699377 1.0029982266195936 1.0047475689036807 1.0065734073528185
          1.0004302037173958 0.9878534427874913 0.9873002356574152 0.9904496017712651 1.008382840902343 0.9926502508716577
          1.0052497145413088 0.9949383545495047 1.0041043013643387 1.000232439945875 1.0025673526391725 1.0033184160409514
          1.0016367914013353 1.0007602552634898 1.001590068115403 1.0101495889807597 1.0080693101032827 1.0094535192255056
        </DataArray>
        <DataArray type="Float64" Name="Momentum" NumberOfComponents="3" format="ascii" RangeMin="0.000004866517392146684" RangeMax="1.614779814503906">
          -0.0000013921748272175723 -0.000004663136367138312 0 0.00004324621253882312 0 0
          -0.00002141107357025546 0.00004260565483869038 0 -0.00006926141389273013 -0.00007586538770136211 0
          0.00001505632819077455 0 0 0.000034194196617964096 0.000041118200090070206 0
          -0.00019001687213264477 0.00021664098089854805 0 0.00015544118018026774 -0.00009206906361779544 0
          0.00022722563453133487 0 0 -0.0001411932350239086 0.00001802038020409282 0
          -0.00007893073218467356 -0.00010896683039558826 0 -0.00017077704149248078 -0.00003660648515167841 0
          -0.0012650179497843265 -0.0003121677044138532 0 -0.0004320526902337487 0 0
          -0.000025404546543828986 -0.00006249397002621297 0 0.0014368093099922 -0.0016178541565202748 0
          -0.0035941636416608343 0.005010206848418264 0 0.00019934928399768125 0.00019412292224546036 0
          -0.005403715754433284 0.00019555258353362232 0 0.0034273742317609793 0 0
          0.0037987862268461163 -0.008157781681596211 0 0.00003014592129088351 -0.00002866951170333002 0
          0.003045396372922183 -0.0010982842425138817 0 0.003950344486871589 0.01797048398235241 0
          0.00011639454728484872 0.00009494526469205275 0 -0.036283176146077886 0.008165634893044999 0
          0.00037282634661912905 -0.00006201411905139853 0 -0.029132328114811822 -0.027946042544383418 0
          -0.05180836073291672 0.08777079849725263 0 0.024008367495673897 -0.0037187189912873523 0
          0.03530566996391279 -0.03606546054071183 0 -0.000052438038414598334 -0.00003647520396877992 0
          0.00769181137703274 0.00012332556159223387 0 -0.000052017907803290514 0 0
          -0.10999669344319893 0.056930196436357376 0 -0.0138247659475821 -0.11614067755813667 0
          -0.14821356113026984 -0.06319090172067508 0 -0.0002020698018974713 0 0
          -0.10797461599681327 0.1891408789694213 0 -0.13634937700374117 -0.20488334947120293 0
          -0.0004941377944798603 0 0 -0.3163775519164982 0.13461484477824745 0
          -0.33914536590778777 -0.06554541547482715 0 0.10433587235942778 -0.013743465053749045 0
          0.1729228844308108 -0.09592844896108907 0 0.18517364563851998 -0.2616896502424242 0
          -0.3715340015890464 -0.14200199646068823 0 -0.5567199422456482 0.19546791425805266 0
          0.009226549179956309 -0.31921299700295436 0 0.05020442422832847 0.009102728661218714 0
          -0.5523300656005632 0.35395617236185234 0 -0.22232536859202415 0.005878469156625207 0
          0.003441514902479809 0 0 -0.4123503971850196 0.22385651926669223 0
          0.3637948108700507 -0.23790543488887655 0 -0.6025409723221324 0.5954762040565066 0
          0.016008786682778067 -0.014283753796803661 0 -0.3436111798687474 0.8283176661964949 0
          0.25279989044164003 -0.010098085029172097 0 -0.22145960439708348 0.7252004349319304 0
          -0.40336766445585903 0.9610359049610319 0 -0.08080973477553188 0.6639244322302957 0
          -0.4154636756086306 1.1144613118174636 0 0.07673824822885178 0.6523985133823315 0
          0.4741129226395687 0.09053662430038235 0 0 1.5860351294567112 0
          0 1.579829486065336 0 0 1.5928592226905856 0
          0 1.5739241586007795 0 0 1.600199007852088 0
          0.23283101026636147 0.693136866417805 0 0 1.607519896183486 0
          0.016347366059979926 0 0 0 1.5694448053689365 0
          -0.3490286929979706 1.2756824416094334 0 -0.55025446579877 0.7732488661210319 0
          0.6769760410245463 0.06718983909041795 0 -0.47614862297745264 0.6172738462840046 0
          0.4352590226174481 -0.1031157115599575 0 -0.1365896165311189 0.5057148742301257 0
          0.28339616821869584 0.005181331949695775 0 0.15666512335220156 0.30094323182571897 0
          0.14747780931648685 0.045450517495575354 0 0.13403169032282916 0.06486487769724861 0
          0.15383739634271668 0.08056944911298296 0 0.03421858099413649 0 0
          0.0720367904639458 0 0 0 1.614779814503906 0
          0.36251487340907607 0.7818561592514673 0 0.6422773631496823 0.35145234932171693 0
          <InformationKey name="L2_NORM_RANGE" location="vtkDataArray" length="2">
            <Value index="0">
              4.8665173921e-06
            </Value>
            <Value index="1">
              1.6147798145
            </Value>
          </InformationKey>
        </DataArray>
        <DataArray type="Float64" Name="Energy" format="ascii" RangeMin="3651.605354514004" RangeMax="3771.8849561150278">
          3722.830316372755 3722.829593989862 3722.830114442243 3722.827014225918 3722.8265118254185 3722.8300205017863
          3722.8138387539516 3722.826497557528 3722.817605287954 3722.830029122356 3722.8336949237623 3722.8326018641533
          3722.753740399915 3722.753181355134 3722.8341706582532 3722.9124798033267 3722.3909934737444 3722.824088302445
          3722.33673980524 3722.884391846403 3723.337611420749 3722.8318013431276 3723.126431434156 3722.1371336390634
          3722.833719258853 3720.4560123415345 3722.8457795912905 3721.222045679042 3718.847977617983 3725.0574283923584
          3725.8665988320313 3722.8339456777176 3723.432384626004 3722.8321161707418 3715.064268084483 3722.670570748757
          3716.5911663694365 3722.835927075208 3710.8105334291668 3718.5556083240763 3722.915156564798 3703.9202782946563
          3709.049631559985 3731.792243336088 3735.9114545443704 3733.9637303200766 3710.7333464279227 3694.9623582870863
          3727.156467389235 3728.074391243626 3691.3387762462116 3714.600232264624 3723.30784478182 3701.473439706197
          3744.635601462152 3680.861973002056 3727.413022263714 3690.0103319064356 3740.854216914608 3702.9999155568685
          3676.1095288840966 3718.3691293091442 3665.921041156604 3735.0115977534074 3755.8455697438394 3691.1556631335866
          3676.247650033878 3707.317763298768 3661.7900768154145 3725.429036287608 3751.531887892341 3743.9416540904444
          3725.0915125591737 3651.605354514004 3657.899447069064 3673.1618365255267 3766.8704760756045 3684.5821555482426
          3750.368705008883 3696.5849588989763 3744.297390299569 3724.178079444696 3736.3302240382377 3740.2258576897743
          3731.398992374033 3726.8009212113648 3731.2148544131583 3763.0802159387654 3768.9167291543918 3771.8849561150278
        </DataArray>
        <DataArray type="Float64" Name="ALEdispl" NumberOfComponents="3" format="ascii" RangeMin="0" RangeMax="0.02513851564592391">
          0 0 0 0 0 0
          0 0 0 0 0.0004003201694474371 0
          0 0 0 0 0 0
          0 0.0008283538255035195 0 0 0.000936776506862979 0
          0 0 0 0 0.0006246321135786891 0
          0 0 0 0 0.0014424390771130252 0
          0 0.0022775745366711672 0 0 0 0
          0 0 0 0 0.0031568375491969475 0
          0 0.002953136832066376 0 0 0.0009122856049960232 0
          0 0.004443648973759556 0 0 0 0
          0 0.004823075380664354 0 0 0 0
          0 0.0029443675624782786 0 0 0.003211938164134384 0
          0 0.0003866344034576212 0 0 0.006143880566524412 0
          0 0.0008010677938380752 0 0 0.008065300338382968 0
          0 0.006785944261844674 0 0 0.00526649608669223 0
          0 0.008123633123318246 0 0 0 0
          0 0.0025105606111198364 0 0 0 0
          0 0.009698078633305223 0 0 0.010424665924544323 0
          0 0.011340046580238078 0 0 0 0
          0 0.010382548868014072 0 0 0.014050277134929373 0
          0 0 0 0 0.0136212805681123 0
          0 0.014753939017559052 0 0 0.00802995574462742 0
          0 0.011467709909099741 0 0 0.014479595006377433 0
          0 0.01781338434028806 0 0 0.01764843718802558 0
          0 0.017939149823191034 0 0 0.0043627218900002505 0
          0 0.02051152791403967 0 0 0.02042835853845871 0
          0 0 0 0 0.0208883253770406 0
          0 0.017807947879563517 0 0 0.02077939426162991 0
          0 0.02061092247216026 0 0 0.023043932311187593 0
          0 0.020592506405622546 0 0 0.02306547495376211 0
          0 0.023006973501512828 0 0 0.0230758311878653 0
          0 0.022948293764623102 0 0 0.0230754630108006 0
          0 0.02055867697645585 0 0 0.0251385156459239 0
          0 0.025138515645923905 0 0 0.025138515645923905 0
          0 0.025138515645923905 0 0 0.02513851564592391 0
          0 0.023063075861300214 0 0 0.025138515645923898 0
          0 0 0 0 0.0251385156459239 0
          0 0.022890857761035277 0 0 0.020260525554565433 0
          0 0.018020972995529363 0 0 0.01755012990789916 0
          0 0.014560301690526231 0 0 0.01368336010625979 0
          0 0.011134453089472229 0 0 0.007808634553185983 0
          0 0.007449571201421481 0 0 0.006461065599890809 0
          0 0.003722012664249882 0 0 0 0
          0 0 0 0 0.025138515645923905 0
          0 0.023037304774468918 0 0 0.020855190788838785 0
          <InformationKey name="L2_NORM_RANGE" location="vtkDataArray" length="2">
            <Value index="0">
              0
            </Value>
            <Value index="1">
              0.025138515646
            </Value>
          </InformationKey>
        </DataArray>
        <DataArray type="Float64" Name="ALEveloc" NumberOfComponents="3" format="ascii" RangeMin="0" RangeMax="1.5995326030875847">
          0 0 0 0 0 0
          0 0 0 0 0.025471876371847276 0
          0 0 0 0 0 0
          0 0.05270712755866486 0 0 0.05960592843423497 0
          0 0 0 0 0.03974456744690985 0
          0 0 0 0 0.0917806112463907 0
          0 0.14491924577727955 0 0 0 0
          0 0 0 0 0.20086566182798357 0
          0 0.18790443758897402 0 0 0.058047602693487965 0
          0 0.2827438783704635 0 0 0 0
          0 0.3068863105197939 0 0 0 0
          0 0.187346459830502 0 0 0.20437164568494598 0
          0 0.02460106803903757 0 0 0.3909275079742219 0
          0 0.05097095117209946 0 0 0.5131850673541528 0
          0 0.4317812253690346 0 0 0.33510062063124657 0
          0 0.5168967101833112 0 0 0 0
          0 0.15974386101690138 0 0 0 0
          0 0.6170767271930812 0 0 0.6633085762686439 0
          0 0.7215531132031574 0 0 0 0
          0 0.6606287201460674 0 0 0.8940017253317654 0
          0 0 0 0 0.8667052053263047 0
          0 0.9387748590628595 0 0 0.5109361346466228 0
          0 0.7296761726394861 0 0 0.921318689552789 0
          0 1.1334435741929174 0 0 1.1229481912695005 0
          0 1.1414458760423902 0 0 0.2775945883022252 0
          0 1.3051231067005076 0 0 1.2998311423819322 0
          0 0 0 0 1.3290982624065846 0
          0 1.1330976589329724 0 0 1.322167110502302 0
          0 1.3114474592805356 0 0 1.4662568607571942 0
          0 1.3102756677848642 0 0 1.4676275924121547 0
          0 1.4639052174907905 0 0 1.4682865467564197 0
          0 1.460171498538657 0 0 1.4682631201059766 0
          0 1.3081231431227827 0 0 1.5995326030875843 0
          0 1.5995326030875847 0 0 1.5995326030875845 0
          0 1.5995326030875843 0 0 1.5995326030875845 0
          0 1.4674749411313606 0 0 1.5995326030875836 0
          0 0 0 0 1.5995326030875838 0
          0 1.4565169167954954 0 0 1.2891521375674895 0
          0 1.1466521831166285 0 0 1.1166930208410684 0
          0 0.9264539558668929 0 0 0.8706552494200033 0
          0 0.708471454122945 0 0 0.4968537414595703 0
          0 0.4740069852783099 0 0 0.4111095986444497 0
          0 0.2368270541279115 0 0 0 0
          0 0 0 0 1.5995326030875845 0
          0 1.465835158807524 0 0 1.3269899496141675 0
          <InformationKey name="L2_NORM_RANGE" location="vtkDataArray" length="2">
            <Value index="0">
              0
            </Value>
            <Value index="1">
              1.5995326031
            </Value>
          </InformationKey>
        </DataArray>
      </PointData>
      <CellData>
        <DataArray type="UInt8" Name="vtkGhostType" format="ascii" RangeMin="0" RangeMax="0">
          0 0 0 0 0 0
          0 0 0 0 0 0
          0 0 0 0 0 0
          0 0 0 0 0 0
          0 0 0 0 0 0
          0 0 0 0 0 0
          0 0 0 0 0 0
          0 0 0 0 0 0
          0 0 0 0 0 0
          0 0 0 0 0 0
          0 0 0 0 0 0
          0 0 0 0 0 0
          0 0 0 0 0 0
          0 0 0 0 0 0
          0 0 0 0 0 0
          0 0 0 0 0 0
          0 0 0 0 0 0
          0 0 0 0 0 0
          0 0 0 0 0 0
          0 0 0 0 0 0
          0 0 0 0 0 0
          0 0 0 0 0 0
          0 0 0 0 0 0
        </DataArray>
      </CellData>
      <Points>
        <DataArray type="Float32" Name="Points" NumberOfComponents="3" format="ascii" RangeMin="0.4925037585854992" RangeMax="3.241639202700283">
          1.4129199981689453 -2.283679962158203 0 0.907881498336792 -2.283679962158203 0
          1.4129199981689453 -1.722815990447998 0 0.6326431035995483 -1.7119890451431274 0
          0.35740479826927185 -2.283679962158203 0 1.4129199981689453 -1.0868619680404663 0
          0.059433531016111374 -1.6774619817733765 0 0.3824875056743622 -1.0896049737930298 0
          -0.23853769898414612 -2.283679962158203 0 0.806702196598053 -0.7360177040100098 0
          1.4129199981689453 -0.385173499584198 0 0.2064553052186966 -0.44714221358299255 0
          -0.619378924369812 -1.3252979516983032 0 -0.878979504108429 -2.283679962158203 0
          1.4129199981689453 0.30109289288520813 0 -0.6569300293922424 -0.6375854015350342 0
          -1.2383860349655151 -1.5356910228729248 0 0.4232785999774933 0.2915497124195099 0
          -1.2108949422836304 -1.0468310117721558 0 -1.546241044998169 -2.283679962158203 0
          -1.110461950302124 -0.38141998648643494 0 1.4129199981689453 0.9209179282188416 0
          -0.6843001842498779 0.15095679461956024 0 -1.8212720155715942 -1.7605379819869995 0
          0.649957001209259 0.9192463755607605 0 -1.7890180349349976 -1.240535020828247 0
          0.09380452334880829 0.87192302942276 0 -1.7670819759368896 -0.7970244288444519 0
          -2.194478988647461 -1.3969999551773071 0 -1.3651809692382812 0.18890820443630219 0
          -1.7087509632110596 -0.20195959508419037 0 1.4129199981689453 1.4731700420379639 0
          -0.9438074827194214 0.680571973323822 0 0.9166414141654968 1.4731700420379639 0
          -2.171736001968384 -1.0346059799194336 0 -1.9640419483184814 -0.49340009689331055 0
          -2.1254830360412598 -0.7467296123504639 0 0.38327258825302124 1.4731700420379639 0
          -2.4568591117858887 -1.145993947982788 0 -2.260205030441284 -0.5436676740646362 0
          -0.19566360116004944 1.4731700420379639 0 -2.4337658882141113 -0.876357913017273 0
          -2.3592519760131836 -0.6779099106788635 0 -1.8855739831924438 0.1918828934431076 0
          -2.119029998779297 -0.06761106103658676 0 -2.2871220111846924 -0.25536561012268066 0
          -2.4737329483032227 -0.5579921007156372 0 -2.5426599979400635 -0.6944894194602966 0
          -2.452078104019165 -0.39634451270103455 0 -1.733451008796692 0.7286168932914734 0
          -2.6121668815612793 -0.6007289290428162 0 -2.556238889694214 -0.4625073969364166 0
          -0.8195893168449402 1.4731700420379639 0 -2.589745044708252 -0.5272238254547119 0
          -2.4644439220428467 -0.2509022057056427 0 -2.657727003097534 -0.6464416980743408 0
          -2.5553879737854004 -0.38882800936698914 0 -2.6636691093444824 -0.5359575748443604 0
          -2.5618269443511963 -0.31523561477661133 0 -2.642914056777954 -0.47893279790878296 0
          -2.694011926651001 -0.5885120034217834 0 -2.632375955581665 -0.4191702902317047 0
          -2.7330191135406494 -0.6349989771842957 0 -2.632375955581665 -0.35848569869995117 0
          -2.580946922302246 -0.24387919902801514 0 -2.701296091079712 -0.4899730086326599 0
          -2.7230820655822754 -0.536692202091217 0 -2.6879539489746094 -0.4401806890964508 0
          -2.7526490688323975 -0.5789185166358948 0 -2.683461904525757 -0.38882800936698914 0
          -2.642914056777954 -0.2987231910228729 0 -2.6879539489746094 -0.3374752998352051 0
          -1.4868500232696533 1.4731700420379639 0 -2.789099931716919 -0.6153690218925476 0
          -2.779505968093872 -0.6740062832832336 0 -2.706774950027466 -0.7134789824485779 0
          -2.5443649291992188 -0.10779819637537003 0 -2.6877200603485107 -0.8177986741065979 0
          -2.3709781169891357 -0.062260668724775314 0 -2.690108060836792 -1.0087660551071167 0
          -2.2300779819488525 0.13570579886436462 0 -2.8477039337158203 -1.4020040035247803 0
          -2.059462070465088 0.44021978974342346 0 -2.265990972518921 0.6523954272270203 0
          -2.691119909286499 -1.8072350025177002 0 -2.170166015625 -2.283679962158203 0
          -2.1272919178009033 1.4731700420379639 0 -2.701296091079712 -0.28768301010131836 0
          -2.6636691093444824 -0.24169839918613434 0 -2.6271650791168213 -0.17486029863357544 0
          <InformationKey name="L2_NORM_RANGE" location="vtkDataArray" length="2">
            <Value index="0">
              0.49250375859
            </Value>
            <Value index="1">
              3.2416392027
            </Value>
          </InformationKey>
        </DataArray>
      </Points>
      <Cells>
        <DataArray type="Int64" Name="connectivity" format="ascii" RangeMin="0" RangeMax="89">
          69 67 61 68 73 62
          65 66 57 67 65 59
          66 68 60 61 67 59
          59 65 57 57 66 60
          62 73 74 63 69 61
          60 68 62 61 59 51
          59 57 53 63 61 56
          70 63 58 57 60 50
          62 74 75 60 62 55
          51 59 53 51 53 46
          64 70 58 64 58 54
          53 57 50 53 50 46
          58 63 56 58 48 54
          50 60 55 50 55 47
          56 61 51 56 51 48
          55 62 75 55 75 47
          64 54 76 75 77 47
          50 47 46 58 56 48
          48 51 46 48 46 39
          54 48 45 45 48 39
          54 45 78 78 76 54
          46 47 42 42 47 41
          46 42 39 39 42 36
          77 79 41 47 77 41
          78 45 44 42 41 36
          80 78 44 80 44 43
          39 36 35 44 45 35
          41 79 38 38 79 81
          41 38 34 45 39 35
          35 36 27 34 38 28
          41 34 36 36 34 27
          43 44 30 80 43 82
          82 43 49 83 82 49
          35 27 30 28 38 84
          34 28 25 35 30 44
          43 30 29 81 84 38
          25 28 23 34 25 27
          27 25 18 31 33 21
          49 43 29 49 29 32
          1 0 2 29 30 20
          23 28 84 25 23 16
          33 37 24 4 1 3
          37 40 26 8 4 6
          30 27 20 18 25 16
          18 16 12 27 18 20
          24 37 26 24 26 17
          33 24 21 14 21 24
          85 19 23 23 19 16
          40 52 32 29 20 22
          3 1 2 4 3 6
          6 3 7 85 23 84
          13 8 12 2 5 3
          72 86 49 32 29 22
          32 22 26 49 32 72
          12 16 13 18 12 15
          19 13 16 52 72 32
          26 40 32 17 26 22
          24 17 14 20 18 15
          20 15 22 7 3 5
          6 7 12 8 6 12
          83 49 86 5 10 9
          10 14 17 15 12 7
          9 10 17 5 9 7
          7 9 11 11 9 17
          7 11 15 22 15 11
          11 17 22 87 71 70
          71 69 63 88 87 70
          70 71 63 88 70 64
          89 88 64 89 64 76
        </DataArray>
        <DataArray type="Int64" Name="offsets" format="ascii" RangeMin="3" RangeMax="414">
          3 6 9 12 15 18
          21 24 27 30 33 36
          39 42 45 48 51 54
          57 60 63 66 69 72
          75 78 81 84 87 90
          93 96 99 102 105 108
          111 114 117 120 123 126
          129 132 135 138 141 144
          147 150 153 156 159 162
          165 168 171 174 177 180
          183 186 189 192 195 198
          201 204 207 210 213 216
          219 222 225 228 231 234
          237 240 243 246 249 252
          255 258 261 264 267 270
          273 276 279 282 285 288
          291 294 297 300 303 306
          309 312 315 318 321 324
          327 330 333 336 339 342
          345 348 351 354 357 360
          363 366 369 372 375 378
          381 384 387 390 393 396
          399 402 405 408 411 414
        </DataArray>
        <DataArray type="UInt8" Name="types" format="ascii" RangeMin="5" RangeMax="5">
          5 5 5 5 5 5
          5 5 5 5 5 5
          5 5 5 5 5 5
          5 5 5 5 5 5
          5 5 5 5 5 5
          5 5 5 5 5 5
          5 5 5 5 5 5
          5 5 5 5 5 5
          5 5 5 5 5 5
          5 5 5 5 5 5
          5 5 5 5 5 5
          5 5 5 5 5 5
          5 5 5 5 5 5
          5 5 5 5 5 5
          5 5 5 5 5 5
          5 5 5 5 5 5
          5 5 5 5 5 5
          5 5 5 5 5 5
          5 5 5 5 5 5
          5 5 5 5 5 5
          5 5 5 5 5 5
          5 5 5 5 5 5
          5 5 5 5 5 5
        </DataArray>
      </Cells>
    </Piece>
  </UnstructuredGrid>
</VTKFile>
