<?xml version="1.0"?>
<VTKFile type="UnstructuredGrid" version="0.1" byte_order="LittleEndian" header_type="UInt32" compressor="vtkZLibDataCompressor">
  <UnstructuredGrid>
    <Piece NumberOfPoints="36" NumberOfCells="50">
      <PointData>
        <DataArray type="Float64" Name="Velocity" NumberOfComponents="3" format="ascii" RangeMin="0" RangeMax="0.31451076663250993">
          0 0 0 0 0 0
          0 0 0 0.13708121777662266 0.032781647525283564 0
          0 0 0 0 0 0
          0.04665513015953164 -0.012090589589627389 0 0.24507688017465906 -0.06700900339585528 0
          0.08653043139886707 -0.046894635275220656 0 0 0 0
          0 0 0 0.2696861776790534 0.08514061840519821 0
          0.00744538548227823 -0.05870909104360063 0 0.07516295561081132 0.14146027366069142 0
          -0.056794536349563024 0.03244330219684072 0 0 0 0
          0 0 0 -0.16949772951547226 -0.08475113021769565 0
          0.2290099168802632 0.215572447910822 0 -0.03355925155030824 0.19268361803611997 0
          -0.262623899813768 0.04216408495923507 0 0.07354567908048198 0.1788664546631264 0
          0 0 0 0 0 0
          -0.22787121954435746 0.20047393549732712 0 0.01431284680160158 0.1850120751208977 0
          0 0 0 0 0 0
          0 0 0 0 0 0
          -0.09554377829116156 0.04493355544305233 0 0 0 0
          0 0 0 0 0 0
          0 0 0 0 0 0
          <InformationKey name="L2_NORM_RANGE" location="vtkDataArray" length="2">
            <Value index="0">
              0
            </Value>
            <Value index="1">
              0.31451076663
            </Value>
          </InformationKey>
        </DataArray>
        <DataArray type="Float64" Name="Pressure" format="ascii" RangeMin="-0.9881904028400872" RangeMax="0.9567365285259877">
          -0.5493585632853815 -0.5863831393781285 -0.33315992070373324 -0.34058905908559733 -0.660101976777594 -0.09294476280993728
          -0.09909847693175802 -0.3936350843954328 -0.11689337433782424 -0.7721275774200803 0.13499198376696978 -0.4701991329540873
          0.13856167728383462 -0.14455598384930707 0.16017980005157995 -0.8806854040757832 0.3601610650244078 0.3823687572358365
          -0.5602700238526003 0.16450455759883317 0.43428266440744523 -0.2108894243841284 0.565065169117086 -0.9881904028400872
          0.4988854651495126 0.14583620651200693 0.620871113482611 -0.6169470441302525 0.7181145786697305 -0.23677371585790644
          0.5521184554863882 0.8326645394281895 0.1323453305178075 0.9167065377057976 0.5390935182922437 0.9567365285259877
        </DataArray>
        <DataArray type="Float64" Name="Temperature" format="ascii" RangeMin="239.99999999999997" RangeMax="960">
          960 618.138384306413 960 644.2249969300224 577.2399513133375 959.9999999999999
          625.2873952589842 592.6437308590941 594.9736266441104 606.6861085628245 960 600.1175963378491
          613.2617784966919 601.6717955682351 599.3117061979417 596.897202953938 960 594.0745518594872
          613.6134734824266 601.8335353864863 598.6786641056796 597.6296190543646 959.9999999999999 240
          603.2774848740667 590.6722386898483 609.8975944606503 240.00000000000003 596.6113992143742 240
          568.1462998171676 618.6523624148783 240 584.1676248320306 240.00000000000003 239.99999999999997
        </DataArray>
        <DataArray type="Float64" Name="Density" format="ascii" RangeMin="0.3679740477447696" RangeMax="1.4718961909790786">
          0.3679740477447696 0.5714822033440805 0.3679740477447696 0.5483411657703038 0.6119726900940452 0.36797404774476966
          0.5649483557695356 0.5960665192946555 0.5937323437804782 0.582269942972327 0.3679740477447696 0.5886431059357011
          0.57602658150476 0.5871225615642415 0.5894346500855853 0.5918189666273896 0.3679740477447696 0.5946309006660364
          0.5756964295946083 0.5869647752482337 0.5900579175686504 0.5910936716857138 0.36797404774476966 1.4718961909790784
          0.58555987036168 0.5980560160039398 0.5792039336495044 1.4718961909790784 0.5921024745758292 1.4718961909790784
          0.6217678192195534 0.5710074143353553 1.4718961909790784 0.60471527489486 1.4718961909790784 1.4718961909790786
        </DataArray>
        <DataArray type="Float64" Name="stream" format="ascii" RangeMin="-0.08004073334081695" RangeMax="0.049959007540706486">
          0 0.004991420013818659 -0.0008691630854278258 0.008732373407592716 0.033783929496664 -0.007805673157052579
          -0.00505497561109783 0.02388985170459183 -0.006437186153288338 0.049959007540706486 -0.011571809691327243 0.01630874589637618
          -0.013753995534994035 -0.02986908229435432 -0.02454987650992234 0.010986754335449078 -0.010822192619970444 -0.012916089091723634
          -0.031213574645905396 -0.04791669982073483 -0.00859448493898144 -0.07082009553631853 -0.0040541063690477 -0.04344262230403519
          -0.015216787931891984 -0.060747582778906295 0.00803811780966855 -0.07652868680030693 0.011953174973494254 -0.08004073334081695
          -0.027158722078500463 -0.004024229318663721 -0.047271577410887576 -0.01565509163491503 -0.019920954565019206 -0.01565509163491503
        </DataArray>
      </PointData>
      <CellData>
        <DataArray type="UInt8" Name="vtkGhostType" format="ascii" RangeMin="0" RangeMax="0">
          0 0 0 0 0 0
          0 0 0 0 0 0
          0 0 0 0 0 0
          0 0 0 0 0 0
          0 0 0 0 0 0
          0 0 0 0 0 0
          0 0 0 0 0 0
          0 0 0 0 0 0
          0 0
        </DataArray>
      </CellData>
      <Points>
        <DataArray type="Float32" Name="Points" NumberOfComponents="3" format="ascii" RangeMin="0" RangeMax="1.4142135623730951">
          0 1 0 0.20000000298023224 1 0
          0 0.800000011920929 0 0.20000000298023224 0.800000011920929 0
          0.4000000059604645 1 0 0 0.6000000238418579 0
          0.20000000298023224 0.6000000238418579 0 0.4000000059604645 0.800000011920929 0
          0.4000000059604645 0.6000000238418579 0 0.6000000238418579 1 0
          0 0.4000000059604645 0 0.6000000238418579 0.800000011920929 0
          0.20000000298023224 0.4000000059604645 0 0.6000000238418579 0.6000000238418579 0
          0.4000000059604645 0.4000000059604645 0 0.800000011920929 1 0
          0 0.20000000298023224 0 0.20000000298023224 0.20000000298023224 0
          0.800000011920929 0.800000011920929 0 0.6000000238418579 0.4000000059604645 0
          0.4000000059604645 0.20000000298023224 0 0.800000011920929 0.6000000238418579 0
          0 0 0 1 1 0
          0.6000000238418579 0.20000000298023224 0 0.800000011920929 0.4000000059604645 0
          0.20000000298023224 0 0 1 0.800000011920929 0
          0.4000000059604645 0 0 1 0.6000000238418579 0
          0.800000011920929 0.20000000298023224 0 0.6000000238418579 0 0
          1 0.4000000059604645 0 0.800000011920929 0 0
          1 0.20000000298023224 0 1 0 0
          <InformationKey name="L2_NORM_RANGE" location="vtkDataArray" length="2">
            <Value index="0">
              0
            </Value>
            <Value index="1">
              1.4142135624
            </Value>
          </InformationKey>
        </DataArray>
      </Points>
      <Cells>
        <DataArray type="Int64" Name="connectivity" format="ascii" RangeMin="0" RangeMax="35">
          26 17 22 17 16 22
          28 20 26 20 17 26
          31 24 28 24 20 28
          33 30 31 30 24 31
          35 34 33 34 30 33
          17 12 16 12 10 16
          20 14 17 14 12 17
          24 19 20 19 14 20
          30 25 24 25 19 24
          34 32 30 32 25 30
          12 6 10 6 5 10
          14 8 12 8 6 12
          19 13 14 13 8 14
          25 21 19 21 13 19
          32 29 25 29 21 25
          6 3 5 3 2 5
          8 7 6 7 3 6
          13 11 8 11 7 8
          21 18 13 18 11 13
          29 27 21 27 18 21
          3 1 2 1 0 2
          7 4 3 4 1 3
          11 9 7 9 4 7
          18 15 11 15 9 11
          27 23 18 23 15 18
        </DataArray>
        <DataArray type="Int64" Name="offsets" format="ascii" RangeMin="3" RangeMax="150">
          3 6 9 12 15 18
          21 24 27 30 33 36
          39 42 45 48 51 54
          57 60 63 66 69 72
          75 78 81 84 87 90
          93 96 99 102 105 108
          111 114 117 120 123 126
          129 132 135 138 141 144
          147 150
        </DataArray>
        <DataArray type="UInt8" Name="types" format="ascii" RangeMin="5" RangeMax="5">
          5 5 5 5 5 5
          5 5 5 5 5 5
          5 5 5 5 5 5
          5 5 5 5 5 5
          5 5 5 5 5 5
          5 5 5 5 5 5
          5 5 5 5 5 5
          5 5 5 5 5 5
          5 5
        </DataArray>
      </Cells>
    </Piece>
  </UnstructuredGrid>
</VTKFile>
