<?xml version="1.0"?>
<VTKFile type="UnstructuredGrid" version="0.1" byte_order="LittleEndian" header_type="UInt32" compressor="vtkZLibDataCompressor">
  <UnstructuredGrid>
    <Piece NumberOfPoints="36" NumberOfCells="50">
      <PointData>
        <DataArray type="Float64" Name="Velocity" NumberOfComponents="3" format="ascii" RangeMin="0" RangeMax="0.48135066472820276">
          0 0 0 0 0 0
          0 0 0 0.18797093010601815 0.07606346507417223 0
          0 0 0 0 0 0
          0.06526161601057169 0.008657710845357726 0 0.314651076676115 -0.08845955158372511 0
          0.11832786056619671 -0.07781813200776735 0 0 0 0
          0 0 0 0.3612683340305157 0.06684174849294665 0
          -0.018202462920240067 -0.07542330546779441 0 0.1415914513070546 0.1563435249082045 0
          -0.08324132736263379 0.01829530655010994 0 0 0 0
          0 0 0 -0.2778077015344863 -0.14242136485596762 0
          0.38433902358444105 0.28979644129015997 0 -0.043250403005190396 0.24706775072105808 0
          -0.3298554716234332 0.0632820472387125 0 0.1552663684639977 0.23205856269262776 0
          0 0 0 0 0 0
          -0.27609163926479463 0.2631680029042853 0 0.0012404506508781749 0.19654633790807155 0
          0 0 0 0 0 0
          0 0 0 0 0 0
          -0.13802020148121663 0.023569421933462564 0 0 0 0
          0 0 0 0 0 0
          0 0 0 0 0 0
          <InformationKey name="L2_NORM_RANGE" location="vtkDataArray" length="2">
            <Value index="0">
              0
            </Value>
            <Value index="1">
              0.48135066473
            </Value>
          </InformationKey>
        </DataArray>
        <DataArray type="Float64" Name="Pressure" format="ascii" RangeMin="-0.9075797037910427" RangeMax="0.9224580086923877">
          -0.5487218622343567 -0.5826916213870357 -0.3358343517306384 -0.34005217470639815 -0.6454237858137787 -0.09083851854786258
          -0.09621045697735153 -0.38250090139739246 -0.10811550329157442 -0.7384137788648916 0.13795144000576984 -0.4435336022610056
          0.14124494363158513 -0.12953855298880607 0.16764825913579523 -0.8262392779049524 0.36704046235245774 0.3894456511072948
          -0.5284763215890738 0.1578859931366265 0.42499700479692204 -0.21506225827336367 0.5758361132238472 -0.9075797037910427
          0.46682126117772027 0.11746680616657632 0.6285123601612942 -0.5803396114795091 0.702778488891215 -0.24777664242427216
          0.5153486032048178 0.8014177448417584 0.10642188770037869 0.8847801983629549 0.4976586308958097 0.9224580086923877
        </DataArray>
        <DataArray type="Float64" Name="Temperature" format="ascii" RangeMin="239.99999999999997" RangeMax="960.0000000000001">
          960 632.6370051330574 960.0000000000001 685.779968945094 563.3118169442208 960
          649.2465489408147 596.8820540186797 593.7625072336743 602.5141932307945 960 598.2250678923136
          618.6697438757765 601.6814810640565 599.6591297383926 598.8495124218083 959.9999999999999 584.9369537986294
          628.2902667094855 603.6365087672074 597.2305587366044 600.2724718340077 960.0000000000001 240
          601.7549219027626 575.5081643056989 612.8240421600538 239.99999999999997 600.7296189748536 239.99999999999997
          535.9761457426096 632.7282317133833 240 571.7938196620289 240 239.99999999999997
        </DataArray>
        <DataArray type="Float64" Name="Density" format="ascii" RangeMin="0.3679138183568795" RangeMax="1.4716552734275183">
          0.36791381835687953 0.5582937178142452 0.3679138183568795 0.515030011981704 0.6270013427706559 0.36791381835687953
          0.5440110019819324 0.5917371166457467 0.5948460223063631 0.5862057186216546 0.36791381835687953 0.5904086682074368
          0.5708979130124121 0.5870170127190637 0.588996728485882 0.5897930252865009 0.3679138183568796 0.6038210841850764
          0.5621561948944195 0.5851158114076479 0.5913918175415641 0.5883949076383322 0.3679138183568795 1.4716552734275181
          0.5869453705601387 0.6137137360139912 0.5763436832172429 1.4716552734275183 0.5879471470465136 1.4716552734275183
          0.6589794497910721 0.5582132231814142 1.4716552734275181 0.6177003903808705 1.4716552734275181 1.4716552734275183
        </DataArray>
        <DataArray type="Float64" Name="stream" format="ascii" RangeMin="-0.09525141478757267" RangeMax="0.06757845664124505">
          0 0.003992486624385269 -0.0009325622085987157 0.009062509153091274 0.03849190781059593 -0.010339235872015764
          -0.008804181242403302 0.028423346697421092 -0.00867391887264415 0.06757845664124505 -0.015499479280436575 0.029488468903779933
          -0.01924473108029859 -0.03359663162405478 -0.03045232253195819 0.033196990379431926 -0.013160774623074661 -0.014749843229794292
          -0.026024608192618953 -0.05841201898743281 -0.0064157488444257045 -0.08416363089696673 -0.002165727618444137 -0.03965811657259954
          -0.01641339984127207 -0.07343651622465151 0.015111259685805662 -0.08760061541930964 0.018928619333341088 -0.09525141478757267
          -0.030303188126641414 -0.0017786067552624126 -0.05344592881092366 -0.014591081989655535 -0.019409494877744106 -0.014591081989655535
        </DataArray>
      </PointData>
      <CellData>
        <DataArray type="UInt8" Name="vtkGhostType" format="ascii" RangeMin="0" RangeMax="0">
          0 0 0 0 0 0
          0 0 0 0 0 0
          0 0 0 0 0 0
          0 0 0 0 0 0
          0 0 0 0 0 0
          0 0 0 0 0 0
          0 0 0 0 0 0
          0 0 0 0 0 0
          0 0
        </DataArray>
      </CellData>
      <Points>
        <DataArray type="Float32" Name="Points" NumberOfComponents="3" format="ascii" RangeMin="0" RangeMax="1.4142135623730951">
          0 1 0 0.20000000298023224 1 0
          0 0.800000011920929 0 0.20000000298023224 0.800000011920929 0
          0.4000000059604645 1 0 0 0.6000000238418579 0
          0.20000000298023224 0.6000000238418579 0 0.4000000059604645 0.800000011920929 0
          0.4000000059604645 0.6000000238418579 0 0.6000000238418579 1 0
          0 0.4000000059604645 0 0.6000000238418579 0.800000011920929 0
          0.20000000298023224 0.4000000059604645 0 0.6000000238418579 0.6000000238418579 0
          0.4000000059604645 0.4000000059604645 0 0.800000011920929 1 0
          0 0.20000000298023224 0 0.20000000298023224 0.20000000298023224 0
          0.800000011920929 0.800000011920929 0 0.6000000238418579 0.4000000059604645 0
          0.4000000059604645 0.20000000298023224 0 0.800000011920929 0.6000000238418579 0
          0 0 0 1 1 0
          0.6000000238418579 0.20000000298023224 0 0.800000011920929 0.4000000059604645 0
          0.20000000298023224 0 0 1 0.800000011920929 0
          0.4000000059604645 0 0 1 0.6000000238418579 0
          0.800000011920929 0.20000000298023224 0 0.6000000238418579 0 0
          1 0.4000000059604645 0 0.800000011920929 0 0
          1 0.20000000298023224 0 1 0 0
          <InformationKey name="L2_NORM_RANGE" location="vtkDataArray" length="2">
            <Value index="0">
              0
            </Value>
            <Value index="1">
              1.4142135624
            </Value>
          </InformationKey>
        </DataArray>
      </Points>
      <Cells>
        <DataArray type="Int64" Name="connectivity" format="ascii" RangeMin="0" RangeMax="35">
          26 17 22 17 16 22
          28 20 26 20 17 26
          31 24 28 24 20 28
          33 30 31 30 24 31
          35 34 33 34 30 33
          17 12 16 12 10 16
          20 14 17 14 12 17
          24 19 20 19 14 20
          30 25 24 25 19 24
          34 32 30 32 25 30
          12 6 10 6 5 10
          14 8 12 8 6 12
          19 13 14 13 8 14
          25 21 19 21 13 19
          32 29 25 29 21 25
          6 3 5 3 2 5
          8 7 6 7 3 6
          13 11 8 11 7 8
          21 18 13 18 11 13
          29 27 21 27 18 21
          3 1 2 1 0 2
          7 4 3 4 1 3
          11 9 7 9 4 7
          18 15 11 15 9 11
          27 23 18 23 15 18
        </DataArray>
        <DataArray type="Int64" Name="offsets" format="ascii" RangeMin="3" RangeMax="150">
          3 6 9 12 15 18
          21 24 27 30 33 36
          39 42 45 48 51 54
          57 60 63 66 69 72
          75 78 81 84 87 90
          93 96 99 102 105 108
          111 114 117 120 123 126
          129 132 135 138 141 144
          147 150
        </DataArray>
        <DataArray type="UInt8" Name="types" format="ascii" RangeMin="5" RangeMax="5">
          5 5 5 5 5 5
          5 5 5 5 5 5
          5 5 5 5 5 5
          5 5 5 5 5 5
          5 5 5 5 5 5
          5 5 5 5 5 5
          5 5 5 5 5 5
          5 5 5 5 5 5
          5 5
        </DataArray>
      </Cells>
    </Piece>
  </UnstructuredGrid>
</VTKFile>
