<?xml version="1.0"?>
<VTKFile type="UnstructuredGrid" version="0.1" byte_order="LittleEndian" header_type="UInt32" compressor="vtkZLibDataCompressor">
  <UnstructuredGrid>
    <Piece NumberOfPoints="58" NumberOfCells="82">
      <PointData>
        <DataArray type="Float64" Name="Velocity" NumberOfComponents="3" format="ascii" RangeMin="27.959817223109788" RangeMax="43.54264233887286">
          34.675348166743014 0 0 34.69016039266045 -0.002150230456242707 0
          34.6903923951669 0.0008451566547858352 0 34.715560633830606 0 0
          34.67407132618219 -0.004107126524966257 0 34.69107646781843 0.0059720888021599534 0
          34.670936157707075 -0.009933250716961798 0 34.64498327556798 0 0
          34.696051298013764 0.021597280860682612 0 34.69645149890333 0.003810712377027511 0
          34.72554664274555 0.00925190838501055 0 34.65642457146342 0.004720834109056791 0
          34.744534929622525 0 0 34.62802926214815 -0.017566242540918865 0
          34.67427349916657 0 0 34.71757645081214 -0.024831318110815473 0
          34.599834232840074 -0.011815612439993656 0 34.627633748926705 0 0
          34.656342007489705 0.019560522889980447 0 34.72340437624393 0 0
          34.89165187556601 0.040921037457632155 0 34.62976811707633 0.03995771401255506 0
          35.038841287320686 0 0 34.5151180756793 -0.032011643824919535 0
          34.88343529116989 -0.08404972225231457 0 34.59038468148386 0 0
          34.44508326881156 -0.07902184986872901 0 34.38354004444842 -0.22904711619368778 0
          36.035893986114885 0.026515625053220127 0 34.17737074217496 0.4110038867431836 0
          34.627045527804725 0 0 34.661649049806485 -0.18452771668328619 0
          34.596941631942094 0.014374499872590442 0 35.55340324316399 -1.5127554102774803 0
          34.59040050916098 0.7915408249340967 0 34.728788303635014 0 0
          34.79873096344844 0.18890834509968701 0 34.7004442377347 0 0
          34.684 0 0 34.684 0 0
          34.684 0 0 34.69005447622353 -0.004901927137448473 0
          34.67803631278364 -0.002802689797650107 0 34.68169199946062 0.0020893520909814043 0
          34.682228281034895 0.000819118216332204 0 34.6837229181972 0 0
          43.20987455956323 -5.3729361058748255 0 30.704498841162092 7.103138786761449 0
          27.956304447150956 0.4431938717023033 0 34.76394577003054 0.04733942044454659 0
          35.3170870216377 -0.1119028179650048 0 35.72322138379396 1.4922635581550274 0
          34.337447675669765 -0.38376590495834284 0 34.542068517896425 0 0
          34.702861648050806 0 0 33.349842134424556 -2.184111515332609 0
          34.684 0 0 35.55799940765878 0.19219390807023026 0
          <InformationKey name="L2_NORM_RANGE" location="vtkDataArray" length="2">
            <Value index="0">
              27.959817223
            </Value>
            <Value index="1">
              43.542642339
            </Value>
          </InformationKey>
        </DataArray>
        <DataArray type="Float64" Name="Pressure" format="ascii" RangeMin="100904.85983916902" RangeMax="106838.00046811879">
          103061.49775138829 103066.01898180548 103065.87913516186 103077.23573793314 103059.69172194938 103065.8513835632
          103059.80006357068 103047.22653111303 103071.31050818738 103070.40471912794 103079.84372260295 103052.11164515067
          103090.01868154418 103041.47508075813 103061.876245925 103075.72310928834 103029.49944615895 103049.78166890272
          103055.89286636045 103080.16854457464 103147.02426653227 103043.15556507748 103276.15667452184 102970.46704984803
          103156.95721672055 103017.70809641933 102945.21113098347 102943.82028359304 103589.12990392082 102916.3846187295
          103048.54760063981 102680.78178745325 102937.85898300527 103766.34013345523 102791.0318830674 103309.06508553462
          102808.27340568959 103179.00044646124 103064.02800004293 103064.02800004296 103043.88000004292 103067.2873063218
          103062.12813864049 103063.15180380458 103063.2470845458 103064.22113992265 106838.00046811879 100904.85983916902
          101413.6986306417 102885.16903425704 102637.33039991361 103952.54063582237 102711.14764556689 103246.08453908446
          103071.41332648027 104139.48750832556 103064.02800004293 102888.32489608777
        </DataArray>
        <DataArray type="Float64" Name="Temperature" format="ascii" RangeMin="297.23187903221134" RangeMax="305.400654229375">
          299.99787296339025 300.00167886125365 300.0015758452973 300.01115492429307 299.9963198909757 300.0015278985609
          299.99638450877086 299.98576284299446 300.0062581337928 300.0055463143386 300.0134764108108 299.98986637784867
          300.0221719779058 299.9802132954408 299.99806119284136 300.00977744860415 299.97063662871125 299.9867267769858
          299.99479594267547 300.01415223958367 300.0723739515016 299.98127987142055 300.1835579434473 299.90665251686886
          300.08355091179817 299.95891373021146 299.8990988965468 299.8945976429325 300.5734967469942 299.8553133985615
          299.98790976487317 299.57119779478097 299.882774097657 300.7026417560697 299.75681168156865 300.2134709846066
          299.7751266366882 300.09859311383013 300 300 300 300.00275898975707
          299.9983967693588 299.9992590859715 299.99934301455704 300.000160727017 305.400654229375 297.23187903221134
          297.55382289178885 299.7613664232722 299.54580520738256 300.8415971084708 299.6840320069776 300.15838177404373
          300.00627549549074 300.98606063440207 300 299.8571322315155
        </DataArray>
        <DataArray type="Float64" Name="Density" format="ascii" RangeMin="1.1626094401968763" RangeMax="1.1980444644764274">
          1.1765094574790538 1.176546143910355 1.1765449515038335 1.1766370222743971 1.1764949312077224 1.1765448227437203
          1.1764959145877112 1.1763940307650207 1.1765885894924 1.176581041303018 1.1766576877039618 1.1764337070008577
          1.1767397284537011 1.1763501335591666 1.176513040036998 1.1766251578404368 1.1762509674060877 1.1764194202406515
          1.1764575410192417 1.1766587449370594 1.1771934521589316 1.1763651358836156 1.1782306482291183 1.175827821182846
          1.1772629644936135 1.1761623143846027 1.1755690304222735 1.1755707922357788 1.18026804768527 1.1754114609050685
          1.176400692982265 1.1738328502849702 1.1755490637503572 1.1817793700246308 1.174365579272579 1.1784886498956835
          1.1744907993263332 1.1774555075004112 1.1765300000004906 1.1765300000004904 1.17630000000049 1.176556386336443
          1.1765145994991228 1.1765229034347395 1.1765236619697512 1.1765315744589362 1.1980444644764274 1.1626094401968763
          1.1672079481820121 1.175423215805191 1.173435583935716 1.1833531496782443 1.173737897477678 1.1779863657594205
          1.1765896951021582 1.1849122838321928 1.1765300000004901 1.1750838621685555
        </DataArray>
        <DataArray type="Float64" Name="Momentum" NumberOfComponents="3" format="ascii" RangeMin="32.63492089253006" RangeMax="52.166021622763544">
          40.795875059552124 0 0 40.81457444161639 -0.0025298453518109603 0
          40.8148060382206 0.0009943647954181426 0 40.84761389077673 0 0
          40.793869159588375 -0.0048320135384515885 0 40.815606413618276 0.0070264301611470395 0
          40.79021474447373 -0.01168642888708101 0 40.75615152133215 0 0
          40.822978057685965 0.025411114224741762 0 40.82318703409934 0.004483611936669328 0
          40.860081416909054 0.01088632912715541 0 40.77098603000232 0.005553748371053772 0
          40.88527459833414 0 0 40.7346868474187 -0.02066405175914262 0
          40.79473492557878 0 0 40.84957387127426 -0.029217153591524353 0
          40.69808848846841 -0.013898125563037942 0 40.73662081921797 0 0
          40.77171489885319 0.02301212466019699 0 40.85759741329317 0 0
          41.074224122925216 0.048171977350674945 0 40.7372518766626 0.047004861673977986 0
          41.28383668315705 0 0 40.58383608479465 -0.03764018141113644 0
          41.066976442603796 -0.09894862518362467 0 40.683906902427765 0 0
          40.492573141131274 -0.09289563943235622 0 40.42028540992285 -0.269261099843134 0
          42.53201424158518 0.031295545014718755 0 40.17247327395401 0.4830986789544668 0
          40.73528035483792 0 0 40.68698229971167 -0.21660469563091928 0
          40.67040234405528 0.016897929867103322 0 42.016278486938006 -1.7877431357590725 0
          40.62177573121134 0.9295582993916255 0 40.92748284046383 0 0
          40.87078934480258 0.2218711132355462 0 40.85822918043163 0 0
          40.806766520017 0 0 40.806766520017 0 0
          40.798789200017 0 0 40.81480513635991 -0.0057673936789209195 0
          40.79921600395068 -0.0032974054648025933 0 40.80380496723478 0.002458170588378886 0
          40.804462222474044 0.0009637119634652955 0 40.80649513304404 0 0
          51.767351026805535 -6.437016359628867 0 35.6973402092491 8.258176208517447 0
          32.63082075251073 0.5172994096364874 0 40.86234893108656 0.055643853813282955 0
          41.44232663214393 -0.13131074854281755 0 42.27318654116579 1.7658747816928158 0
          40.30316363959041 -0.45044058640942375 0 40.6900857592097 0 0
          40.83102940565248 0 0 39.516637608944094 -2.5879805637769535 0
          40.80676652001701 0 0 41.783631274938884 0.22584395978043448 0
          <InformationKey name="L2_NORM_RANGE" location="vtkDataArray" length="2">
            <Value index="0">
              32.634920893
            </Value>
            <Value index="1">
              52.166021623
            </Value>
          </InformationKey>
        </DataArray>
        <DataArray type="Float64" Name="Energy" format="ascii" RangeMin="248692.73849244992" RangeMax="263840.1216222141">
          254125.64594701884 254137.38970293239 254137.05458277636 254166.06246946842 254121.1442824591 254137.01420790574
          254121.2834334134 254089.24689302323 254150.66733412913 254148.4516138919 254172.89572719877 254101.7491402253
          254198.74051935453 254074.3876797562 254126.53494112994 254162.41861697097 254043.73323681677 254094.83803086673
          254111.05795940946 254173.60748979734 254345.21661105845 254078.60041620317 254669.43497017983 253894.88314485163
          254369.34879886705 254014.3017937801 253829.79140968676 253823.90983986188 255482.07722252727 253748.11511711474
          254091.76838611258 253187.3552484535 253817.86037508093 255899.7432461293 253456.22036381208 254737.76564030637
          253506.83273499305 254416.1675727571 254132.23294509572 254132.23294509575 254082.55260241224 254140.51024265314
          254127.3087747753 254129.9800182821 254130.2366410175 254132.69749777816 263840.1216222141 248692.73849244992
          249822.79354313228 253695.03451230988 253107.17199264048 256365.71414764214 253248.90336448004 254574.98143727923
          254151.19859183888 256730.7768367645 254132.23294509572 253735.41778670135
        </DataArray>
      </PointData>
      <CellData>
        <DataArray type="UInt8" Name="vtkGhostType" format="ascii" RangeMin="0" RangeMax="1">
          1 1 1 0 1 0
          1 0 0 0 0 1
          1 0 0 0 0 0
          0 0 0 0 0 0
          0 0 0 0 0 0
          0 0 0 0 0 0
          0 0 0 0 0 0
          0 0 0 0 0 0
          0 0 0 1 1 0
          0 0 0 1 0 0
          0 0 0 0 0 0
          0 0 0 0 0 0
          0 0 0 0 0 0
          0 0 0 0
        </DataArray>
      </CellData>
      <Points>
        <DataArray type="Float32" Name="Points" NumberOfComponents="3" format="ascii" RangeMin="0.30000001192092896" RangeMax="4.65725242116432">
          4 1.2000000476837158 0 4 0.5320507884025574 0
          3.75 0.09903810918331146 0 3.5 1.2000000476837158 0
          3.5 0.5320507884025574 0 3.5 -0.33397459983825684 0
          3.25 0.09903810918331146 0 3 1.2000000476837158 0
          2.9339659214019775 0.3125396966934204 0 2.9850969314575195 -0.18481269478797913 0
          2.75 0.7669873237609863 0 3.0359580516815186 -0.6821928024291992 0
          2.5 1.2000000476837158 0 2.528865098953247 0.019508730620145798 0
          3 -1.2000000476837158 0 2.5798211097717285 -0.47746700048446655 0
          2.25 0.7669873237609863 0 2 1.2000000476837158 0
          2.1248021125793457 -0.274284690618515 0 2.5 -1.2000000476837158 0
          1.8583029508590698 0.4420956075191498 0 2.1729509830474854 -0.7651854157447815 0
          1.5 1.2000000476837158 0 1.6643450260162354 -0.16851860284805298 0
          1.7341229915618896 -0.5399479269981384 0 2 -1.2000000476837158 0
          1.410377025604248 0.5858561992645264 0 1.4437849521636963 0.2196556031703949 0
          1.3130509853363037 -0.04950660839676857 0 1.3759469985961914 -0.348176509141922 0
          1.5 -1.2000000476837158 0 1.1399699449539185 -0.19158749282360077 0
          1.2639700174331665 -0.7296581864356995 0 1.0851390361785889 -0.4247578978538513 0
          0.8886095285415649 -0.6650667190551758 0 1 -1.2000000476837158 0
          0.4590522050857544 -0.7891657948493958 0 0.5 -1.2000000476837158 0
          0 -0.6000000238418579 0 0 -0.8999999761581421 0
          0 -1.2000000476837158 0 3.75 -0.7669873237609863 0
          4 -0.33397459983825684 0 4.25 0.09903810918331146 0
          4.5 0.5320507884025574 0 4.5 1.2000000476837158 0
          0.9649400115013123 -0.0952281504869461 0 0.9571449756622314 -0.27218320965766907 0
          1.1142899990081787 -1.1752379625029619e-10 0 1.1399699449539185 0.19158749282360077 0
          0.795934796333313 -0.3902161121368408 0 1.0117520093917847 0.5012874007225037 0
          1.086230993270874 0.8328040242195129 0 1 1.2000000476837158 0
          3.5 -1.2000000476837158 0 0.5882480144500732 -0.5012874007225037 0
          0 -0.30000001192092896 0 0.30146610736846924 -0.47640809416770935 0
          <InformationKey name="L2_NORM_RANGE" location="vtkDataArray" length="2">
            <Value index="0">
              0.30000001192
            </Value>
            <Value index="1">
              4.6572524212
            </Value>
          </InformationKey>
        </DataArray>
      </Points>
      <Cells>
        <DataArray type="Int64" Name="connectivity" format="ascii" RangeMin="0" RangeMax="57">
          41 42 5 5 42 2
          2 42 43 5 2 6
          2 43 1 6 2 4
          1 43 44 2 1 4
          4 1 0 0 3 4
          3 7 4 45 0 1
          1 44 45 46 47 31
          48 46 31 48 31 28
          49 48 28 31 47 33
          47 50 33 28 31 29
          31 33 29 29 33 32
          28 29 23 50 34 33
          49 28 27 27 28 23
          49 26 51 32 33 34
          29 32 24 52 51 26
          23 29 24 23 24 18
          53 52 22 24 32 30
          26 49 27 26 27 20
          52 26 22 27 23 20
          18 24 21 23 18 20
          26 20 17 21 24 25
          21 25 19 18 21 15
          15 21 19 18 15 13
          13 15 9 18 13 20
          9 15 11 13 9 8
          17 22 26 41 5 11
          54 41 11 6 4 8
          6 8 9 6 9 5
          35 30 32 14 54 11
          7 12 10 10 12 16
          7 10 4 16 12 17
          16 17 20 10 16 13
          11 15 19 19 14 11
          13 8 10 10 8 4
          30 25 24 9 11 5
          16 20 13 32 34 35
          50 55 34 34 55 36
          38 39 36 56 38 57
          39 40 37 55 57 36
          34 36 35 57 38 36
          37 35 36 37 36 39
        </DataArray>
        <DataArray type="Int64" Name="offsets" format="ascii" RangeMin="3" RangeMax="246">
          3 6 9 12 15 18
          21 24 27 30 33 36
          39 42 45 48 51 54
          57 60 63 66 69 72
          75 78 81 84 87 90
          93 96 99 102 105 108
          111 114 117 120 123 126
          129 132 135 138 141 144
          147 150 153 156 159 162
          165 168 171 174 177 180
          183 186 189 192 195 198
          201 204 207 210 213 216
          219 222 225 228 231 234
          237 240 243 246
        </DataArray>
        <DataArray type="UInt8" Name="types" format="ascii" RangeMin="5" RangeMax="5">
          5 5 5 5 5 5
          5 5 5 5 5 5
          5 5 5 5 5 5
          5 5 5 5 5 5
          5 5 5 5 5 5
          5 5 5 5 5 5
          5 5 5 5 5 5
          5 5 5 5 5 5
          5 5 5 5 5 5
          5 5 5 5 5 5
          5 5 5 5 5 5
          5 5 5 5 5 5
          5 5 5 5 5 5
          5 5 5 5
        </DataArray>
      </Cells>
    </Piece>
  </UnstructuredGrid>
</VTKFile>
