<?xml version="1.0"?>
<VTKFile type="UnstructuredGrid" version="0.1" byte_order="LittleEndian" header_type="UInt32" compressor="vtkZLibDataCompressor">
  <UnstructuredGrid>
    <Piece NumberOfPoints="46" NumberOfCells="66">
      <PointData>
        <DataArray type="Float64" Name="Velocity" NumberOfComponents="3" format="ascii" RangeMin="34.65974929064733" RangeMax="34.70459927656334">
          34.68399070442788 0 0 34.68394514626826 0.0000021317630734151993 0
          34.684055810339586 0 0 34.68404510631086 0.000004645788521094251 0
          34.68399860037692 -0.000001448990251689637 0 34.683906280605655 -0.00001705701996036674 0
          34.68395542141778 0 0 34.68398565455248 0.000011739002423603255 0
          34.68396254874833 -0.00001905915047995894 0 34.68401043443054 -0.000010387333975513927 0
          34.68411542847222 0.000026693845801055858 0 34.684110648049085 0 0
          34.68404874775624 -0.00001136080199880024 0 34.683969624847656 0.000007860231756874718 0
          34.68406646201022 0.0000223612409694609 0 34.68366053193164 -0.00004895990227151351 0
          34.68401681484561 -0.000003436590034656286 0 34.68397269098224 -0.00008129080357223618 0
          34.684166130042485 0 0 34.68411381140798 0.000005702292369581493 0
          34.68378112721069 -0.0000940221614565764 0 34.6838171410268 0.00035769534593693925 0
          34.68399321383723 0.0000023030799229592604 0 34.68396288319723 0 0
          34.68313404388123 0 0 34.684403519560256 -0.00021464840584169693 0
          34.68427324337273 0.00023282630211812495 0 34.684037212595435 0 0
          34.68485646650859 0.00021000409647482673 0 34.68381702804619 0 0
          34.68536954845325 -0.0002076635786893454 0 34.681172690890875 0.000566058892703282 0
          34.68239005051435 -0.0008480343732595667 0 34.68366236939619 0 0
          34.68002676961805 -0.0009295578449340281 0 34.68579661487712 0.002423268546612426 0
          34.68700836054457 0 0 34.68828839291627 -0.0053054515735014764 0
          34.67394063483263 0 0 34.70459927656334 0 0
          34.68632606229489 0.0037331066610814595 0 34.69295552315262 0.0008472196583031274 0
          34.68661857033742 -0.0006377575289977543 0 34.681223055435154 0 0
          34.6597489565561 0.004812383678082706 0 34.66193055453296 0 0
          <InformationKey name="L2_NORM_RANGE" location="vtkDataArray" length="2">
            <Value index="0">
              34.659749291
            </Value>
            <Value index="1">
              34.704599277
            </Value>
          </InformationKey>
        </DataArray>
        <DataArray type="Float64" Name="Pressure" format="ascii" RangeMin="103053.7558107442" RangeMax="103071.8968844326">
          103064.02310177099 103064.00398925306 103064.05519019233 103064.04454886101 103064.02801762371 103063.98414418289
          103064.01877667777 103064.01927276014 103064.01859756092 103064.03453826543 103064.08430134809 103064.07721355598
          103064.05438267432 103064.0167226419 103064.02688836308 103063.91401154136 103064.02901493576 103063.98447200118
          103064.07755062223 103064.06214444918 103063.96096057734 103063.9889297843 103064.03890184051 103064.01489039011
          103063.81832655697 103064.21725550872 103064.07299260753 103064.05877341586 103064.3430383285 103063.96024022467
          103064.49505253579 103062.90646186644 103063.39946407922 103063.79344966888 103062.9773582803 103064.49623324233
          103065.57646120526 103066.4357696067 103059.49488103182 103071.8968844326 103064.1230292447 103066.94718990687
          103064.79645575554 103063.56294645542 103053.7558107442 103056.61197288375
        </DataArray>
        <DataArray type="Float64" Name="Temperature" format="ascii" RangeMin="299.991054107026" RangeMax="300.00678618139074">
          299.9999958812269 299.9999797971008 300.0000228706752 300.0000139308376 300.0000000094343 299.999963099685
          299.9999922739912 299.99999266760193 299.99999204627557 300.00000549866394 300.0000474769876 300.00004129446853
          300.00002218131567 299.99999050752643 299.9999992022322 299.99990359930115 300.00000086138664 299.9999633413933
          300.0000434332121 300.00002875548313 299.9999435343105 299.9999664062658 300.00000917330874 299.9999889624788
          299.99981623340364 300.0001602640446 300.0000376141099 300.00002588892426 300.0002660512283 299.9999429243729
          300.0003970939933 299.9990464248697 299.99946882185054 299.99980129875763 299.9991015306648 300.00039447151653
          300.00131329569535 300.0020738904775 299.99613463776524 300.00678618139074 300.0000716704275 300.00250341358816
          300.00066134484575 299.9996181790465 299.991054107026 299.9934481508233
        </DataArray>
        <DataArray type="Float64" Name="Density" format="ascii" RangeMin="1.1764478188198286" RangeMax="1.1765932121979903">
          1.1765299602370103 1.1765298051357587 1.176530220696855 1.1765301342804377 1.176530000164185 1.1765296440772
          1.1765299250105352 1.176529929129927 1.17652992385887 1.1765300530732554 1.1765304565157133 1.176530399851259
          1.176530214182121 1.1765299084902987 1.17652999043874 1.1765290768226384 1.1765300082078671 1.176529646871495
          1.1765303953113917 1.1765302770044954 1.1765294561549438 1.1765296857397232 1.176530088474655 1.176529893633498
          1.1765283271562326 1.1765315319320064 1.176530366100433 1.1765302497643597 1.176532552934848 1.1765294503237702
          1.1765337743349695 1.1765209367236218 1.176524908080156 1.1765281017434563 1.1765215299347855 1.1765337980980985
          1.176542526003661 1.1765493525060862 1.1764934106439031 1.1765932121979903 1.176530803733844 1.1765535060855803
          1.1765361786721844 1.1765261885774196 1.1764478188198286 1.1764710356921624
        </DataArray>
        <DataArray type="Float64" Name="Momentum" NumberOfComponents="3" format="ascii" RangeMin="40.775386453824154" RangeMax="40.83319594085572">
          40.80675420434137 0 0 40.806695224278336 0.0000025080827933607906 0
          40.80683983720087 0 0 40.80682424631668 0.000005465910192561535 0
          40.80676487899604 -0.000001704780501058311 0 40.80664391152793 -0.000020068089622987978 0
          40.8067114710294 0 0 40.80674718409403 0.000013811287689497977 0
          40.80671981660278 -0.000022423660863000837 0 40.80678063721391 -0.000012221010593501029 0
          40.80691815890411 0.000031406122586476306 0 40.8069105692345 0 0
          40.80683130190078 -0.000013366326808929115 0 40.80672760880231 0.000009247797749628351 0
          40.80684438292551 0.000026308670623998194 0 40.806335106463315 -0.00005760274862083039 0
          40.80678658785211 -0.000004043251301681235 0 40.80672214222191 -0.0000956410404207431 0
          40.80697568802486 0 0 40.80691003019128 0.0000067089196211443354 0
          40.8064901469943 -0.00011061984248501814 0 40.80654048118629 0.0004208391929457487 0
          40.80676160453025 0.0000027096428255234605 0 40.806719161756234 0 0
          40.80568967718296 0 0 40.8072944070161 -0.00025254061775169473 0
          40.807100696952766 0.00027392721446884756 0 40.80681896457125 0 0
          40.807862726720124 0.000247076655752304 0 40.806532183137406 0 0
          40.808508749044925 -0.0002443232140272825 0 40.80312578096062 0.0006659801386840014 0
          40.80469576618152 -0.0009977335630480244 0 40.80630344897665 0 0
          40.801798153170346 -0.001093644817884665 0 40.80901203135954 0.0028510573469575765 0
          40.81074043602521 0 0 40.81248324823002 -0.006242125613555558 0
          40.79366267793847 0 0 40.83319594085572 0 0
          40.80953108064599 0.004392114980386336 0 40.81811845723631 0.0009967992594011718 0
          40.81006166380442 -0.0007503448060864327 0 40.80336717661446 0 0
          40.775386060783255 0.0056615182814045446 0 40.778757338581194 0 0
          <InformationKey name="L2_NORM_RANGE" location="vtkDataArray" length="2">
            <Value index="0">
              40.775386454
            </Value>
            <Value index="1">
              40.833195941
            </Value>
          </InformationKey>
        </DataArray>
        <DataArray type="Float64" Name="Energy" format="ascii" RangeMin="254105.93600748386" RangeMax="254152.46068342356">
          254132.22049747518 254132.17154925532 254132.3022132542 254132.27555846467 254132.23293130955 254132.121069278
          254132.20840151297 254132.21085752515 254132.20825123228 254132.24947967613 254132.3763694684 254132.35871210924
          254132.2999355247 254132.20392049442 254132.23291793282 254131.93825050443 254132.23613171614 254132.12458702337
          254132.36180224264 254132.32171381594 254132.05884290737 254132.129224265 254132.25952786556 254132.19913112212
          254131.6810355226 254132.7156940525 254132.3549479609 254132.31028262616 254133.0440797572 254132.05853310451
          254133.43954076595 254129.35437123163 254130.61867809205 254131.64128891064 254129.48229936627 254133.45988978512
          254136.1707649734 254138.34008561235 254120.65401412602 254152.46068342356 254132.56202675475 254139.79059256875
          254134.23308063674 254130.97381716056 254105.93600748386 254113.06192793202
        </DataArray>
      </PointData>
      <CellData>
        <DataArray type="UInt8" Name="vtkGhostType" format="ascii" RangeMin="0" RangeMax="0">
          0 0 0 0 0 0
          0 0 0 0 0 0
          0 0 0 0 0 0
          0 0 0 0 0 0
          0 0 0 0 0 0
          0 0 0 0 0 0
          0 0 0 0 0 0
          0 0 0 0 0 0
          0 0 0 0 0 0
          0 0 0 0 0 0
          0 0 0 0 0 0
        </DataArray>
      </CellData>
      <Points>
        <DataArray type="Float32" Name="Points" NumberOfComponents="3" format="ascii" RangeMin="3.1116600571489244" RangeMax="7.102112369882704">
          7 1.2000000476837158 0 7 0.7200000286102295 0
          6.5 1.2000000476837158 0 6.566987037658691 0.47999998927116394 0
          7 0.23999999463558197 0 6.140567779541016 0.7387298941612244 0
          6 1.2000000476837158 0 6.566987037658691 -1.5543120227169823e-15 0
          6.133975028991699 0.23999999463558197 0 7 -0.23999999463558197 0
          5.707554817199707 0.4987299144268036 0 5.5 1.2000000476837158 0
          6.133975028991699 -0.23999999463558197 0 6.566987037658691 -0.47999998927116394 0
          5.700962066650391 -1.7763570511584873e-15 0 5.278289794921875 0.7549629807472229 0
          7 -0.7200000286102295 0 5.271283149719238 0.25508859753608704 0
          5 1.2000000476837158 0 6.140567779541016 -0.7387298941612244 0
          5.707554817199707 -0.4987299144268036 0 5.271283149719238 -0.25508859753608704 0
          7 -1.2000000476837158 0 6.5 -1.2000000476837158 0
          4.5 1.2000000476837158 0 4.75 0.09903810918331146 0
          4.5 0.5320507884025574 0 6 -1.2000000476837158 0
          5.278289794921875 -0.7549629807472229 0 5.5 -1.2000000476837158 0
          4.5 -0.33397459983825684 0 4.25 0.09903810918331146 0
          4.75 -0.7669873237609863 0 5 -1.2000000476837158 0
          4 -0.33397459983825684 0 4.25 -0.7669873237609863 0
          4.5 -1.2000000476837158 0 3.75 -0.7669873237609863 0
          4 -1.2000000476837158 0 3.5 -1.2000000476837158 0
          3.5 -0.33397459983825684 0 3.75 0.09903810918331146 0
          4 0.5320507884025574 0 4 1.2000000476837158 0
          3.0359580516815186 -0.6821928024291992 0 3 -1.2000000476837158 0
          <InformationKey name="L2_NORM_RANGE" location="vtkDataArray" length="2">
            <Value index="0">
              3.1116600571
            </Value>
            <Value index="1">
              7.1021123699
            </Value>
          </InformationKey>
        </DataArray>
      </Points>
      <Cells>
        <DataArray type="Int64" Name="connectivity" format="ascii" RangeMin="0" RangeMax="45">
          22 16 23 9 4 7
          1 0 2 16 9 13
          4 1 3 7 4 3
          7 3 8 13 9 7
          13 7 12 3 1 2
          8 3 5 12 7 8
          12 8 14 14 8 10
          12 14 20 16 13 23
          13 12 19 5 3 2
          10 8 5 10 5 11
          20 14 21 19 12 20
          19 20 29 14 10 17
          13 19 23 21 14 17
          20 21 28 17 10 15
          38 36 35 6 11 5
          6 5 2 15 10 11
          15 11 18 35 36 32
          32 36 33 35 32 30
          30 32 21 35 30 34
          34 30 31 35 34 37
          31 30 25 37 34 40
          35 37 38 25 30 21
          40 34 41 41 34 31
          41 31 42 42 31 26
          26 31 25 26 25 15
          27 23 19 27 19 29
          28 21 32 33 29 28
          28 29 20 18 24 26
          17 15 25 32 33 28
          24 43 42 42 26 24
          21 17 25 15 18 26
          37 40 44 38 37 39
          39 37 44 45 39 44
        </DataArray>
        <DataArray type="Int64" Name="offsets" format="ascii" RangeMin="3" RangeMax="198">
          3 6 9 12 15 18
          21 24 27 30 33 36
          39 42 45 48 51 54
          57 60 63 66 69 72
          75 78 81 84 87 90
          93 96 99 102 105 108
          111 114 117 120 123 126
          129 132 135 138 141 144
          147 150 153 156 159 162
          165 168 171 174 177 180
          183 186 189 192 195 198
        </DataArray>
        <DataArray type="UInt8" Name="types" format="ascii" RangeMin="5" RangeMax="5">
          5 5 5 5 5 5
          5 5 5 5 5 5
          5 5 5 5 5 5
          5 5 5 5 5 5
          5 5 5 5 5 5
          5 5 5 5 5 5
          5 5 5 5 5 5
          5 5 5 5 5 5
          5 5 5 5 5 5
          5 5 5 5 5 5
          5 5 5 5 5 5
        </DataArray>
      </Cells>
    </Piece>
  </UnstructuredGrid>
</VTKFile>
