<?xml version="1.0"?>
<VTKFile type="UnstructuredGrid" version="0.1" byte_order="LittleEndian" header_type="UInt32" compressor="vtkZLibDataCompressor">
  <UnstructuredGrid>
    <Piece NumberOfPoints="81" NumberOfCells="8">
      <PointData>
        <DataArray type="Float64" Name="tem_BC" format="ascii" RangeMin="0" RangeMax="0">
          0 0 0 0 0 0
          0 0 0 0 0 0
          0 0 0 0 0 0
          0 0 0 0 0 0
          0 0 0 0 0 0
          0 0 0 0 0 0
          0 0 0 0 0 0
          0 0 0 0 0 0
          0 0 0 0 0 0
          0 0 0 0 0 0
          0 0 0 0 0 0
          0 0 0 0 0 0
          0 0 0 0 0 0
          0 0 0
        </DataArray>
        <DataArray type="Float64" Name="tem_FIXNO" format="ascii" RangeMin="-1" RangeMax="1">
          1 1 1 -1 1 1
          -1 -1 -1 1 1 -1
          -1 -1 -1 1 1 -1
          -1 -1 -1 -1 1 -1
          1 -1 -1 -1 -1 -1
          -1 -1 -1 1 1 -1
          -1 -1 -1 -1 -1 -1
          -1 1 1 -1 -1 -1
          -1 -1 -1 -1 -1 -1
          -1 -1 1 1 1 -1
          1 -1 1 1 -1 1
          1 -1 -1 1 1 -1
          -1 1 1 -1 1 1
          1 1 1
        </DataArray>
        <DataArray type="Float64" Name="Temperature" format="ascii" RangeMin="0" RangeMax="8.391248691153463">
          0 0 0 1.9511791170599466 0 0
          3.835575199693256 2.0949432012345253 4.072735957731298 0 0 6.407339249993965
          2.1062866413598904 3.9687097104023783 5.810455592547752 0 0 7.3621826054728
          2.073386827945883 5.25058772342722 5.8099524066163575 3.7389973081875234 0 5.808848657900927
          0 4.52271848926923 7.207349828276059 1.9090866299696991 6.207796601355536 3.1916791060810334
          4.765799405408235 6.147446251320934 3.6038368336786717 0 0 5.223050899582034
          1.5845463296282134 2.423589270531549 5.535867394251079 3.6001803902272225 4.707354161307643 4.966277535554408
          2.4815662579206306 0 0 8.391248691153463 3.5361938743089554 0.9729159287685989
          2.346229643064024 4.078505515002827 6.944306312251644 1.2814874757866739 6.598570577638742 1.2325439782335408
          3.166911894456402 2.3543533073891862 0 0 0 1.1935486361808878
          0 5.112761160513154 0 0 2.1933961032398885 0
          0 3.797053798087201 1.1892089370845742 0 0 1.1528153600992654
          2.4640388605207253 0 0 1.1734132967891557 0 0
          0 0 0
        </DataArray>
      </PointData>
      <CellData>
        <DataArray type="UInt8" Name="vtkGhostType" format="ascii" RangeMin="0" RangeMax="0">
          0 0 0 0 0 0
          0 0 0 0 0 0
          0 0 0 0 0 0
          0 0 0 0 0 0
        </DataArray>
      </CellData>
      <Points>
        <DataArray type="Float32" Name="Points" NumberOfComponents="3" format="ascii" RangeMin="0" RangeMax="1.4142135623730951">
          0 1 0 0 0.875 0
          0.125 1 0 0.125 0.875 0
          0 0.75 0 0.25 1 0
          0.25 0.875 0 0.125 0.75 0
          0.25 0.75 0 0 0.625 0
          0.375 1 0 0.375 0.875 0
          0.125 0.625 0 0.25 0.625 0
          0.375 0.75 0 0.5 1 0
          0 0.5 0 0.5 0.875 0
          0.125 0.5 0 0.375 0.625 0
          0.5 0.75 0 0.25 0.5 0
          0 0.375 0 0.5 0.625 0
          0.625 1 0 0.375 0.5 0
          0.625 0.875 0 0.125 0.375 0
          0.625 0.75 0 0.25 0.375 0
          0.5 0.5 0 0.625 0.625 0
          0.375 0.375 0 0 0.25 0
          0.75 1 0 0.75 0.875 0
          0.125 0.25 0 0.25 0.25 0
          0.75 0.75 0 0.5 0.375 0
          0.625 0.5 0 0.75 0.625 0
          0.375 0.25 0 0 0.125 0
          0.875 1 0 0.875 0.875 0
          0.625 0.375 0 0.125 0.125 0
          0.5 0.25 0 0.75 0.5 0
          0.875 0.75 0 0.25 0.125 0
          0.875 0.625 0 0.375 0.125 0
          0.75 0.375 0 0.625 0.25 0
          0 0 0 1 1 0
          0.125 0 0 0.5 0.125 0
          1 0.875 0 0.875 0.5 0
          0.25 0 0 1 0.75 0
          0.75 0.25 0 0.375 0 0
          1 0.625 0 0.875 0.375 0
          0.625 0.125 0 0.5 0 0
          1 0.5 0 0.75 0.125 0
          0.875 0.25 0 1 0.375 0
          0.625 0 0 0.875 0.125 0
          1 0.25 0 0.75 0 0
          1 0.125 0 0.875 0 0
          1 0 0
          <InformationKey name="L2_NORM_RANGE" location="vtkDataArray" length="2">
            <Value index="0">
              0
            </Value>
            <Value index="1">
              1.4142135624
            </Value>
          </InformationKey>
        </DataArray>
      </Points>
      <Cells>
        <DataArray type="Int64" Name="connectivity" format="ascii" RangeMin="15" RangeMax="80">
          76 64 77 80 72 71
          79 78 75 70 49 64
          76 61 54 72 73 67
          63 38 49 70 50 41
          61 66 52 57 34 38
          63 44 35 50 60 45
          64 48 69 77 55 59
          74 71 68 49 30 48
          64 40 39 55 54 46
          38 20 30 49 28 23
          40 41 31 34 15 20
          38 24 17 28 35 26
        </DataArray>
        <DataArray type="Int64" Name="offsets" format="ascii" RangeMin="9" RangeMax="72">
          9 18 27 36 45 54
          63 72
        </DataArray>
        <DataArray type="UInt8" Name="types" format="ascii" RangeMin="28" RangeMax="28">
          28 28 28 28 28 28
          28 28
        </DataArray>
      </Cells>
    </Piece>
  </UnstructuredGrid>
</VTKFile>
