<?xml version="1.0"?>
<VTKFile type="UnstructuredGrid" version="0.1" byte_order="LittleEndian" header_type="UInt32" compressor="vtkZLibDataCompressor">
  <UnstructuredGrid>
    <Piece NumberOfPoints="11" NumberOfCells="12">
      <PointData>
        <DataArray type="Float64" Name="Disp" NumberOfComponents="3" format="ascii" RangeMin="0.6275360417762159" RangeMax="2.5545914047569567">
          2.4971486398115776 -0.5089298586397357 0 1.9869459511059568 -0.42671942195048496 0
          1.3807210924699362 -0.32593510573229895 0 2.264994334501029 -0.31198843092758116 0
          1.6972865796113332 -0.22198485932796946 0 2.5469814240835986 -0.1970352015026891 0
          2.029420676215187 -0.11535670590841214 0 1.0020703767648922 -0.11641735154962594 0
          0.6234217465663427 0.07174126871146935 0 0.6159710535088136 -0.19575737288200545 0
          1.394721785824236 -0.021604332227572 0
          <InformationKey name="L2_NORM_RANGE" location="vtkDataArray" length="2">
            <Value index="0">
              0.62753604178
            </Value>
            <Value index="1">
              2.5545914048
            </Value>
          </InformationKey>
        </DataArray>
        <DataArray type="Float64" Name="Sld_traction" NumberOfComponents="3" format="ascii" RangeMin="0" RangeMax="78.72880430819724">
          2.816820460077748 2.243262168020931 0 9.129150659608365 6.916237739425508 0
          24.05317584297616 16.676363013443712 0 0 0 0
          0 0 0 0.18794659866782745 -1.5558038522220359 0
          5.832737825276701 -11.494701171188431 0 0 0 0
          55.02788681720134 -56.304141057578484 0 69.17900372169693 24.516429255491385 0
          21.534879870728712 -31.999244014226743 0
          <InformationKey name="L2_NORM_RANGE" location="vtkDataArray" length="2">
            <Value index="0">
              0
            </Value>
            <Value index="1">
              78.728804308
            </Value>
          </InformationKey>
        </DataArray>
        <DataArray type="Float64" Name="Fld_traction" NumberOfComponents="3" format="ascii" RangeMin="0" RangeMax="4.917635952517965">
          2.0046391914780703 0.3200828697307515 0 2.9337731783888032 -0.9134657583815088 0
          3.0640214918102906 -0.9124464023961001 0 0 0 0
          0 0 0 0.9024952639809597 0.516031056143875 0
          3.007922948683891 -0.6949341591436756 0 0 0 0
          0 0 0 3.1556823843000785 -0.8179998803875729 0
          4.744621718545347 -1.2929455167968478 0
          <InformationKey name="L2_NORM_RANGE" location="vtkDataArray" length="2">
            <Value index="0">
              0
            </Value>
            <Value index="1">
              4.9176359525
            </Value>
          </InformationKey>
        </DataArray>
        <DataArray type="Float64" Name="Velocity" NumberOfComponents="3" format="ascii" RangeMin="0.006868860744098709" RangeMax="0.01925115691632502">
          -0.013291105292931205 0.0037402317869443813 0 0.003595838879850266 -0.005852451680447901 0
          0.009959841030712901 -0.015304828388343714 0 -0.006556680734295384 -0.005805065571778914 0
          0.006769657990182809 -0.012652673398993619 0 -0.01776030052603872 -0.007428241234757896 0
          0.0010223352244569384 -0.013773198465644426 0 0.003189907655164581 -0.012060730349282539 0
          -0.0028759663545415703 -0.006240078932102655 0 -0.004814226247382203 -0.011519103880568274 0
          0.010885327392028854 -0.013660459952766713 0
          <InformationKey name="L2_NORM_RANGE" location="vtkDataArray" length="2">
            <Value index="0">
              0.0068688607441
            </Value>
            <Value index="1">
              0.019251156916
            </Value>
          </InformationKey>
        </DataArray>
      </PointData>
      <CellData>
        <DataArray type="UInt8" Name="vtkGhostType" format="ascii" RangeMin="0" RangeMax="0">
          0 0 0 0 0 0
          0 0 0 0 0 0
        </DataArray>
        <DataArray type="Float64" Name="Gauss Stress" NumberOfComponents="6" format="ascii" RangeMin="2.0165256683339803" RangeMax="127.36087721504838">
          1.0013639374894425 1.7165750802720379 0 0.3420760581135317 0 0
          1.7896390751273286 4.460973678104071 0 5.189042006262516 0 0
          4.640315219397085 -5.639621078588705 0 0.8358170627568942 0 0
          5.489178192174409 -2.803282699097278 0 5.698023653691147 0 0
          -4.233970819222963 7.376596170818102 0 -8.974379314826557 0 0
          36.431910403675055 -56.40953845277993 0 108.21955886469675 0 0
          -2.9844103452137922 19.86381250543607 0 25.21219124032002 0 0
          14.00410763691806 -33.67975210318471 0 0.1866746940854231 0 0
          16.22961574074702 -19.28029686062941 0 34.49632670615211 0 0
          -16.66954837864205 30.70353283694248 0 -49.1777894000352 0 0
          32.85668089146105 -80.60164811239632 0 -2.1021127363087633 0 0
          -13.245980696655248 51.5402919427252 0 60.15257769381223 0 0
          <InformationKey name="L2_NORM_RANGE" location="vtkDataArray" length="2">
            <Value index="0">
              2.0165256683
            </Value>
            <Value index="1">
              127.36087722
            </Value>
          </InformationKey>
        </DataArray>
        <DataArray type="Float64" Name="Gauss Strain" NumberOfComponents="6" format="ascii" RangeMin="0.00016150039239542425" RangeMax="0.02269540108952172">
          0.00006131722794128214 0.00013282802298597574 0 0.0000684053405160003 0 0
          0.00008925571262802245 0.0003562833192102266 0 0.0010373971615856828 0 0
          0.0004779034779128777 -0.0005502152076738431 0 0.0001671837480395524 0 0
          0.0005096454540421957 -0.0003194834733066809 0 0.0011394437192862104 0 0
          -0.00047014046414473043 0.0006907153800967958 0 -0.0017945653618798084 0 0
          0.0036985873868239927 -0.005601105748912927 0 0.021680159047981745 0 0
          -0.0005512610548541463 0.0017309447153252555 0 0.005036663788132538 0 0
          0.001675333170995108 -0.0031000301838947086 0 0.000037389569480302756 0 0
          0.0016412451823796799 -0.0019107733908396707 0 0.006901261320668272 0 0
          -0.0019162455373938903 0.002816750626720599 0 -0.009826605431500794 0 0
          0.00393302804772344 -0.007452571014423424 0 -0.0004218960918811036 0 0
          -0.0019424906602507619 0.004519162366753426 0 0.011998995154447745 0 0
          <InformationKey name="L2_NORM_RANGE" location="vtkDataArray" length="2">
            <Value index="0">
              0.0001615003924
            </Value>
            <Value index="1">
              0.02269540109
            </Value>
          </InformationKey>
        </DataArray>
        <DataArray type="Float64" Name="Btraction" NumberOfComponents="3" format="ascii" RangeMin="0" RangeMax="2.667783399990875">
          0.9690448184863433 0.27870464195820877 0 1.3034727375549502 -0.059634367666600185 0
          1.6461374566222908 -0.19779429621691902 0 0 0 0
          0 0 0 0 0 0
          2.5841815557430787 -0.662626558646841 0 1.9992648900663639 -0.6086373869258696 0
          0 0 0 0 0 0
          2.0732346253701226 -0.5768154275945575 0 0 0 0
          <InformationKey name="L2_NORM_RANGE" location="vtkDataArray" length="2">
            <Value index="0">
              0
            </Value>
            <Value index="1">
              2.6677834
            </Value>
          </InformationKey>
        </DataArray>
      </CellData>
      <Points>
        <DataArray type="Float32" Name="Points" NumberOfComponents="3" format="ascii" RangeMin="10.632507764558053" RangeMax="14.866068747318506">
          11 10 0 11 8.362662315368652 0
          11 6.387491226196289 0 10.5 9.17588996887207 0
          10.5 7.3431549072265625 0 10 10 0
          10 8.340899467468262 0 10.5 5 0
          10 3.61250901222229 0 11 3.7184319496154785 0
          10 6.2815680503845215 0
          <InformationKey name="L2_NORM_RANGE" location="vtkDataArray" length="2">
            <Value index="0">
              10.632507765
            </Value>
            <Value index="1">
              14.866068747
            </Value>
          </InformationKey>
        </DataArray>
      </Points>
      <Cells>
        <DataArray type="Int64" Name="connectivity" format="ascii" RangeMin="0" RangeMax="10">
          0 5 3 3 5 6
          0 3 1 3 6 1
          1 6 4 8 9 7
          4 6 10 1 4 2
          2 4 10 2 10 7
          7 9 2 8 7 10
        </DataArray>
        <DataArray type="Int64" Name="offsets" format="ascii" RangeMin="3" RangeMax="36">
          3 6 9 12 15 18
          21 24 27 30 33 36
        </DataArray>
        <DataArray type="UInt8" Name="types" format="ascii" RangeMin="5" RangeMax="5">
          5 5 5 5 5 5
          5 5 5 5 5 5
        </DataArray>
      </Cells>
    </Piece>
  </UnstructuredGrid>
</VTKFile>
