<?xml version="1.0"?>
<VTKFile type="UnstructuredGrid" version="0.1" byte_order="LittleEndian" header_type="UInt32" compressor="vtkZLibDataCompressor">
  <UnstructuredGrid>
    <Piece NumberOfPoints="11" NumberOfCells="12">
      <PointData>
        <DataArray type="Float64" Name="Disp" NumberOfComponents="3" format="ascii" RangeMin="0.6106215881387356" RangeMax="2.4946511270498495">
          2.4404198317985584 -0.4853276056777144 0 1.94092226663281 -0.40682780690611065 0
          1.347367942607956 -0.31091485347446646 0 2.2126374958193114 -0.29351451036490595 0
          1.656825723693152 -0.2078906158303589 0 2.4881456101136212 -0.1800435185264944 0
          1.981505855320245 -0.10211519587820173 0 0.9766949212116669 -0.10805779523453919 0
          0.6061765276030072 0.07354414513904053 0 0.5996852562258066 -0.18723683704000627 0
          1.360127137803315 -0.013448062592345138 0
          <InformationKey name="L2_NORM_RANGE" location="vtkDataArray" length="2">
            <Value index="0">
              0.61062158814
            </Value>
            <Value index="1">
              2.494651127
            </Value>
          </InformationKey>
        </DataArray>
        <DataArray type="Float64" Name="Sld_traction" NumberOfComponents="3" format="ascii" RangeMin="0" RangeMax="77.57368495078701">
          2.4400090139502155 2.395286209463971 0 8.399128506844248 6.867676518837227 0
          23.375701121735627 16.65946929962074 0 0 0 0
          0 0 0 0.45597946991390054 -1.5238960187752908 0
          6.166375313341595 -11.82004855435844 0 0 0 0
          55.093660317031734 -54.61103542064995 0 67.61045087567116 23.86343617911469 0
          22.064419723721066 -31.812953134066664 0
          <InformationKey name="L2_NORM_RANGE" location="vtkDataArray" length="2">
            <Value index="0">
              0
            </Value>
            <Value index="1">
              77.573684951
            </Value>
          </InformationKey>
        </DataArray>
        <DataArray type="Float64" Name="Fld_traction" NumberOfComponents="3" format="ascii" RangeMin="0" RangeMax="4.791005484910701">
          1.8337941094077823 0.30379052372909127 0 2.669212608856885 -0.8094832801250106 0
          2.7358848449588837 -0.7966661301269894 0 0 0 0
          0 0 0 0.9290945037888754 0.4433957385659057 0
          3.0023930927675084 -0.6690871144798516 0 0 0 0
          0 0 0 2.7906349161067263 -0.705581622132868 0
          4.63193113454391 -1.224315123359662 0
          <InformationKey name="L2_NORM_RANGE" location="vtkDataArray" length="2">
            <Value index="0">
              0
            </Value>
            <Value index="1">
              4.7910054849
            </Value>
          </InformationKey>
        </DataArray>
        <DataArray type="Float64" Name="Velocity" NumberOfComponents="3" format="ascii" RangeMin="0.01850103651383442" RangeMax="0.04790117325551946">
          -0.04312126771103686 0.00625873167660318 0 -0.021494233854784106 -0.003155783240151866 0
          -0.015172402620785785 -0.011368726611880337 0 -0.033249184376421326 -0.004521058073640269 0
          -0.01787635328627002 -0.009879785355198567 0 -0.0471425152080025 -0.008491505115027928 0
          -0.02359295219660895 -0.012750133558657506 0 -0.019635792029388255 -0.008694525361647693 0
          -0.025132138916692415 -0.005877316043105429 0 -0.023444251153501627 -0.0065645376538537165 0
          -0.01553066837493522 -0.010054187779926407 0
          <InformationKey name="L2_NORM_RANGE" location="vtkDataArray" length="2">
            <Value index="0">
              0.018501036514
            </Value>
            <Value index="1">
              0.047901173256
            </Value>
          </InformationKey>
        </DataArray>
      </PointData>
      <CellData>
        <DataArray type="UInt8" Name="vtkGhostType" format="ascii" RangeMin="0" RangeMax="0">
          0 0 0 0 0 0
          0 0 0 0 0 0
        </DataArray>
        <DataArray type="Float64" Name="Gauss Stress" NumberOfComponents="6" format="ascii" RangeMin="2.639420014371473" RangeMax="125.11951372817315">
          0.797889005197778 2.435978190696679 0 0.6292228556714559 0 0
          1.6635873873201317 5.524645218388444 0 5.922784197733291 0 0
          3.95465905714589 -4.034257268114992 0 1.1478233863679435 0 0
          4.8746774212880535 -0.8513059677611473 0 6.450399219133005 0 0
          -4.027102623287007 11.02012740073701 0 -7.692007617785963 0 0
          34.71455888437843 -49.41307121528242 0 109.58166137685154 0 0
          -3.0808283247448456 24.087109682013477 0 26.61572888461107 0 0
          13.729554239508637 -29.51127122890712 0 1.8387227935425474 0 0
          15.636814467584987 -14.529730791370461 0 36.25400493324423 0 0
          -15.95906617665003 34.996623704187336 0 -47.83051792906765 0 0
          32.75466501237127 -74.96797595916334 0 0.0015496442790298487 0 0
          -14.135749467651532 57.22088643157741 0 60.79122086535277 0 0
          <InformationKey name="L2_NORM_RANGE" location="vtkDataArray" length="2">
            <Value index="0">
              2.6394200144
            </Value>
            <Value index="1">
              125.11951373
            </Value>
          </InformationKey>
        </DataArray>
        <DataArray type="Float64" Name="Gauss Strain" NumberOfComponents="6" format="ascii" RangeMin="0.00023646827490358401" RangeMax="0.02276422376007078">
          0.00003359696478016927 0.0001973762128602563 0 0.0001258217770911691 0 0
          0.00006312569148869684 0.0004490526681363848 0 0.0011840082686020506 0 0
          0.0003963290333782732 -0.0004026071856426672 0 0.0002295774893796263 0 0
          0.00042908256623080954 -0.00014338016128268016 0 0.0012897743076228632 0 0
          -0.000504227527022838 0.0009998212758119962 0 -0.0015377122341396308 0 0
          0.003450624070657604 -0.004973045904864026 0 0.02194474632684745 0 0
          -0.0006213181676574253 0.0020915681224170086 0 0.005315489602003485 0 0
          0.001592954044636996 -0.0027362473481647998 0 0.00036817989446548307 0 0
          0.0015214241531081303 -0.0014952087168611512 0 0.007250748934678695 0 0
          -0.0019147931661610547 0.0031743127443112354 0 -0.009553970206781975 0 0
          0.0038460066716076713 -0.006959711036658378 0 3.1089134979248955e-7 0 0
          -0.002102827437812649 0.005011727085719009 0 0.012122277065006007 0 0
          <InformationKey name="L2_NORM_RANGE" location="vtkDataArray" length="2">
            <Value index="0">
              0.0002364682749
            </Value>
            <Value index="1">
              0.02276422376
            </Value>
          </InformationKey>
        </DataArray>
        <DataArray type="Float64" Name="Btraction" NumberOfComponents="3" format="ascii" RangeMin="0" RangeMax="2.621871224102056">
          0.9209628710655524 0.24906208743166558 0 1.3104958655187944 -0.07523045863798197 0
          1.5010022394215556 -0.16856425213197304 0 0 0 0
          0 0 0 0 0 0
          2.5447747424371387 -0.6311340792798378 0 1.8016991512719223 -0.5353831367506665 0
          0 0 0 0 0 0
          1.8421732536885367 -0.5007492507532857 0 0 0 0
          <InformationKey name="L2_NORM_RANGE" location="vtkDataArray" length="2">
            <Value index="0">
              0
            </Value>
            <Value index="1">
              2.6218712241
            </Value>
          </InformationKey>
        </DataArray>
      </CellData>
      <Points>
        <DataArray type="Float32" Name="Points" NumberOfComponents="3" format="ascii" RangeMin="10.632507764558053" RangeMax="14.866068747318506">
          11 10 0 11 8.362662315368652 0
          11 6.387491226196289 0 10.5 9.17588996887207 0
          10.5 7.3431549072265625 0 10 10 0
          10 8.340899467468262 0 10.5 5 0
          10 3.61250901222229 0 11 3.7184319496154785 0
          10 6.2815680503845215 0
          <InformationKey name="L2_NORM_RANGE" location="vtkDataArray" length="2">
            <Value index="0">
              10.632507765
            </Value>
            <Value index="1">
              14.866068747
            </Value>
          </InformationKey>
        </DataArray>
      </Points>
      <Cells>
        <DataArray type="Int64" Name="connectivity" format="ascii" RangeMin="0" RangeMax="10">
          0 5 3 3 5 6
          0 3 1 3 6 1
          1 6 4 8 9 7
          4 6 10 1 4 2
          2 4 10 2 10 7
          7 9 2 8 7 10
        </DataArray>
        <DataArray type="Int64" Name="offsets" format="ascii" RangeMin="3" RangeMax="36">
          3 6 9 12 15 18
          21 24 27 30 33 36
        </DataArray>
        <DataArray type="UInt8" Name="types" format="ascii" RangeMin="5" RangeMax="5">
          5 5 5 5 5 5
          5 5 5 5 5 5
        </DataArray>
      </Cells>
    </Piece>
  </UnstructuredGrid>
</VTKFile>
