<?xml version="1.0"?>
<VTKFile type="UnstructuredGrid" version="0.1" byte_order="LittleEndian" header_type="UInt32" compressor="vtkZLibDataCompressor">
  <UnstructuredGrid>
    <Piece NumberOfPoints="11" NumberOfCells="12">
      <PointData>
        <DataArray type="Float64" Name="Disp" NumberOfComponents="3" format="ascii" RangeMin="0.625457109881979" RangeMax="2.5554285761616393">
          2.4978223603819494 -0.5052668781364753 0 1.984915507807308 -0.42203849538326277 0
          1.377058461557045 -0.32057750072939173 0 2.264550417384331 -0.30703634378186107 0
          1.6944928295435122 -0.21656289942664148 0 2.5482311562500306 -0.19165902582486527 0
          2.0278030786044323 -0.1093754019891425 0 0.9990105792677575 -0.11191767702646431 0
          0.6209779846824036 0.07471906611901946 0 0.6135691869321006 -0.19172903768211721 0
          1.3911322605776664 -0.016277408719293993 0
          <InformationKey name="L2_NORM_RANGE" location="vtkDataArray" length="2">
            <Value index="0">
              0.62545710988
            </Value>
            <Value index="1">
              2.5554285762
            </Value>
          </InformationKey>
        </DataArray>
        <DataArray type="Float64" Name="Sld_traction" NumberOfComponents="3" format="ascii" RangeMin="0" RangeMax="78.80870846682613">
          3.0246003336420637 2.77634169959586 0 9.844267947816798 7.294232875649085 0
          24.70597464817981 15.939280568057322 0 0 0 0
          0 0 0 0.18391997387758008 -2.0843415772013634 0
          6.735255703230163 -12.896622503480842 0 0 0 0
          55.714678214858786 -55.73766376180412 0 68.98852328510955 23.23824106885622 0
          22.8953117212775 -32.613391266625364 0
          <InformationKey name="L2_NORM_RANGE" location="vtkDataArray" length="2">
            <Value index="0">
              0
            </Value>
            <Value index="1">
              78.808708467
            </Value>
          </InformationKey>
        </DataArray>
        <DataArray type="Float64" Name="Fld_traction" NumberOfComponents="3" format="ascii" RangeMin="0" RangeMax="4.3096363515792255">
          2.0375507975149856 0.384217061302435 0 2.8672622095353977 -0.8953415225469141 0
          2.858610306008275 -0.8551431698520171 0 0 0 0
          0 0 0 0.6735344285087042 0.703679807016707 0
          2.482010091707618 -0.5323942540580041 0 0 0 0
          0 0 0 2.8355288433457204 -0.735732019101137 0
          4.16241522016068 -1.1168101977631737 0
          <InformationKey name="L2_NORM_RANGE" location="vtkDataArray" length="2">
            <Value index="0">
              0
            </Value>
            <Value index="1">
              4.3096363516
            </Value>
          </InformationKey>
        </DataArray>
        <DataArray type="Float64" Name="Velocity" NumberOfComponents="3" format="ascii" RangeMin="0.002656875179396162" RangeMax="0.06142489763705423">
          0.05611826416824095 -0.020760987349522253 0 0.027655127066077423 -0.010894293334496874 0
          0.007084780495539622 -0.001181663210588036 0 0.0437634709393766 -0.0074558060248573615 0
          0.01797515248182857 -0.00033599206944495696 0 0.061376214216037894 -0.0024450722340286363 0
          0.03159281046985196 0.00395904821643317 0 0.0033770291383857787 0.002822709859602951 0
          0.0006001960131486461 0.0037867018437122146 0 -0.0011143630847240682 0.002411883213237251 0
          0.00900221932495504 0.005228046694554241 0
          <InformationKey name="L2_NORM_RANGE" location="vtkDataArray" length="2">
            <Value index="0">
              0.0026568751794
            </Value>
            <Value index="1">
              0.061424897637
            </Value>
          </InformationKey>
        </DataArray>
      </PointData>
      <CellData>
        <DataArray type="UInt8" Name="vtkGhostType" format="ascii" RangeMin="0" RangeMax="0">
          0 0 0 0 0 0
          0 0 0 0 0 0
        </DataArray>
        <DataArray type="Float64" Name="Gauss Stress" NumberOfComponents="6" format="ascii" RangeMin="2.354578582478476" RangeMax="127.99162967080929">
          0.9122309592387332 2.135881151804972 0 0.38715201592784776 0 0
          2.344367009918636 5.77812097646832 0 6.787185893198618 0 0
          5.067709751080269 -6.802971831704902 0 1.081761415874158 0 0
          6.570248618797402 -3.040912353860597 0 7.4997907195042774 0 0
          -4.985099225108427 10.956990738186686 0 -10.034887247889671 0 0
          36.749515020485674 -50.957331315820205 0 111.51089990094428 0 0
          -3.581097823377834 24.99996948920887 0 28.628492085565462 0 0
          15.068788176092816 -34.50131970479114 0 0.08731653902543438 0 0
          17.55798058237025 -18.266298554774032 0 38.88776782769901 0 0
          -17.237534372923612 37.74986157405306 0 -50.40361861728865 0 0
          33.20738489145932 -76.06571992497437 0 -2.1787710246719323 0 0
          -13.85398585269029 59.3216567852602 0 62.243506409955586 0 0
          <InformationKey name="L2_NORM_RANGE" location="vtkDataArray" length="2">
            <Value index="0">
              2.3545785825
            </Value>
            <Value index="1">
              127.99162967
            </Value>
          </InformationKey>
        </DataArray>
        <DataArray type="Float64" Name="Gauss Strain" NumberOfComponents="6" format="ascii" RangeMin="0.00019281852553357037" RangeMax="0.023202311456773768">
          0.00004768878108057928 0.00017003325942438474 0 0.00007741740526205068 0 0
          0.00011769065168043544 0.0004608841603188639 0 0.0013567181359874134 0 0
          0.0005310378284424933 -0.0006562373011550493 0 0.00021639000528633106 0 0
          0.000605159902510366 -0.00035576289643279857 0 0.0014996564744209028 0 0
          -0.0005863156968752836 0.001007296414781866 0 -0.0020062260210762257 0 0
          0.003637271040327238 -0.005144549937578957 0 0.022330497581918955 0 0
          -0.0006793332633479032 0.00217458378178198 0 0.005717305140902298 0 0
          0.0017776355270427975 -0.00318654583999578 0 0.000017488569405817706 0 0
          0.0017347143240530882 -0.0018481673632589897 0 0.007778538721011691 0 0
          -0.0020693104343801885 0.003421903443939278 0 -0.010066926985801172 0 0
          0.0038994846468049515 -0.0070622778718237855 0 -0.0004371280672411398 0 0
          -0.002111903455290442 0.005182792670306691 0 0.0124097978147938 0 0
          <InformationKey name="L2_NORM_RANGE" location="vtkDataArray" length="2">
            <Value index="0">
              0.00019281852553
            </Value>
            <Value index="1">
              0.023202311457
            </Value>
          </InformationKey>
        </DataArray>
        <DataArray type="Float64" Name="Btraction" NumberOfComponents="3" format="ascii" RangeMin="0" RangeMax="2.2820133179303395">
          0.9036950753412297 0.36263228943971393 0 1.0518481734054408 0.05709518431956759 0
          1.6349376690167943 -0.17037482041482635 0 0 0 0
          0 0 0 0 0 0
          2.2148084372894328 -0.5497348172737258 0 1.9086241718478902 -0.5834948974663102 0
          0 0 0 0 0 0
          1.8980463831179981 -0.5302917296510512 0 0 0 0
          <InformationKey name="L2_NORM_RANGE" location="vtkDataArray" length="2">
            <Value index="0">
              0
            </Value>
            <Value index="1">
              2.2820133179
            </Value>
          </InformationKey>
        </DataArray>
      </CellData>
      <Points>
        <DataArray type="Float32" Name="Points" NumberOfComponents="3" format="ascii" RangeMin="10.632507764558053" RangeMax="14.866068747318506">
          11 10 0 11 8.362662315368652 0
          11 6.387491226196289 0 10.5 9.17588996887207 0
          10.5 7.3431549072265625 0 10 10 0
          10 8.340899467468262 0 10.5 5 0
          10 3.61250901222229 0 11 3.7184319496154785 0
          10 6.2815680503845215 0
          <InformationKey name="L2_NORM_RANGE" location="vtkDataArray" length="2">
            <Value index="0">
              10.632507765
            </Value>
            <Value index="1">
              14.866068747
            </Value>
          </InformationKey>
        </DataArray>
      </Points>
      <Cells>
        <DataArray type="Int64" Name="connectivity" format="ascii" RangeMin="0" RangeMax="10">
          0 5 3 3 5 6
          0 3 1 3 6 1
          1 6 4 8 9 7
          4 6 10 1 4 2
          2 4 10 2 10 7
          7 9 2 8 7 10
        </DataArray>
        <DataArray type="Int64" Name="offsets" format="ascii" RangeMin="3" RangeMax="36">
          3 6 9 12 15 18
          21 24 27 30 33 36
        </DataArray>
        <DataArray type="UInt8" Name="types" format="ascii" RangeMin="5" RangeMax="5">
          5 5 5 5 5 5
          5 5 5 5 5 5
        </DataArray>
      </Cells>
    </Piece>
  </UnstructuredGrid>
</VTKFile>
