<?xml version="1.0"?>
<VTKFile type="UnstructuredGrid" version="0.1" byte_order="LittleEndian" header_type="UInt32" compressor="vtkZLibDataCompressor">
  <UnstructuredGrid>
    <Piece NumberOfPoints="11" NumberOfCells="12">
      <PointData>
        <DataArray type="Float64" Name="Disp" NumberOfComponents="3" format="ascii" RangeMin="0.6079071189749228" RangeMax="2.469246817243724">
          2.416416262995677 -0.481133920140846 0 1.9244789133633835 -0.4049320155671084 0
          1.3387023084065701 -0.3110901329567601 0 2.191710344869514 -0.2927562988840154 0
          1.6438270948444724 -0.20896485120885988 0 2.4626428448214774 -0.18047177983784815 0
          1.963727696658761 -0.10450810643180619 0 0.9711524178964365 -0.11002955603069157 0
          0.6037809189002025 0.07070832534021775 0 0.597643616960736 -0.18849970536549263 0
          1.3507491470993396 -0.016756173761499623 0
          <InformationKey name="L2_NORM_RANGE" location="vtkDataArray" length="2">
            <Value index="0">
              0.60790711897
            </Value>
            <Value index="1">
              2.4692468172
            </Value>
          </InformationKey>
        </DataArray>
        <DataArray type="Float64" Name="Sld_traction" NumberOfComponents="3" format="ascii" RangeMin="0" RangeMax="76.18777167635648">
          2.301314990922902 1.822714401464631 0 7.825107875076237 6.638705613552156 0
          22.193385704381395 16.881684266538002 0 0 0 0
          0 0 0 0.18629464732685816 -1.1856592201875513 0
          5.127338095008148 -10.306485042467127 0 0 0 0
          53.297421315957784 -54.44227616547562 0 66.34352015108577 24.91577328878263 0
          20.306451224589477 -30.62798780195872 0
          <InformationKey name="L2_NORM_RANGE" location="vtkDataArray" length="2">
            <Value index="0">
              0
            </Value>
            <Value index="1">
              76.187771676
            </Value>
          </InformationKey>
        </DataArray>
        <DataArray type="Float64" Name="Fld_traction" NumberOfComponents="3" format="ascii" RangeMin="0" RangeMax="4.770614438557927">
          1.7884000495963643 0.3067872414389558 0 2.5862305522515867 -0.7712354706130785 0
          2.6113439411040695 -0.750574614558792 0 0 0 0
          0 0 0 0.927684010659579 0.43255584282251097 0
          2.996509401929912 -0.6545794110866934 0 0 0 0
          0 0 0 2.6156107291175243 -0.655903600497018 0
          4.616057708882418 -1.2044805310359186 0
          <InformationKey name="L2_NORM_RANGE" location="vtkDataArray" length="2">
            <Value index="0">
              0
            </Value>
            <Value index="1">
              4.7706144386
            </Value>
          </InformationKey>
        </DataArray>
        <DataArray type="Float64" Name="Velocity" NumberOfComponents="3" format="ascii" RangeMin="0.004714048211325075" RangeMax="0.02034196132923894">
          -0.004885869894725614 0.0021286393971335915 0 -0.011392472684069066 0.006947365918156367 0
          -0.0021588657819857637 0.011018167647293093 0 -0.008605117523173611 0.006037481035421385 0
          -0.008120904411089258 0.0077313145981965925 0 -0.003863015376285084 0.007634982492320405 0
          -0.011963365126359093 0.007964312451448581 0 0.008550785398927396 0.004751003769342926 0
          0.02034092151108291 0.00020567644545985142 0 0.019360972623360395 0.004038801002880996 0
          -0.0032253130330157642 0.0034379654416174382 0
          <InformationKey name="L2_NORM_RANGE" location="vtkDataArray" length="2">
            <Value index="0">
              0.0047140482113
            </Value>
            <Value index="1">
              0.020341961329
            </Value>
          </InformationKey>
        </DataArray>
      </PointData>
      <CellData>
        <DataArray type="UInt8" Name="vtkGhostType" format="ascii" RangeMin="0" RangeMax="0">
          0 0 0 0 0 0
          0 0 0 0 0 0
        </DataArray>
        <DataArray type="Float64" Name="Gauss Stress" NumberOfComponents="6" format="ascii" RangeMin="1.5792756893414268" RangeMax="122.01423514871797">
          0.8614235397204724 1.2833085976497105 0 0.32431501870654095 0 0
          1.2734598974844837 3.389445234925531 0 3.8949961135481628 0 0
          3.775556797668183 -4.540395124789567 0 0.8014302509350845 0 0
          4.235592915141058 -2.365580888833731 0 4.384336062839458 0 0
          -3.41621372739686 5.21569305841364 0 -7.703446325798442 0 0
          32.88853900337029 -53.741471824179314 0 104.48766332597059 0 0
          -2.734076404440584 16.97967005304912 0 22.479471284090152 0 0
          12.436008648378053 -31.263277786698787 0 1.1424242946602114 0 0
          13.97361577982725 -17.83337283281859 0 31.420726900018543 0 0
          -14.876429351260658 26.549700746954784 0 -46.64777199497304 0 0
          31.280647712598004 -78.65144436173154 0 -0.2795889044719517 0 0
          -13.390029567131807 48.39877573823835 0 57.24738592569305 0 0
          <InformationKey name="L2_NORM_RANGE" location="vtkDataArray" length="2">
            <Value index="0">
              1.5792756893
            </Value>
            <Value index="1">
              122.01423515
            </Value>
          </InformationKey>
        </DataArray>
        <DataArray type="Float64" Name="Gauss Strain" NumberOfComponents="6" format="ascii" RangeMin="0.00012973579227264754" RangeMax="0.021856904286670944">
          0.0000555084650325499 0.00009769261130926352 0 0.00006485630117358603 0 0
          0.00006050005210156416 0.00027203870270003927 0 0.0007787787631297065 0 0
          0.0003882169165427273 -0.0004434654019650486 0 0.0001603028433629986 0 0
          0.00039630568048831805 -0.0002637567250644013 0 0.0008767941867086416 0 0
          -0.0003686270265511604 0.0004944967047678661 0 -0.0015405697725255987 0 0
          0.003374842352690365 -0.005303075518999334 0 0.020933516047978468 0 0
          -0.00048619540043648435 0.0014832880973426605 0 0.004491581326592109 0 0
          0.0015075067028409994 -0.0028685459414020675 0 0.0002288050567106023 0 0
          0.0014317803805780072 -0.0017500104434938768 0 0.006286302784187495 0 0
          -0.0016974310885654593 0.002442087877030985 0 -0.009322586320189608 0 0
          0.0037727434393777792 -0.007258670882435703 0 -0.00005611211406632108 0 0
          -0.0019036957468329114 0.004260408670726024 0 0.011422097020140746 0 0
          <InformationKey name="L2_NORM_RANGE" location="vtkDataArray" length="2">
            <Value index="0">
              0.00012973579227
            </Value>
            <Value index="1">
              0.021856904287
            </Value>
          </InformationKey>
        </DataArray>
        <DataArray type="Float64" Name="Btraction" NumberOfComponents="3" format="ascii" RangeMin="0" RangeMax="2.6120932832803843">
          0.9053613534186475 0.2464476947538222 0 1.3080644708631632 -0.07400785608806076 0
          1.4582102006159834 -0.1548160763913742 0 0 0 0
          0 0 0 0 0 0
          2.537522370270776 -0.6196866473742038 0 1.7325248311185517 -0.5072700283906233 0
          0 0 0 0 0 0
          1.7423182234071977 -0.46882607168526996 0 0 0 0
          <InformationKey name="L2_NORM_RANGE" location="vtkDataArray" length="2">
            <Value index="0">
              0
            </Value>
            <Value index="1">
              2.6120932833
            </Value>
          </InformationKey>
        </DataArray>
      </CellData>
      <Points>
        <DataArray type="Float32" Name="Points" NumberOfComponents="3" format="ascii" RangeMin="10.632507764558053" RangeMax="14.866068747318506">
          11 10 0 11 8.362662315368652 0
          11 6.387491226196289 0 10.5 9.17588996887207 0
          10.5 7.3431549072265625 0 10 10 0
          10 8.340899467468262 0 10.5 5 0
          10 3.61250901222229 0 11 3.7184319496154785 0
          10 6.2815680503845215 0
          <InformationKey name="L2_NORM_RANGE" location="vtkDataArray" length="2">
            <Value index="0">
              10.632507765
            </Value>
            <Value index="1">
              14.866068747
            </Value>
          </InformationKey>
        </DataArray>
      </Points>
      <Cells>
        <DataArray type="Int64" Name="connectivity" format="ascii" RangeMin="0" RangeMax="10">
          0 5 3 3 5 6
          0 3 1 3 6 1
          1 6 4 8 9 7
          4 6 10 1 4 2
          2 4 10 2 10 7
          7 9 2 8 7 10
        </DataArray>
        <DataArray type="Int64" Name="offsets" format="ascii" RangeMin="3" RangeMax="36">
          3 6 9 12 15 18
          21 24 27 30 33 36
        </DataArray>
        <DataArray type="UInt8" Name="types" format="ascii" RangeMin="5" RangeMax="5">
          5 5 5 5 5 5
          5 5 5 5 5 5
        </DataArray>
      </Cells>
    </Piece>
  </UnstructuredGrid>
</VTKFile>
