<?xml version="1.0"?>
<VTKFile type="UnstructuredGrid" version="0.1" byte_order="LittleEndian" header_type="UInt32" compressor="vtkZLibDataCompressor">
  <UnstructuredGrid>
    <Piece NumberOfPoints="13" NumberOfCells="14">
      <PointData>
        <DataArray type="Float64" Name="Disp" NumberOfComponents="3" format="ascii" RangeMin="0" RangeMax="2.0428937144971404">
          0.6164501692101261 -0.19686108986917325 0 1.4012883514657404 -0.02216022558835031 0
          0.15602680071194427 -0.09287437170033741 0 0.38477715143128627 -0.03232317530573056 0
          0 0 0 0.624150969935846 0.07222682280747043 0
          0.0678072639421304 -0.002290684636524696 0 0.1666910434714828 0.0760753823253221 0
          0 0 0 1.0055261113675782 -0.11736793679096047 0
          1.7054796323312746 -0.22396346262640326 0 2.0395402888500973 -0.11700486694657482 0
          1.386850339393865 -0.32857812725853475 0
          <InformationKey name="L2_NORM_RANGE" location="vtkDataArray" length="2">
            <Value index="0">
              0
            </Value>
            <Value index="1">
              2.0428937145
            </Value>
          </InformationKey>
        </DataArray>
        <DataArray type="Float64" Name="Sld_traction" NumberOfComponents="3" format="ascii" RangeMin="0" RangeMax="173.67778761407294">
          70.36761060546948 24.9570131221797 0 20.82326187208119 -32.75479000090102 0
          148.62867577275486 39.5686026147911 0 0 0 0
          -46.63389952028246 46.39572405774636 0 55.83133509109849 -57.099182514547735 0
          0 0 0 154.83748389831925 -78.6722790476846 0
          -5.152594614243606 -41.007465326510626 0 0 0 0
          0 0 0 4.7344350521955185 -10.993888200065552 0
          24.042031648180767 17.756364370450704 0
          <InformationKey name="L2_NORM_RANGE" location="vtkDataArray" length="2">
            <Value index="0">
              0
            </Value>
            <Value index="1">
              173.67778761
            </Value>
          </InformationKey>
        </DataArray>
        <DataArray type="Float64" Name="Fld_traction" NumberOfComponents="3" format="ascii" RangeMin="0" RangeMax="5.933015503037626">
          2.8935942851927483 -0.7586092083277843 0 4.314567721294591 -1.1720413909857883 0
          2.9200575564196343 -0.49897167806872905 0 0 0 0
          1.422857047828936 1.3987907199888083 0 5.423956968469074 -1.351617777785484 0
          0 0 0 5.854931264884186 -0.9594023362315056 0
          2.9912854704159906 -3.294278002804473 0 0 0 0
          0 0 0 2.6457375802513927 -0.5858962251836463 0
          2.9269784972422146 -0.8823184652082855 0
          <InformationKey name="L2_NORM_RANGE" location="vtkDataArray" length="2">
            <Value index="0">
              0
            </Value>
            <Value index="1">
              5.933015503
            </Value>
          </InformationKey>
        </DataArray>
        <DataArray type="Float64" Name="Velocity" NumberOfComponents="3" format="ascii" RangeMin="0" RangeMax="0.0208623809594784">
          0.006876327640775004 -0.012675987587349322 0 0.011309962451192979 -0.01699368043266688 0
          0.0019230410864523595 -0.006284265715023794 0 0.0040911515424568445 -0.007934750726676584 0
          0 0 0 0.005745774493736033 -0.00877118846681027 0
          0.0007170338221700566 -0.002372046403332393 0 0.0008972340100690673 -0.0038454812197724585 0
          0 0 0 0.009654035061255617 -0.01372322938859527 0
          0.003998453093696286 -0.014465134330078622 0 -0.00811838997852199 -0.019217978131297803 0
          0.012498975178100391 -0.014819589847698007 0
          <InformationKey name="L2_NORM_RANGE" location="vtkDataArray" length="2">
            <Value index="0">
              0
            </Value>
            <Value index="1">
              0.020862380959
            </Value>
          </InformationKey>
        </DataArray>
      </PointData>
      <CellData>
        <DataArray type="UInt8" Name="vtkGhostType" format="ascii" RangeMin="0" RangeMax="1">
          0 0 1 1 1 1
          1 1 0 0 0 0
          0 0
        </DataArray>
        <DataArray type="Float64" Name="Gauss Stress" NumberOfComponents="6" format="ascii" RangeMin="32.32634387655607" RangeMax="611.425641007451">
          114.92955816151749 -272.72814709057826 0 -35.702303051422845 0 0
          -44.6312937659772 62.38520699837103 0 -153.59080469662882 0 0
          38.16776727681634 -56.78005022666629 0 110.9982616226927 0 0
          -1.2298305141357675 20.36540046007433 0 25.074498787267093 0 0
          16.283016760097503 -16.265895606994746 0 33.808371938431335 0 0
          -16.47071096489249 32.44783771834364 0 -48.227287563496446 0 0
          33.992899158718785 -80.88455322050025 0 -0.6937993237232482 0 0
          -12.456418991513253 53.10481963622882 0 62.438054552000565 0 0
          28.360007287749383 -33.41535729197956 0 411.37645631012634 0 0
          185.70439738290028 -582.5336599396945 0 -3.118703463054021 0 0
          -218.57561598288993 538.6502511969514 0 137.0395825652809 0 0
          -68.7182681685639 66.09770565045747 0 -269.8066607846715 0 0
          88.75190728952074 -95.72720659478412 0 252.51451294278723 0 0
          -62.764173576087245 226.97007198983556 0 128.5717859717859 0 0
          <InformationKey name="L2_NORM_RANGE" location="vtkDataArray" length="2">
            <Value index="0">
              32.326343877
            </Value>
            <Value index="1">
              611.42564101
            </Value>
          </InformationKey>
        </DataArray>
        <DataArray type="Float64" Name="Gauss Strain" NumberOfComponents="6" format="ascii" RangeMin="0.00532063837901739" RangeMax="0.08274098252822382">
          0.013316389725563314 -0.025909037503617498 0 -0.007225127071043431 0 0
          -0.005165344530760896 0.005527309322282403 0 -0.030692338058179953 0 0
          0.0038402782409788774 -0.0056695748456422335 0 0.022234890462088173 0 0
          -0.00040753952252159387 0.0017491617262788695 0 0.005008346788429971 0 0
          0.0016040319147522793 -0.0016510831590608173 0 0.0067621393843643185 0 0
          -0.001922732080091416 0.0029639870514984725 0 -0.009635331183976475 0 0
          0.0040330152747077835 -0.007494306576841468 0 -0.00013923790855918777 0 0
          -0.0019016763681097837 0.004636195457962733 0 0.01245284580567914 0 0
          5.5511151231257815e-17 -0.006195064294216235 0 0.08250873510196582 0 0
          0.0228996485154927 -0.05625751111793885 0 -0.0006426854424126493 0 0
          -0.028362119294311983 0.04580336170423477 0 0.0268443195017802 0 0
          -0.008169241147095604 0.0053304351003984896 0 -0.05403369447748111 0 0
          0.007750285331136751 -0.01072676806825068 0 0.05058268160037097 0 0
          -0.009089970542571435 0.019560038832425686 0 0.025427321276826197 0 0
          <InformationKey name="L2_NORM_RANGE" location="vtkDataArray" length="2">
            <Value index="0">
              0.005320638379
            </Value>
            <Value index="1">
              0.082740982528
            </Value>
          </InformationKey>
        </DataArray>
        <DataArray type="Float64" Name="Btraction" NumberOfComponents="3" format="ascii" RangeMin="0" RangeMax="3.837738537615113">
          1.937883947204127 -0.4191936287988378 0 0 0 0
          0 0 0 2.3201017671819946 -0.5859792053898114 0
          0 0 0 0 0 0
          1.9401909274783207 -0.5469758911786898 0 3.2461748965878883 -0.8412197229237572 0
          0 0 0 1.4476382014161897 0.2999396806400263 0
          2.948738911766725 -1.4178934463453257 0 0 0 0
          0 0 0 3.759629411117753 -0.7703400380056632 0
          <InformationKey name="L2_NORM_RANGE" location="vtkDataArray" length="2">
            <Value index="0">
              0
            </Value>
            <Value index="1">
              3.8377385376
            </Value>
          </InformationKey>
        </DataArray>
      </CellData>
      <Points>
        <DataArray type="Float32" Name="Points" NumberOfComponents="3" format="ascii" RangeMin="10" RangeMax="13.021927811442218">
          11 3.7184319496154785 0 10 6.2815680503845215 0
          11 1.6591010093688965 0 10.5 2.6568450927734375 0
          11 0 0 10 3.61250901222229 0
          10.5 0.8241099119186401 0 10 1.6373380422592163 0
          10 0 0 10.5 5 0
          10.5 7.3431549072265625 0 10 8.340899467468262 0
          11 6.387491226196289 0
          <InformationKey name="L2_NORM_RANGE" location="vtkDataArray" length="2">
            <Value index="0">
              10
            </Value>
            <Value index="1">
              13.021927811
            </Value>
          </InformationKey>
        </DataArray>
      </Points>
      <Cells>
        <DataArray type="Int64" Name="connectivity" format="ascii" RangeMin="0" RangeMax="12">
          3 2 0 5 3 0
          5 0 9 10 11 1
          12 10 1 12 1 9
          9 0 12 5 9 1
          8 4 6 6 4 2
          8 6 7 6 2 7
          7 2 3 7 3 5
        </DataArray>
        <DataArray type="Int64" Name="offsets" format="ascii" RangeMin="3" RangeMax="42">
          3 6 9 12 15 18
          21 24 27 30 33 36
          39 42
        </DataArray>
        <DataArray type="UInt8" Name="types" format="ascii" RangeMin="5" RangeMax="5">
          5 5 5 5 5 5
          5 5 5 5 5 5
          5 5
        </DataArray>
      </Cells>
    </Piece>
  </UnstructuredGrid>
</VTKFile>
