<?xml version="1.0"?>
<VTKFile type="UnstructuredGrid" version="0.1" byte_order="LittleEndian" header_type="UInt32" compressor="vtkZLibDataCompressor">
  <UnstructuredGrid>
    <Piece NumberOfPoints="13" NumberOfCells="14">
      <PointData>
        <DataArray type="Float64" Name="Disp" NumberOfComponents="3" format="ascii" RangeMin="0" RangeMax="1.9813818090150306">
          0.6020486353853196 -0.18556236030951048 0 1.3600001134612782 -0.01120411022218755 0
          0.1537743612858078 -0.0888188004502816 0 0.37635058194005067 -0.028041927761534767 0
          0 0 0 0.6085435901527362 0.07471892368928904 0
          0.06692642773398227 -0.0013882048842247072 0 0.16409983337199435 0.0759777224422426 0
          0 0 0 0.9779085154525957 -0.10592077877977522 0
          1.6555993222695868 -0.2045273005680415 0 1.9789139244874157 -0.09886127940447766 0
          1.3474452382895903 -0.30743671880812906 0
          <InformationKey name="L2_NORM_RANGE" location="vtkDataArray" length="2">
            <Value index="0">
              0
            </Value>
            <Value index="1">
              1.981381809
            </Value>
          </InformationKey>
        </DataArray>
        <DataArray type="Float64" Name="Sld_traction" NumberOfComponents="3" format="ascii" RangeMin="0" RangeMax="168.35240343871558">
          66.27190321558872 23.851549675643934 0 21.80019551321252 -31.219836965199367 0
          143.3694052514118 41.27757224248147 0 0 0 0
          -46.40640976552324 43.05032562612792 0 54.11032861969566 -54.35548357377539 0
          0 0 0 149.15629186810924 -78.07004764791337 0
          -8.049305170836782 -46.7530700858739 0 0 0 0
          0 0 0 6.22630315244051 -11.819798676835932 0
          22.87252778764606 15.963259627261756 0
          <InformationKey name="L2_NORM_RANGE" location="vtkDataArray" length="2">
            <Value index="0">
              0
            </Value>
            <Value index="1">
              168.35240344
            </Value>
          </InformationKey>
        </DataArray>
        <DataArray type="Float64" Name="Fld_traction" NumberOfComponents="3" format="ascii" RangeMin="0" RangeMax="6.809328974312755">
          2.154072169777639 -0.5433419361984223 0 4.999977265967637 -1.3328083210280608 0
          2.135147383664471 -0.35462110439376593 0 0 0 0
          1.0353464760789823 1.0179589912031843 0 6.228371811395049 -1.5102972636070593 0
          0 0 0 6.72378133132783 -1.075976620983257 0
          3.433375318115458 -3.7777928702824033 0 0 0 0
          0 0 0 3.2432222294147133 -0.7497990083024004 0
          2.2329425581191913 -0.64574680487699 0
          <InformationKey name="L2_NORM_RANGE" location="vtkDataArray" length="2">
            <Value index="0">
              0
            </Value>
            <Value index="1">
              6.8093289743
            </Value>
          </InformationKey>
        </DataArray>
        <DataArray type="Float64" Name="Velocity" NumberOfComponents="3" format="ascii" RangeMin="0" RangeMax="0.04246653078528738">
          -0.010550935774193138 0.0018358891090832913 0 0.02172724575689311 0.007666161637006709 0
          -0.007744331035655805 0.004040479131913723 0 -0.009927147890875038 0.003701210678168698 0
          0 0 0 -0.010815579006015485 0.007815520252682728 0
          -0.0036726548923255477 0.0009180147496389217 0 -0.008938778101075254 0.000020065765176217193 0
          0 0 0 0.004961409713391096 0.003466550732489776 0
          0.03166535926131808 0.0011437866834401733 0 0.0423358207836686 0.0033293416032084897 0
          0.0196447255480261 -0.0037113393500310572 0
          <InformationKey name="L2_NORM_RANGE" location="vtkDataArray" length="2">
            <Value index="0">
              0
            </Value>
            <Value index="1">
              0.042466530785
            </Value>
          </InformationKey>
        </DataArray>
      </PointData>
      <CellData>
        <DataArray type="UInt8" Name="vtkGhostType" format="ascii" RangeMin="0" RangeMax="1">
          0 0 1 1 1 1
          1 1 0 0 0 0
          0 0
        </DataArray>
        <DataArray type="Float64" Name="Gauss Stress" NumberOfComponents="6" format="ascii" RangeMin="37.06958427006073" RangeMax="593.3689179787549">
          110.01298924454332 -250.43936033270205 0 -27.91217799153738 0 0
          -39.893272824516906 66.55282004617871 0 -143.36384584430078 0 0
          33.64501256669982 -44.89037652301381 0 108.17186326152225 0 0
          -3.2619586106404346 25.380978962264116 0 26.820134430958937 0 0
          15.399610522513708 -13.045657192674046 0 36.471663922745975 0 0
          -15.264763315170448 37.16219899626291 0 -46.3203712398901 0 0
          31.929922086701822 -70.14169064819546 0 0.6084116080496139 0 0
          -13.678716411207576 59.21858430972374 0 60.327155385377026 0 0
          29.65243326874046 -20.235607503129216 0 406.03255571848973 0 0
          182.71765785189834 -556.0885400947342 0 3.3287568415744895 0 0
          -211.03031960252764 537.2524380644704 0 137.52343373227643 0 0
          -65.23388004807018 73.92013465145297 0 -258.07261116319995 0 0
          81.91504193140494 -78.51606685303989 0 245.51771848144654 0 0
          -60.2734248985234 227.74228017358104 0 124.67259402890747 0 0
          <InformationKey name="L2_NORM_RANGE" location="vtkDataArray" length="2">
            <Value index="0">
              37.06958427
            </Value>
            <Value index="1">
              593.36891798
            </Value>
          </InformationKey>
        </DataArray>
        <DataArray type="Float64" Name="Gauss Strain" NumberOfComponents="6" format="ascii" RangeMin="0.005828756934363664" RangeMax="0.08150095234994333">
          0.01263140572289806 -0.02379377248051262 0 -0.00564127856888438 0 0
          -0.0047623392361687555 0.005866081056926485 0 -0.028629161810921115 0 0
          0.0033021434321877097 -0.0045595808129820226 0 0.021656921036625594 0 0
          -0.0006556277755102036 0.002204319834451518 0 0.005355887759028905 0 0
          0.0014799309957392866 -0.0013643216014822546 0 0.0072936297085278625 0 0
          -0.0018837483041445058 0.0033512189276422855 0 -0.009250416767028367 0 0
          0.003708989056481815 -0.006526912422891606 0 0.00012202494135323493 0 0
          -0.0020912221791264947 0.005175663564828625 0 0.012027620806472062 0 0
          0 -0.004997471096311323 0 0.08134759072393764 0 0
          0.02234187018779832 -0.05364834615661306 0 0.0006847613169792518 0 0
          -0.027629498237276 0.0456235353816134 0 0.026925673781350738 0 0
          -0.007874838107941873 0.006046816620902173 0 -0.05163771660261855 0 0
          0.007005597210080037 -0.009049699293054436 0 0.0491408405372176 0 0
          -0.008863308143045256 0.019609520370325595 0 0.02464991545661376 0 0
          <InformationKey name="L2_NORM_RANGE" location="vtkDataArray" length="2">
            <Value index="0">
              0.0058287569344
            </Value>
            <Value index="1">
              0.08150095235
            </Value>
          </InformationKey>
        </DataArray>
        <DataArray type="Float64" Name="Btraction" NumberOfComponents="3" format="ascii" RangeMin="0" RangeMax="4.40261391598042">
          1.4297398511473696 -0.2993210135307293 0 0 0 0
          0 0 0 2.7477331651274493 -0.6942024431101536 0
          0 0 0 0 0 0
          1.4623382426322764 -0.396362913691804 0 3.742783025787561 -0.9477018615450399 0
          0 0 0 1.056831286581151 0.2211126289364728 0
          3.385718883147762 -1.61792316375522 0 0 0 0
          0 0 0 4.317384380907626 -0.8620912948634387 0
          <InformationKey name="L2_NORM_RANGE" location="vtkDataArray" length="2">
            <Value index="0">
              0
            </Value>
            <Value index="1">
              4.402613916
            </Value>
          </InformationKey>
        </DataArray>
      </CellData>
      <Points>
        <DataArray type="Float32" Name="Points" NumberOfComponents="3" format="ascii" RangeMin="10" RangeMax="13.021927811442218">
          11 3.7184319496154785 0 10 6.2815680503845215 0
          11 1.6591010093688965 0 10.5 2.6568450927734375 0
          11 0 0 10 3.61250901222229 0
          10.5 0.8241099119186401 0 10 1.6373380422592163 0
          10 0 0 10.5 5 0
          10.5 7.3431549072265625 0 10 8.340899467468262 0
          11 6.387491226196289 0
          <InformationKey name="L2_NORM_RANGE" location="vtkDataArray" length="2">
            <Value index="0">
              10
            </Value>
            <Value index="1">
              13.021927811
            </Value>
          </InformationKey>
        </DataArray>
      </Points>
      <Cells>
        <DataArray type="Int64" Name="connectivity" format="ascii" RangeMin="0" RangeMax="12">
          3 2 0 5 3 0
          5 0 9 10 11 1
          12 10 1 12 1 9
          9 0 12 5 9 1
          8 4 6 6 4 2
          8 6 7 6 2 7
          7 2 3 7 3 5
        </DataArray>
        <DataArray type="Int64" Name="offsets" format="ascii" RangeMin="3" RangeMax="42">
          3 6 9 12 15 18
          21 24 27 30 33 36
          39 42
        </DataArray>
        <DataArray type="UInt8" Name="types" format="ascii" RangeMin="5" RangeMax="5">
          5 5 5 5 5 5
          5 5 5 5 5 5
          5 5
        </DataArray>
      </Cells>
    </Piece>
  </UnstructuredGrid>
</VTKFile>
