<?xml version="1.0"?>
<VTKFile type="UnstructuredGrid" version="0.1" byte_order="LittleEndian" header_type="UInt32" compressor="vtkZLibDataCompressor">
  <UnstructuredGrid>
    <Piece NumberOfPoints="13" NumberOfCells="14">
      <PointData>
        <DataArray type="Float64" Name="Disp" NumberOfComponents="3" format="ascii" RangeMin="0" RangeMax="2.006775023688417">
          0.608108294442276 -0.19417051361378834 0 1.3786775258012014 -0.021207478834258126 0
          0.15415553538316112 -0.09209664873449802 0 0.37951389663292057 -0.032304121244205515 0
          0 0 0 0.6151051956587402 0.07067757018184945 0
          0.06694622736824003 -0.002507047742707409 0 0.1644450808674818 0.07459103883580967 0
          0 0 0 0.9902283289822997 -0.11524197280820059 0
          1.67706599358937 -0.2182968893446955 0 2.0036029482699216 -0.11278839206108636 0
          1.365397114240329 -0.32183547154335046 0
          <InformationKey name="L2_NORM_RANGE" location="vtkDataArray" length="2">
            <Value index="0">
              0
            </Value>
            <Value index="1">
              2.0067750237
            </Value>
          </InformationKey>
        </DataArray>
        <DataArray type="Float64" Name="Sld_traction" NumberOfComponents="3" format="ascii" RangeMin="0" RangeMax="171.27025557424585">
          68.3030660186596 25.736149221243476 0 19.8711668906729 -31.674087034217354 0
          146.22357615594444 40.119693896579975 0 0 0 0
          -45.982382911623134 47.64643746745183 0 54.551127227981176 -56.29675776914293 0
          0 0 0 152.54392326758997 -77.87073852609282 0
          -5.2710141927376135 -39.27000237128976 0 0 0 0
          0 0 0 4.340979481407532 -9.889434058692112 0
          22.341102997574037 18.044186262876444 0
          <InformationKey name="L2_NORM_RANGE" location="vtkDataArray" length="2">
            <Value index="0">
              0
            </Value>
            <Value index="1">
              171.27025557
            </Value>
          </InformationKey>
        </DataArray>
        <DataArray type="Float64" Name="Fld_traction" NumberOfComponents="3" format="ascii" RangeMin="0" RangeMax="5.727784231489271">
          2.775454703056071 -0.7113810960502274 0 4.074507678822687 -1.0716017534206017 0
          2.839718351768917 -0.4769739784580565 0 0 0 0
          1.3879268828348104 1.3653741493228506 0 5.214752812686988 -1.2725906557423055 0
          0 0 0 5.654761250971992 -0.9116947937784918 0
          2.8880702612648386 -3.178681090672697 0 0 0 0
          0 0 0 2.4366352382825305 -0.4969278347774494 0
          2.7653248408370525 -0.8127892929050516 0
          <InformationKey name="L2_NORM_RANGE" location="vtkDataArray" length="2">
            <Value index="0">
              0
            </Value>
            <Value index="1">
              5.7277842315
            </Value>
          </InformationKey>
        </DataArray>
        <DataArray type="Float64" Name="Velocity" NumberOfComponents="3" format="ascii" RangeMin="0" RangeMax="0.01730186753756627">
          0.012036148064373309 0.0024710686501050044 0 0.0159072502279749 0.00463209353537402 0
          0.006136300906871395 -0.00026266252079223257 0 0.009348599273613173 0.0023870138412483283 0
          0 0 0 0.011145382034178142 0.004296290030627814 0
          0.003059592704345717 0.0008574625107436742 0 0.006090106307581819 0.003070509110888079 0
          0 0 0 0.014187471432529741 0.0038258817038696047 0
          0.016878519426456018 0.003803971905552983 0 0.016807450199169516 0.002866931927454547 0
          0.01623791413789233 0.003697604838505491 0
          <InformationKey name="L2_NORM_RANGE" location="vtkDataArray" length="2">
            <Value index="0">
              0
            </Value>
            <Value index="1">
              0.017301867538
            </Value>
          </InformationKey>
        </DataArray>
      </PointData>
      <CellData>
        <DataArray type="UInt8" Name="vtkGhostType" format="ascii" RangeMin="0" RangeMax="1">
          0 0 1 1 1 1
          1 1 0 0 0 0
          0 0
        </DataArray>
        <DataArray type="Float64" Name="Gauss Stress" NumberOfComponents="6" format="ascii" RangeMin="27.77938157837947" RangeMax="607.0648134883713">
          112.94977744288624 -271.38717852952857 0 -33.46921483900934 0 0
          -42.836844682639345 56.073524601738654 0 -150.67211893985072 0 0
          35.46926163929972 -56.7788500382034 0 107.13679657669442 0 0
          -1.3202857182070145 16.60249599664294 0 22.233038775231837 0 0
          14.10681631624032 -16.077740358687002 0 30.40069131355498 0 0
          -15.446775534506738 27.33283060795717 0 -46.050922788501296 0 0
          32.4241032942255 -80.87482836573356 0 0.4022934199090105 0 0
          -12.5398948801785 48.25395759276232 0 59.75657961074823 0 0
          26.982512473518476 -36.577983286719544 0 406.1526771170487 0 0
          183.4464323093324 -578.6805169437993 0 -1.9883556789151426 0 0
          -215.95885365238144 527.7795163330571 0 134.45395908616157 0 0
          -66.88236636970862 60.137497067830125 0 -266.3354221773741 0 0
          85.68904096008508 -96.37802122222315 0 248.18578305535704 0 0
          -62.169995166709455 219.38517233801284 0 125.23461540226921 0 0
          <InformationKey name="L2_NORM_RANGE" location="vtkDataArray" length="2">
            <Value index="0">
              27.779381578
            </Value>
            <Value index="1">
              607.06481349
            </Value>
          </InformationKey>
        </DataArray>
        <DataArray type="Float64" Name="Gauss Strain" NumberOfComponents="6" format="ascii" RangeMin="0.004680704225141209" RangeMax="0.08173152873871706">
          0.013139988118778253 -0.025750739721857145 0 -0.00677344244479623 0 0
          -0.004900972335465714 0.004984757812915741 0 -0.030118255942240407 0 0
          0.0036262007712595246 -0.005614902271514954 0 0.02146520202601506 0 0
          -0.00035915334793379383 0.0014312720091563813 0 0.004442010958082855 0 0
          0.00141939675184094 -0.0015996841207424062 0 0.0060813976263765735 0 0
          -0.0017569591834692977 0.0025177396158466148 0 -0.009203162071938371 0 0
          0.0039003592296746326 -0.007469812726244807 0 0.00008074472184483801 0 0
          -0.0018332193835119965 0.004231344025015071 0 0.011922178029016251 0 0
          0 -0.00637576248496674 0 0.08148246708773013 0 0
          0.022676584136254174 -0.05583976891342546 0 -0.00040969142116554087 0 0
          -0.027920386731830164 0.04496205070586562 0 0.026351557635891608 0 0
          -0.007887389533304475 0.004834941448790653 0 -0.053352401766087965 0 0
          0.007539777767447187 -0.010699897071546838 0 0.049727039348369535 0 0
          -0.00890852288402022 0.018946000914633665 0 0.024779162151795795 0 0
          <InformationKey name="L2_NORM_RANGE" location="vtkDataArray" length="2">
            <Value index="0">
              0.0046807042251
            </Value>
            <Value index="1">
              0.081731528739
            </Value>
          </InformationKey>
        </DataArray>
        <DataArray type="Float64" Name="Btraction" NumberOfComponents="3" format="ascii" RangeMin="0" RangeMax="3.695604579994224">
          1.8717243516083286 -0.39611835816942786 0 0 0 0
          0 0 0 2.1703809723684055 -0.522843196066017 0
          0 0 0 0 0 0
          1.8469265146310407 -0.5080567963184262 0 3.096420163836558 -0.7813974697209688 0
          0 0 0 1.409215078201242 0.2961333902882646 0
          2.8476105040789434 -1.3634586281503958 0 0 0 0
          0 0 0 3.6231713545529924 -0.7280951498402655 0
          <InformationKey name="L2_NORM_RANGE" location="vtkDataArray" length="2">
            <Value index="0">
              0
            </Value>
            <Value index="1">
              3.69560458
            </Value>
          </InformationKey>
        </DataArray>
      </CellData>
      <Points>
        <DataArray type="Float32" Name="Points" NumberOfComponents="3" format="ascii" RangeMin="10" RangeMax="13.021927811442218">
          11 3.7184319496154785 0 10 6.2815680503845215 0
          11 1.6591010093688965 0 10.5 2.6568450927734375 0
          11 0 0 10 3.61250901222229 0
          10.5 0.8241099119186401 0 10 1.6373380422592163 0
          10 0 0 10.5 5 0
          10.5 7.3431549072265625 0 10 8.340899467468262 0
          11 6.387491226196289 0
          <InformationKey name="L2_NORM_RANGE" location="vtkDataArray" length="2">
            <Value index="0">
              10
            </Value>
            <Value index="1">
              13.021927811
            </Value>
          </InformationKey>
        </DataArray>
      </Points>
      <Cells>
        <DataArray type="Int64" Name="connectivity" format="ascii" RangeMin="0" RangeMax="12">
          3 2 0 5 3 0
          5 0 9 10 11 1
          12 10 1 12 1 9
          9 0 12 5 9 1
          8 4 6 6 4 2
          8 6 7 6 2 7
          7 2 3 7 3 5
        </DataArray>
        <DataArray type="Int64" Name="offsets" format="ascii" RangeMin="3" RangeMax="42">
          3 6 9 12 15 18
          21 24 27 30 33 36
          39 42
        </DataArray>
        <DataArray type="UInt8" Name="types" format="ascii" RangeMin="5" RangeMax="5">
          5 5 5 5 5 5
          5 5 5 5 5 5
          5 5
        </DataArray>
      </Cells>
    </Piece>
  </UnstructuredGrid>
</VTKFile>
