<?xml version="1.0"?>
<VTKFile type="UnstructuredGrid" version="0.1" byte_order="LittleEndian" header_type="UInt32" compressor="vtkZLibDataCompressor">
  <UnstructuredGrid>
    <Piece NumberOfPoints="94" NumberOfCells="150">
      <PointData>
        <DataArray type="Float64" Name="Velocity" NumberOfComponents="3" format="ascii" RangeMin="3.3529290300824824e-23" RangeMax="2.750084731221268">
          2.6223085257340744 0 0 2.6025025446399566 0.183523170106075 0
          2.7120299794031353 0.2926052459795643 0 2.3012535219455277 0 0
          1.9664445491961273 0.3781906553200313 0 2.4124294250230083 0.2999591367501201 0
          2.597523075929264 0.5281776380070586 0 2.0108289548668736 0.37924328699967613 0
          1.023362485965735 0.3493316207756307 0 1.8410032158234788 0 0
          2.173133181295496 0.5334172241346832 0 2.1792679395769796 0.41574725907108045 0
          2.4391128784901572 0.7647254343864133 0 0.2858373544075138 0.2670584382001161 0
          1.2224186210252084 0.4206224298697142 0 2.429145279157446 0.82375355985263 0
          0.06624788540777382 0.19894779377111746 0 2.2474223584258906 0.7560785204784938 0
          0.43166797155859554 0.28218023921601615 0 1.6719420267562213 0.7775548576672217 0
          -0.0038475097157748385 0.007649306979987035 0 2.3718561800031708 1.124844586145493 0
          1.729119201117428 0.2991561938100505 0 -0.004262113185625352 0.007331060852989572 0
          0.9350133421159886 0.518649037118768 0 2.0971963242317413 0.9078680743963571 0
          2.068688272815858 1.3487396791827977 0 -0.003786360395098246 0.00780911144957769 0
          -0.004107940586211395 0.0074859980038072356 0 2.037846128093088 1.1154421471120481 0
          1.7174580782841509 1.5267096632670525 0 1.4140846002823086 0 0
          -0.004686680551230569 0.006459785817812345 0 -0.004769893691346499 0.004745803305283708 0
          1.8495508285312563 1.38036586720286 0 1.1060653086087096 1.6580694349960372 0
          1.6761523851180402 0.6438630365600128 0 -0.003931377982644481 0.0026523333190017584 0
          1.7285501504386265 1.0204377988487077 0 1.5544251533950575 1.5317326184664486 0
          -0.0015895752056665593 0.0006996969642335571 0 1.094914297651281 1.5865328288057374 0
          0.31791551315675654 0.8016384334424413 0 -3.3529290300824824e-23 0 0
          1.5260800052354855 1.1302602377587923 0 1.229547061433454 1.441386662091071 0
          0.9359458377113363 1.393428525419603 0 1.446625498288093 0.7438584268688859 0
          1.2682888996342767 0.19952210466786968 0 0.43742879491115627 0.7429875795140941 0
          1.3230641969474 1.0541282793165545 0 1.077582196042097 1.1750967176215001 0
          1.358586635863877 0.8279080677556838 0 0.7875439981175444 1.030165067199887 0
          0.193057050869873 0 0 1.1477372030508264 0.9643487398801013 0
          1.2956143193786145 0.6448608162732462 0 0.3447216317544492 0.26974490034918114 0
          0.9489980572668273 0.9315377474034938 0 0.6500392967615224 0.5459716628799484 0
          1.2323102365897178 0.3844754938384161 0 1.2138968898813425 0.6029566322462009 0
          1.1155867190364028 0 0 1.044148454778059 0.6829298882052854 0
          0.49269210152985243 0 0 0.888729963327933 0.6274292042896003 0
          0.8277436551297428 0.48931059910982777 0 1.0403246565758322 0.1263221524590649 0
          0.7689055474209602 0.28567518165529293 0 0.7335735717894809 0 0
          1.0505807243284488 0.22722150991202317 0 1.0490017426323623 0.35216169930010305 0
          0.9796427845359978 0.3239944710199374 0 0.9529679697638205 0.2555239892443558 0
          0.9089883612144659 0.1530721466816917 0 0.9191177962897294 0 0
          1.0000000001345786 0 0 1.0000000001345783 0 0
          1.0000000001345786 0 0 1.002505518861228 0 0
          1.0000000001345786 0 0 1.0000000001345786 0 0
          1.0000000001345786 0 0 1.0000000001345786 0 0
          2.747958348664518 0.10812466370504878 0 2.708543871109768 0 0
          0.15044421825642948 0.31079417178605223 0 0.27776461576461303 0.3098106485804969 0
          1.0157991330703777 0.26109334773085385 0 1.080969735591214 0.2539357385391582 0
          2.024398108570735 0.2214956759167551 0 2.089503516432277 0.12063991729290259 0
          0.09716378128205093 0.27375878216089206 0 -0.004859922306885598 0.006455376019179121 0
          <InformationKey name="L2_NORM_RANGE" location="vtkDataArray" length="2">
            <Value index="0">
              3.3529290301e-23
            </Value>
            <Value index="1">
              2.7500847312
            </Value>
          </InformationKey>
        </DataArray>
        <DataArray type="Float64" Name="Pressure" format="ascii" RangeMin="-3.1024393897002587" RangeMax="6.425311569946412">
          -2.082964439366845 -1.8492434938342088 -2.435996856954518 -0.6822232293305399 -2.799272415861761 -0.7498900893675499
          -1.5971479917922722 -2.5088552883606448 -2.7097215630996936 1.1383624735006983 -2.2345652680122607 0.298130329473144
          -1.4281045762368678 -2.7459088668659497 -2.5975717381011907 -1.7125005384696617 -2.6806224680170514 0.08393203261960704
          -2.6633489899359133 -2.337394269358504 -2.434754307183044 -0.6374423635833217 1.6594061999691905 -2.6852321879583227
          -2.160374797798991 0.7109572495953604 -0.9753971260097853 -0.05476903727718181 3.002120802592579 0.8151354116809624
          -0.6468036409023574 2.454519742015435 4.504575836445352 5.610535127745418 0.8794260841454531 1.2991214054265439
          1.9849823583189965 6.207118768342432 1.8577410134783523 1.701880224631746 6.369611769638043 3.178602904957935
          5.095706938277525 6.425311569946412 2.372625398952176 2.961549281378214 4.29768512660562 2.6201098783999273
          2.8460118238909176 5.811331770580607 3.0513843935500837 3.9291117397718636 3.0430583796545174 5.246921612093983
          6.4108136435021175 3.7665122731612004 3.100644853017615 6.325472353922021 4.692921945048141 6.087035301229452
          3.199861923237103 3.576659438463131 3.271402521490311 4.300866593717782 6.309823268846631 5.067747661125394
          5.688407355390977 3.413118310023498 5.999241623577595 6.040801983552463 3.7656082218418074 4.214958020615604
          4.879836822365248 5.376574554353073 5.712966508349211 5.864769751107048 3.4215565967466617 3.6175342127594274
          4.120527218780193 5.758777306140567 4.77475378028162 5.2932577461339845 5.60244586151736 5.70519584292142
          -3.0170211911719753 -2.6698076894291165 -2.8041281948513044 -2.8411702527801186 -2.832978366160475 -3.0289171321884854
          -2.9135349516391402 -3.1024393897002587 -2.751484371758421 -2.7023432629840296
        </DataArray>
        <DataArray type="Float64" Name="BTraction" NumberOfComponents="3" format="ascii" RangeMin="0" RangeMax="6.389880998447163">
          -0.00556426642049565 1.924641515734489 0 0 0 0
          0 0 0 -0.009553259197722102 0.5668635002616174 0
          0 0 0 0 0 0
          0 0 0 0 0 0
          0 0 0 -0.007932270408828353 -1.1109174751905355 0
          0 0 0 0 0 0
          0 0 0 0 0 0
          0 0 0 0 0 0
          0 0 0 0 0 0
          0 0 0 0 0 0
          -1.750120045148692 -0.29851433503774283 0 0 0 0
          0 0 0 -2.540841572250685 0.7611429379022138 0
          0 0 0 0 0 0
          0 0 0 -0.9293652664161013 -0.41502239482975134 0
          -2.8842996167536077 0.6200965394064799 0 0 0 0
          0 0 0 -0.0003934870135552259 -2.419895699194563 0
          -4.3984314203542905 1.1548744300731255 0 -5.386878779659914 1.4148557846983663 0
          0 0 0 0 0 0
          0 0 0 -6.011970024452009 1.405523287619163 0
          0 0 0 0 0 0
          -6.317079382904328 0.9618145582185649 0 0 0 0
          0 0 0 -3.205214114553396 3.521702908131097 0
          0 0 0 0 0 0
          0 0 0 0 0 0
          0 0 0 0 0 0
          0 0 0 0 0 0
          0 0 0 0 0 0
          -0.003863865260463103 6.363238926381204 0 0 0 0
          0 0 0 0 0 0
          0 0 0 0 0 0
          0 0 0 0 0 0
          0.0036465463153970245 -3.1888925449556043 0 0 0 0
          -0.006697074620346166 6.2208610819255155 0 0 0 0
          0 0 0 0 0 0
          0 0 0 -0.0073788369892034905 6.008171357782188 0
          0 0 0 0 0 0
          0 0 0 0 0 0
          0 0 0 -0.0029769277288995344 5.838040103399626 0
          1.741246135752604 -1.6986194238275638 0 3.655821072145831 -0.009811413489995634 0
          4.129072369598375 -0.01600674091739033 0 0.0005030701135515604 5.754613886263379 0
          4.733103915644484 -0.018853504713677187 0 5.253243750052789 -0.0173201139924077 0
          5.567599487459135 -0.008112342368583282 0 3.2707977944546127 2.4218679919633783 0
          0 0 0 -0.003135528774769602 2.6088122343778584 0
          0 0 0 0 0 0
          0 0 0 0 0 0
          0 0 0 0 0 0
          0 0 0 -2.5944990910583186 0.7575561449358802 0
          <InformationKey name="L2_NORM_RANGE" location="vtkDataArray" length="2">
            <Value index="0">
              0
            </Value>
            <Value index="1">
              6.3898809984
            </Value>
          </InformationKey>
        </DataArray>
        <DataArray type="Float64" Name="ALEdispl" NumberOfComponents="3" format="ascii" RangeMin="0" RangeMax="2.6267268266368844">
          0 0 0 0.8241496152563197 -0.09639185874431361 0
          1.6240347571418945 -0.3468473794144429 0 0 0 0
          2.0812464546234324 -0.5594598837087555 0 1.0320591792480838 -0.15842199577604751 0
          1.9203213204611684 -0.4228613870329608 0 2.2433805146692976 -0.5854344168913541 0
          2.3985053380281807 -0.6441110416685025 0 0 0 0
          2.3530826823779134 -0.529043678968808 0 1.3308330772062358 -0.19564636709424243 0
          2.236172222027388 -0.404407805288691 0 2.4394226838548603 -0.6663038505549556 0
          2.523465673140012 -0.5562804211816614 0 2.452242629534639 -0.4234795776525875 0
          2.346425920105711 -0.6376440786090836 0 2.0939771317617 -0.2779050877039957 0
          2.537138798100207 -0.5384724109093441 0 2.5983401944419358 -0.385126025764711 0
          2.4207073665437857 -0.47646212477068806 0 2.493333804088674 -0.2663027215627381 0
          1.1276015619378883 -0.09610541899590223 0 1.9672597622063992 -0.4061516974251658 0
          2.5869587526582385 -0.31238823616113787 0 2.2479997404599246 -0.19057402585355754 0
          2.5852692121075553 -0.20750797151983874 0 2.4673178116949033 -0.17463194220267547 0
          2.016389385293042 -0.10608714504540283 0 2.413997323772374 -0.12418012152225842 0
          2.5415565486125042 -0.09764600360753418 0 0 0 0
          1.5342642619463644 -0.037454202388395426 0 1.0075498725392307 0.027640603105217914 0
          2.484001864656723 -0.04089247621997234 0 2.3514734899273915 0.01527584026148908 0
          1.971797327501459 -0.08122834339126535 0 0.5010305674419679 0.07404401709655446 0
          2.297749356064827 -0.014248894471156594 0 2.40389600287265 0.06549603440787533 0
          0.14894687280027785 0.0688201377632488 0 2.015934596801414 0.14344095908321888 0
          1.3122555231393818 0.15982048406473154 0 0 0 0
          2.2960681993984853 0.07687673272855847 0 2.2017824223010596 0.19026674828142373 0
          1.6025133177554058 0.23604555688096998 0 2.067519602914881 0.021383763029410637 0
          0.9535031400742493 -0.12987004231907145 0 0.8993873189783375 0.262008600449232 0
          2.1806640874391894 0.1776379511856075 0 1.875127352965078 0.30736116306366557 0
          2.067816988145574 0.12306719211427032 0 1.2564928881096327 0.3436526005109794 0
          0 0 0 1.967436752345753 0.29578086485327654 0
          1.8587502451461158 0.09314057978620563 0 0.2414748290291673 0.185182126203486 0
          1.519276683868892 0.38841034148517906 0 0.5759262580388931 0.30071529064332814 0
          1.4831543173170305 -0.04395809779557162 0 1.8152990579427482 0.18333631705611908 0
          0 0 0 1.6523389417266634 0.3764779191040402 0
          0 0 0 1.1987993879865757 0.4518247542130124 0
          0.7791150884966147 0.4417551453034471 0 0.7647783458922568 -0.16417776216681718 0
          0.3699918959334816 0.28805180533646124 0 0 0 0
          0.9423352741868047 0.025162225854779046 0 1.093919310250416 0.2329296801093224 0
          0.8780843795994566 0.36057090634281314 0 0.6474875237285225 0.39452431151507944 0
          0.36346432025105896 0.3097203905106552 0 0 0 0
          0 0 0 0 0 0
          0 0 0 0 0 0
          0 0 0 0 0 0
          0 0 0 0 0 0
          1.3399512029292593 -0.1403010404296437 0 0 0 0
          2.2678023437163626 -0.757611548199802 0 2.32075468833677 -0.7395144395291947 0
          2.2586924201452985 -0.6771185666957767 0 2.099041653645608 -0.6522754795031165 0
          1.8752284353543416 -0.48210237353730695 0 1.6865094071621831 -0.38253832324553455 0
          2.052190176684766 -0.6953510122610458 0 1.4758444521724587 -0.32805740366401864 0
          <InformationKey name="L2_NORM_RANGE" location="vtkDataArray" length="2">
            <Value index="0">
              0
            </Value>
            <Value index="1">
              2.6267268266
            </Value>
          </InformationKey>
        </DataArray>
        <DataArray type="Float64" Name="ALEveloc" NumberOfComponents="3" format="ascii" RangeMin="0" RangeMax="0.008753524516369052">
          0 0 0 -0.0002602048905686605 0.0017716662361396684 0
          -0.0007823311718500037 0.0033111333943600663 0 0 0 0
          -0.001552472148368178 0.004460133875830108 0 -0.0003740304902828395 0.001857390133128467 0
          -0.001131896067643634 0.004068528519719283 0 -0.0018309642009954885 0.005117331268291947 0
          -0.0024843181770219935 0.005886444242041544 0 0 0 0
          -0.0020015444592997866 0.0055169457571140335 0 -0.0007456694177794265 0.002108363150725323 0
          -0.0017432616093548958 0.004874256450047021 0 -0.003150885932302838 0.006544135124569417 0
          -0.0027990983242411893 0.0065821859158071705 0 -0.002222489717976117 0.005927631507136821 0
          -0.003810224013594432 0.007061126559844033 0 -0.0013554178465899902 0.004108349742955764 0
          -0.0034026480830458006 0.007249589980350857 0 -0.0029468688221112593 0.007082019950496954 0
          -0.003847509715257047 0.007649306978957604 0 -0.00243197108726223 0.006492262355731082 0
          -0.0004099800511512264 0.0015764361382154257 0 -0.0042621131850517635 0.0073310608520029685 0
          -0.003435310301970862 0.00767486542506135 0 -0.002023258869548794 0.005754380165809203 0
          -0.0029821708180266526 0.007486190585198893 0 -0.0037863603945886837 0.007809111448526751 0
          -0.004107940585658554 0.007485998002799782 0 -0.0025799975967362165 0.007023800140286224 0
          -0.003366111070689737 0.00788214914259297 0 0 0 0
          -0.004686680550599842 0.006459785816942995 0 -0.004769893690704574 0.004745803304645024 0
          -0.0030783662518891752 0.007681398382164868 0 -0.0036054042683431042 0.007976543833044946 0
          -0.001909159567317964 0.005863869211335776 0 -0.003931377982115403 0.0026523333186448117 0
          -0.002824944598843082 0.007191347672537714 0 -0.003319621847727827 0.007831953368318448 0
          -0.0015895752054526369 0.000699696964139393 0 -0.003398441274895081 0.007657358723021396 0
          -0.004009628685769151 0.005992921781336286 0 0 0 0
          -0.003138075723355449 0.007454594752276042 0 -0.0032455870527989816 0.00764050102570718 0
          -0.003245595261927914 0.0067725008029630995 0 -0.002881680737631509 0.006860374266770535 0
          -0.0007646800582796764 0.0033026614215772854 0 -0.0034129183024680376 0.0044511473708377935 0
          -0.0031574089221586554 0.007281249019139624 0 -0.0028757193321244934 0.007086926486447431 0
          -0.0030447778685052107 0.00688050609063548 0 -0.0029006775816915464 0.005748755798028138 0
          0 0 0 -0.002777879839023889 0.00684657301358893 0
          -0.002833908639976901 0.006360410079955914 0 -0.0012027708899874923 0.0009184010727950054 0
          -0.0023936034758431646 0.0062006033067352195 0 -0.0019053997044623516 0.003021895123778373 0
          -0.002693445248146187 0.0055579340009041245 0 -0.002808464765757801 0.00604970496492746 0
          0 0 0 -0.002193885482923541 0.005838232871565707 0
          0 0 0 -0.0016404036227757324 0.005071062653923208 0
          -0.0013992258342210295 0.003766656200804852 0 -0.0018381374836999864 0.003428799819217565 0
          -0.0009473424813762898 0.0017841630604936154 0 0 0 0
          -0.001829783976862398 0.003349792669204793 0 -0.0015200460403435034 0.0035661642107221447 0
          -0.000817322510358709 0.003079382004841813 0 -0.0005679829912809131 0.002526113635942351 0
          -0.0005034946026533094 0.0014209022467142063 0 0 0 0
          0 0 0 0 0 0
          0 0 0 0 0 0
          0 0 0 0 0 0
          0 0 0 0 0 0
          -0.0006275978866576715 0.002281293119850064 0 0 0 0
          -0.003531656002740302 0.0062069973215068686 0 -0.0028532507137115637 0.00573784034846736 0
          -0.002178772198732748 0.005151884162113207 0 -0.0018828961926971033 0.004418124310256677 0
          -0.0012521445800075526 0.0037222158414510487 0 -0.0010934000537887734 0.00308877605641511 0
          -0.003953807494364803 0.006476575067413171 0 -0.004859922306231557 0.006455376018310366 0
          <InformationKey name="L2_NORM_RANGE" location="vtkDataArray" length="2">
            <Value index="0">
              0
            </Value>
            <Value index="1">
              0.0087535245164
            </Value>
          </InformationKey>
        </DataArray>
      </PointData>
      <CellData>
        <DataArray type="UInt8" Name="vtkGhostType" format="ascii" RangeMin="0" RangeMax="1">
          0 0 0 0 0 0
          0 0 1 0 0 1
          0 1 0 0 1 1
          1 0 0 0 0 0
          1 1 0 1 1 0
          1 1 0 1 0 0
          0 0 0 0 0 0
          0 0 0 0 0 0
          0 0 0 0 0 0
          0 0 0 0 0 0
          0 0 0 0 0 0
          0 0 0 0 0 0
          0 0 0 0 0 0
          0 0 0 0 0 0
          0 1 0 0 0 0
          0 0 0 1 0 0
          0 0 0 0 0 1
          0 0 0 0 0 0
          0 0 0 0 0 0
          0 0 0 0 0 0
          0 0 0 0 0 0
          0 0 0 0 0 0
          0 1 0 0 0 0
          0 0 0 0 0 0
          0 0 0 0 0 0
        </DataArray>
        <DataArray type="Float64" Name="PStrain" NumberOfComponents="6" format="ascii" RangeMin="0.00650938791814397" RangeMax="2.2452923171560926">
          0.009894971995429736 0.009894971995429736 0 0.009894971995429736 0 0
          0.012025794033379306 0.012025794033379306 0 0.012025794033379306 0 0
          0.014612130772958441 0.014612130772958441 0 0.014612130772958441 0 0
          0.011818442074701884 0.011818442074701884 0 0.011818442074701884 0 0
          0.008591162193320115 0.008591162193320115 0 0.008591162193320115 0 0
          0.008181686346916042 0.008181686346916042 0 0.008181686346916042 0 0
          0.007436118267413307 0.007436118267413307 0 0.007436118267413307 0 0
          0.010430532966416188 0.010430532966416188 0 0.010430532966416188 0 0
          0.009020125211821509 0.009020125211821509 0 0.009020125211821509 0 0
          0.007444746119973615 0.007444746119973615 0 0.007444746119973615 0 0
          0.00923590763099507 0.00923590763099507 0 0.00923590763099507 0 0
          0.005747475936832962 0.005747475936832962 0 0.005747475936832962 0 0
          0.007079066209671253 0.007079066209671253 0 0.007079066209671253 0 0
          0.004698050126250004 0.004698050126250004 0 0.004698050126250004 0 0
          0.07594019743008167 0.07594019743008167 0 0.07594019743008167 0 0
          0.05121184242963285 0.05121184242963285 0 0.05121184242963285 0 0
          0.08932534291585975 0.08932534291585975 0 0.08932534291585975 0 0
          0.09126151537243275 0.09126151537243275 0 0.09126151537243275 0 0
          0.045277788758820464 0.045277788758820464 0 0.045277788758820464 0 0
          0.05262526251387379 0.05262526251387379 0 0.05262526251387379 0 0
          0.04052923199144455 0.04052923199144455 0 0.04052923199144455 0 0
          0.023372193082505273 0.023372193082505273 0 0.023372193082505273 0 0
          0.019930130050274424 0.019930130050274424 0 0.019930130050274424 0 0
          0.023417761155942525 0.023417761155942525 0 0.023417761155942525 0 0
          0.04158150816756873 0.04158150816756873 0 0.04158150816756873 0 0
          0.024440258800831834 0.024440258800831834 0 0.024440258800831834 0 0
          0.021148516893712013 0.021148516893712013 0 0.021148516893712013 0 0
          0.028083863327499993 0.028083863327499993 0 0.028083863327499993 0 0
          0.01700997398861374 0.01700997398861374 0 0.01700997398861374 0 0
          0.024320489749516994 0.024320489749516994 0 0.024320489749516994 0 0
          0.015322861444078292 0.015322861444078292 0 0.015322861444078292 0 0
          0.013068966979854203 0.013068966979854203 0 0.013068966979854203 0 0
          0.014723286265956263 0.014723286265956263 0 0.014723286265956263 0 0
          0.00688873145763008 0.00688873145763008 0 0.00688873145763008 0 0
          0.09999999999999999 0.09999999999999999 0 0.09999999999999999 0 0
          0.004846908388766834 0.004846908388766834 0 0.004846908388766834 0 0
          0.011567567975239681 0.011567567975239681 0 0.011567567975239681 0 0
          0.007441447340327248 0.007441447340327248 0 0.007441447340327248 0 0
          0.0054986999929583615 0.0054986999929583615 0 0.0054986999929583615 0 0
          0.014038074178639875 0.014038074178639875 0 0.014038074178639875 0 0
          0.027682487697941585 0.027682487697941585 0 0.027682487697941585 0 0
          0.03305821069405464 0.03305821069405464 0 0.03305821069405464 0 0
          0.01333616425528792 0.01333616425528792 0 0.01333616425528792 0 0
          0.04312018704464659 0.04312018704464659 0 0.04312018704464659 0 0
          0.019760127129917947 0.019760127129917947 0 0.019760127129917947 0 0
          0.056025918181371495 0.056025918181371495 0 0.056025918181371495 0 0
          0.01242460440585767 0.01242460440585767 0 0.01242460440585767 0 0
          0.00807564998722636 0.00807564998722636 0 0.00807564998722636 0 0
          0.0497916574172832 0.0497916574172832 0 0.0497916574172832 0 0
          0.03182044375974456 0.03182044375974456 0 0.03182044375974456 0 0
          0.037045394153535305 0.037045394153535305 0 0.037045394153535305 0 0
          0.02456345472413531 0.02456345472413531 0 0.02456345472413531 0 0
          0.010069900825111769 0.010069900825111769 0 0.010069900825111769 0 0
          0.015501511417739297 0.015501511417739297 0 0.015501511417739297 0 0
          0.029695806528518588 0.029695806528518588 0 0.029695806528518588 0 0
          0.029785213853773106 0.029785213853773106 0 0.029785213853773106 0 0
          0.027472747152711106 0.027472747152711106 0 0.027472747152711106 0 0
          0.013159492019327337 0.013159492019327337 0 0.013159492019327337 0 0
          0.01695798912604799 0.01695798912604799 0 0.01695798912604799 0 0
          0.012110285976156175 0.012110285976156175 0 0.012110285976156175 0 0
          0.004234319309473958 0.004234319309473958 0 0.004234319309473958 0 0
          0.007453478234952819 0.007453478234952819 0 0.007453478234952819 0 0
          0.013610889644463515 0.013610889644463515 0 0.013610889644463515 0 0
          0.011066571297783143 0.011066571297783143 0 0.011066571297783143 0 0
          0.00917986379136062 0.00917986379136062 0 0.00917986379136062 0 0
          0.006213219100334082 0.006213219100334082 0 0.006213219100334082 0 0
          0.0037581968668001188 0.0037581968668001188 0 0.0037581968668001188 0 0
          1.2963201237194686 1.2963201237194686 0 1.2963201237194686 0 0
          0.8320433107873888 0.8320433107873888 0 0.8320433107873888 0 0
          0.8507035981034834 0.8507035981034834 0 0.8507035981034834 0 0
          0.8865306977145151 0.8865306977145151 0 0.8865306977145151 0 0
          0.2086060788013679 0.2086060788013679 0 0.2086060788013679 0 0
          0.23380336522367196 0.23380336522367196 0 0.23380336522367196 0 0
          1.127022845985145 1.127022845985145 0 1.127022845985145 0 0
          0.5640971578641268 0.5640971578641268 0 0.5640971578641268 0 0
          0.1492697704204078 0.1492697704204078 0 0.1492697704204078 0 0
          0.22936236252871517 0.22936236252871517 0 0.22936236252871517 0 0
          0.05994357256900788 0.05994357256900788 0 0.05994357256900788 0 0
          0.2978282144825554 0.2978282144825554 0 0.2978282144825554 0 0
          0.20644502106654042 0.20644502106654042 0 0.20644502106654042 0 0
          0.1948986351546405 0.1948986351546405 0 0.1948986351546405 0 0
          0.5547766815492404 0.5547766815492404 0 0.5547766815492404 0 0
          0.15628145215253186 0.15628145215253186 0 0.15628145215253186 0 0
          0.24247137270672298 0.24247137270672298 0 0.24247137270672298 0 0
          0.12117767120634448 0.12117767120634448 0 0.12117767120634448 0 0
          0.2687118199952646 0.2687118199952646 0 0.2687118199952646 0 0
          0.08190065772443354 0.08190065772443354 0 0.08190065772443354 0 0
          0.054684108947321675 0.054684108947321675 0 0.054684108947321675 0 0
          0.3599334146784593 0.3599334146784593 0 0.3599334146784593 0 0
          0.07029942085997082 0.07029942085997082 0 0.07029942085997082 0 0
          0.021665129137750382 0.021665129137750382 0 0.021665129137750382 0 0
          0.07993811910603439 0.07993811910603439 0 0.07993811910603439 0 0
          0.027294973114274815 0.027294973114274815 0 0.027294973114274815 0 0
          0.24746920564751873 0.24746920564751873 0 0.24746920564751873 0 0
          0.14353429622653685 0.14353429622653685 0 0.14353429622653685 0 0
          0.08012036935814264 0.08012036935814264 0 0.08012036935814264 0 0
          0.30680980436517213 0.30680980436517213 0 0.30680980436517213 0 0
          0.09146579858867135 0.09146579858867135 0 0.09146579858867135 0 0
          0.051659662682394865 0.051659662682394865 0 0.051659662682394865 0 0
          0.14422495879977343 0.14422495879977343 0 0.14422495879977343 0 0
          0.0735385841393568 0.0735385841393568 0 0.0735385841393568 0 0
          0.1444526847424597 0.1444526847424597 0 0.1444526847424597 0 0
          0.033079445218659465 0.033079445218659465 0 0.033079445218659465 0 0
          0.17728565138911928 0.17728565138911928 0 0.17728565138911928 0 0
          0.1654236373421279 0.1654236373421279 0 0.1654236373421279 0 0
          0.18680079751120346 0.18680079751120346 0 0.18680079751120346 0 0
          0.03200915906123604 0.03200915906123604 0 0.03200915906123604 0 0
          0.02893922301875701 0.02893922301875701 0 0.02893922301875701 0 0
          0.1463604226209641 0.1463604226209641 0 0.1463604226209641 0 0
          0.08813506233809408 0.08813506233809408 0 0.08813506233809408 0 0
          0.08300785992353048 0.08300785992353048 0 0.08300785992353048 0 0
          0.027312554053600026 0.027312554053600026 0 0.027312554053600026 0 0
          0.1741168026649724 0.1741168026649724 0 0.1741168026649724 0 0
          0.04403978504958943 0.04403978504958943 0 0.04403978504958943 0 0
          0.06992003071492589 0.06992003071492589 0 0.06992003071492589 0 0
          0.04852520037813431 0.04852520037813431 0 0.04852520037813431 0 0
          0.07117740732483595 0.07117740732483595 0 0.07117740732483595 0 0
          0.056136865770967506 0.056136865770967506 0 0.056136865770967506 0 0
          0.0367122252001732 0.0367122252001732 0 0.0367122252001732 0 0
          0.08441448907407886 0.08441448907407886 0 0.08441448907407886 0 0
          0.09995996154543892 0.09995996154543892 0 0.09995996154543892 0 0
          0.09252402996724156 0.09252402996724156 0 0.09252402996724156 0 0
          0.01480392981745143 0.01480392981745143 0 0.01480392981745143 0 0
          0.10403587335291951 0.10403587335291951 0 0.10403587335291951 0 0
          0.09085523768004697 0.09085523768004697 0 0.09085523768004697 0 0
          0.027804895054280188 0.027804895054280188 0 0.027804895054280188 0 0
          0.04962292788552498 0.04962292788552498 0 0.04962292788552498 0 0
          0.06640911485029462 0.06640911485029462 0 0.06640911485029462 0 0
          0.06828768985986484 0.06828768985986484 0 0.06828768985986484 0 0
          0.26021206486313014 0.26021206486313014 0 0.26021206486313014 0 0
          0.030897570110841252 0.030897570110841252 0 0.030897570110841252 0 0
          0.016762189386658036 0.016762189386658036 0 0.016762189386658036 0 0
          0.05622553749924318 0.05622553749924318 0 0.05622553749924318 0 0
          0.24999365462497858 0.24999365462497858 0 0.24999365462497858 0 0
          0.07260488693476569 0.07260488693476569 0 0.07260488693476569 0 0
          0.11656171999929771 0.11656171999929771 0 0.11656171999929771 0 0
          0.11320119411191201 0.11320119411191201 0 0.11320119411191201 0 0
          0.05464173018561211 0.05464173018561211 0 0.05464173018561211 0 0
          0.017806178195673678 0.017806178195673678 0 0.017806178195673678 0 0
          0.014933799341958303 0.014933799341958303 0 0.014933799341958303 0 0
          0.03750843213394671 0.03750843213394671 0 0.03750843213394671 0 0
          0.011567567975239685 0.011567567975239685 0 0.011567567975239685 0 0
          0.07983647119308197 0.07983647119308197 0 0.07983647119308197 0 0
          0.015025460844297945 0.015025460844297945 0 0.015025460844297945 0 0
          0.041849785441329494 0.041849785441329494 0 0.041849785441329494 0 0
          0.02590904389613299 0.02590904389613299 0 0.02590904389613299 0 0
          0.025755961007160353 0.025755961007160353 0 0.025755961007160353 0 0
          0.03683497789378681 0.03683497789378681 0 0.03683497789378681 0 0
          0.039474063858026744 0.039474063858026744 0 0.039474063858026744 0 0