<?xml version="1.0"?>
<VTKFile type="UnstructuredGrid" version="0.1" byte_order="LittleEndian" header_type="UInt32" compressor="vtkZLibDataCompressor">
  <UnstructuredGrid>
    <Piece NumberOfPoints="97" NumberOfCells="154">
      <PointData>
        <DataArray type="Float64" Name="Velocity" NumberOfComponents="3" format="ascii" RangeMin="0" RangeMax="2.7347815987550743">
          1.0226177667080305 0.00519846430981878 0 1.0328887826228579 0 0
          0.9926320442498943 -0.0015472389247283163 0 1.0045008244427835 -0.020681274077260545 0
          0.9865538405611186 -0.01333788338878057 0 1.0833301119777117 0 0
          0.9899411827591679 0.00225529072783545 0 0.972981848024254 0 0
          0.9725962263465417 -0.01202316963286134 0 0.9942112881408414 -0.002252358431411496 0
          1.1401235883777492 0 0 0.94963564822956 0 0
          0.9108378209965168 0 0 1.4180425147092446 0 0
          0.944015642599928 -0.302664931592347 0 1.5102919673312776 -0.49348504360790046 0
          0.6349666600068327 0 0 2.039852532979416 0 0
          0.5220699484646806 -0.43534695749691393 0 1.0150121887465515 -0.8217555105197402 0
          2.167896421139542 -0.44190950636294035 0 0.14691630732057412 0 0
          2.5824647804067253 0 0 0.017696813086464373 -0.7183286513200864 0
          1.005519773866735 -0.8329617204820816 0 2.6213961293161336 -0.16946536320516759 0
          -0.5934530050217822 0 0 2.7302506097887167 0 0
          -0.504647121100098 -0.242790842802313 0 1.7512245734556122 -0.20874545832132743 0
          0.1621544327674873 -0.2845471677051905 0 2.7337546199299405 0.07494044903164843 0
          -0.8277229494216034 0 0 2.609267353298631 0 0
          2.0805070817327596 0.036141267515225874 0 0.47230470281097714 0.1523630032970416 0
          -0.734983082136474 0.018844116676093793 0 -0.777329952008689 0 0
          2.615689198699281 0.1705809692665676 0 1.0271428233529167 0.2900212272343416 0
          -0.20589765312222566 0.31474470935954 0 2.084032572920541 0.10439696724915258 0
          -0.6354441312049708 0.17994236085226645 0 0.49033923388442796 0.3768445971588705 0
          0.8954133243906858 0.2602755950209604 0 0.10815027335435269 0.4068633826832863 0
          -0.5396694133195321 0 0 1.3913646017127275 0.07447605111745166 0
          -0.36004159261006435 0.302315335581105 0 2.0751428876544105 0.12745902358701303 0
          0.47421422244422184 0.3937746756427101 0 -0.5002023624701464 0.1274510316444636 0
          -0.11684404775828228 0.38217334658017016 0 0.6653267990265544 0.21949316637968894 0
          -0.43905784702950024 0.2509520007462506 0 0.16357920960179198 0.4254610015584429 0
          1.219758162255482 0.11724966134429579 0 -0.24370686306472672 0.3466969057533274 0
          0.3818917508386843 0.35715155687262523 0 -0.343200200777655 0 0
          -0.025005166898700026 0.41496716932383737 0 -0.34821227894734763 0.14120889205141665 0
          0.48623755844458405 0.18621848864485827 0 -0.2817488054078704 0.25517099363801643 0
          0.17845016780335846 0.4302624670309787 0 1.1645699664770266 0.13513126211776305 0
          -0.12256054556803297 0.34508612491908747 0 0.26549825519662656 0.34815441345845455 0
          0.05495927992379142 0.4006641208753554 0 0.34328502681940043 0.22801948618153073 0
          -0.2071782930910532 0.1417486058439245 0 0.163928432917588 0.3808011393747737 0
          -0.19806403807871073 0 0 -0.1451062432304278 0.235402612676323 0
          0.1627236970246521 0.28668656697540124 0 -0.015756729927324742 0.3231748050614812 0
          0.07418803208260921 0.32452336420139943 0 0.10042216625318025 0.2797737695022776 0
          -0.08052596414601047 1.3441541311992546e-23 0 -0.029959421756334037 0.19924846243065503 0
          0.03125444046492874 0.19336866592330043 0 -0.03258343326549866 0.0705450395546818 0
          -0.020873501356425683 0.0101603369669137 0 -0.020318491970102145 0 0
          -0.012067452080414357 0.007606411462949185 0 -0.00420435049686538 0.004444954800491276 0
          -0.00012834835881202585 0.0015588824418045191 0 0 0 0
          2.4541680205712213 0.1584074564856475 0 2.631634481458547 0.21561934648527178 0
          2.4725950309446083 0 0 0.336055548610288 0.24502927647423006 0
          1.167092898500991 0.2794061172502573 0 2.132984300941958 0.27818477504621375 0
          2.064782831878463 0.2577951099086862 0 0.057110079057497994 0.20029393688146835 0
          -0.02633261809965615 0.01079940335888286 0
          <InformationKey name="L2_NORM_RANGE" location="vtkDataArray" length="2">
            <Value index="0">
              0
            </Value>
            <Value index="1">
              2.7347815988
            </Value>
          </InformationKey>
        </DataArray>
        <DataArray type="Float64" Name="Pressure" format="ascii" RangeMin="-4.487596937535348" RangeMax="0.01107697815518418">
          -0.017766485072793443 -0.010074918768834637 -0.002074310954144104 -0.008201784450189433 -0.012642512679284781 0.01107697815518418
          0.0066210167044247065 -0.012336623663114927 -0.03471534191208231 -0.03692624093616315 -0.0016909806227019845 -0.03278117089807225
          -0.03036600012485677 0.009540697997655062 -0.11580682374256086 -0.5820429012566293 -0.20334626142984855 -0.8343208302785169
          -0.5319336768246561 -1.2426005220994771 -1.6155850558191975 -0.7087482760612199 -2.2377835434148428 -1.5273048109243874
          -3.253125968067483 -2.8312925809744116 -2.1364457067601412 -2.91587025393288 -3.1910122622697763 -4.326735493256387
          -4.3039847271903175 -3.203022555773999 -3.3572934931539167 -2.7729372042845957 -3.817981942974292 -4.487596937535348
          -4.0690293091713965 -3.6301760409301123 -2.99070258909413 -3.8631952512016827 -3.981450635183669 -3.013850542002568
          -3.620472170600509 -3.7191054414818754 -3.435343832764841 -3.674583489716016 -3.4713328277624083 -3.1485758951969114
          -3.6167173448972236 -2.911553534091918 -3.4734116982663026 -3.436757418119844 -3.5562162718231214 -3.2648566685198044
          -3.4445389505296613 -3.4597170170700755 -3.163369650622661 -3.440079882011752 -3.315577148316752 -3.3251254368149086
          -3.399465630258832 -3.3279680130299227 -3.2322967929824684 -3.325175605303632 -3.332208703377202 -3.183284367024917
          -3.3235485700083762 -3.267305212692014 -3.3025929611161624 -3.2707051968450402 -3.2706183219814737 -3.2717162812322624
          -3.272020888192617 -3.271482370647507 -3.2534047170282885 -3.2759966002059846 -3.2683259545422505 -3.2513316170418722
          -3.28099079333538 -3.2777522310765788 -3.3040356761763916 -3.2968188190774024 -3.3794910295044374 -3.306121126196905
          -3.3462263812318604 -3.3330704674444362 -3.321697207841894 -3.3156368652691 -1.9985120848619913 -2.50292091419316
          -2.2079616675760683 -3.262557961054892 -3.2011890308739637 -2.8495380184135644 -2.9705387270870665 -3.1908348697128144
          -3.35025392142534
        </DataArray>
        <DataArray type="Float64" Name="BTraction" NumberOfComponents="3" format="ascii" RangeMin="0" RangeMax="3.5705170993192095">
          0.006770638741164993 0.007603699753126455 0 0.0011418642674378282 0.008543586358317925 0
          0.0031081349687128853 0.0005248600198470274 0 0 0 0
          0 0 0 0.0021987743274593605 -0.004793857300492329 0
          -0.0021471167766512127 0.0007397793076192348 0 -0.0005663994972171686 -0.011671440064470929 0
          0 0 0 0 0 0
          0.005975794327539998 0.0038022749761193637 0 -0.0006824017410735901 -0.028109830162045667 0
          -0.003311093810905369 -0.0531496723943992 0 0.01084367200116558 0.1432966380238226 0
          0 0 0 0 0 0
          -0.006932938221473986 -0.22345078273000063 0 0.01015211435776747 0.9225553266064617 0
          0 0 0 0 0 0
          0 0 0 -0.008813762443472423 -0.7652770723417296 0
          0.0038980492457391745 2.1196345125343665 0 0 0 0
          0 0 0 0 0 0
          -0.009356878904051326 -2.010547494941802 0 -0.0006494432192795813 2.7794706072900524 0
          0 0 0 0 0 0
          0 0 0 0 0 0
          -0.0065212564292587314 -3.1681796467834933 0 -0.002603512041590757 2.6960872919102883 0
          0 0 0 0 0 0
          0 0 0 -0.00017619102125429278 -3.570517094972041 0
          0 0 0 0 0 0
          0 0 0 0 0 0
          0 0 0 0 0 0
          0 0 0 0 0 0
          0.003390741458754128 -3.507024839993883 0 0 0 0
          0 0 0 0 0 0
          0 0 0 0 0 0
          0 0 0 0 0 0
          0 0 0 0 0 0
          0 0 0 0 0 0
          0 0 0 0.0031179769157430644 -3.372086315195301 0
          0 0 0 0 0 0
          0 0 0 0 0 0
          0 0 0 0 0 0
          0 0 0 0 0 0
          0 0 0 0 0 0
          0 0 0 0 0 0
          0.0021675967236288477 -3.310069351621204 0 0 0 0
          0 0 0 0 0 0
          0 0 0 0 0 0
          0.0008720452562606006 -3.3038471942659866 0 0 0 0
          0 0 0 0 0 0
          -3.226712894367382 0.9802744297509006 0 -0.00008347027228051252 -3.310749224915971 0
          -3.214165401588398 0.9153662405390972 0 -3.2230471878093723 0.7966738645726974 0
          -3.2664280105083776 0.5275889789304611 0 -1.589781865746658 -1.5557696489274386 0
          0 0 0 0 0 0
          -0.004935174056168837 2.070485315175549 0 0 0 0
          0 0 0 0 0 0
          0 0 0 0 0 0
          -3.155197335591237 0.9890342332590856 0
          <InformationKey name="L2_NORM_RANGE" location="vtkDataArray" length="2">
            <Value index="0">
              0
            </Value>
            <Value index="1">
              3.5705170993
            </Value>
          </InformationKey>
        </DataArray>
        <DataArray type="Float64" Name="ALEdispl" NumberOfComponents="3" format="ascii" RangeMin="0" RangeMax="2.607966443511842">
          0 0 0 0 0 0
          0 0 0 0.20618739708532072 0.034360732201839356 0
          0.13487931587185856 -0.05315525434274857 0 0 0 0
          0 0 0 0 0 0
          0.19262720528374389 -0.018744118042952316 0 0.32904796264083946 0.004298045798700471 0
          0 0 0 0 0 0
          0 0 0 0 0 0
          0.5812437793823978 0.00869129731513512 0 0.42097693244946655 0.07001617552747405 0
          0 0 0 0 0 0
          0.43081821916471025 -0.13754794803228065 0 0.8475302357046905 -0.06149802612293707 0
          0.45143451065795065 0.09473512892159812 0 0 0 0
          0 0 0 0.47961780335663995 -0.2042073695640805 0
          1.0845368220743763 -0.1551712764318094 0 0.5560531038256248 0.0882262967890197 0
          0 0 0 0 0 0
          0.6140198573586267 -0.27609212943272265 0 1.210091411909964 -0.1954511802840965 0
          1.1681309642154065 -0.3779878661406354 0 0.728521371036876 0.04942451383496699 0
          0 0 0 0 0 0
          1.3343682185345953 -0.25340311170361124 0 1.4408877989614264 -0.5384186649619455 0
          0.8297928213924807 -0.4662955578654828 0 0 0 0
          1.3788673193664025 -0.14930569385979242 0 1.789981477378108 -0.6052719799404 0
          1.4234874744292705 -0.7875876590877618 0 1.7358579584557732 -0.4005364235427525 0
          0.7170021643831416 -0.5159412132659391 0 1.7728458872963813 -0.7845538007110541 0
          1.95800331388621 -0.6930927377802725 0 1.6904909776441823 -0.8627683490110327 0
          0 0 0 1.9637796980283078 -0.6073467968890637 0
          1.1612368874950652 -0.7644855111407376 0 1.9303498968969621 -0.504244923131847 0
          1.9367010417121495 -0.8441366583828601 0 0.48971665971471323 -0.38928687342431806 0
          1.4993101111423655 -0.8790033062059605 0 2.1065583400224663 -0.7714540389857898 0
          0.8828906963492936 -0.6539194471167824 0 1.825737523899591 -0.9132088404931799 0
          2.161064970191193 -0.680863966363685 0 1.2636255527886942 -0.8318849221332545 0
          2.0843340006527584 -0.8780014758654091 0 0 0 0
          1.6228716510230956 -0.9068831190949646 0 0.5566613435949309 -0.45897089474337016 0
          2.255059606188157 -0.7976445029956154 0 0.9415683009027672 -0.698350340248766 0
          1.9508204073556596 -0.9112893464347263 0 2.3258398257013897 -0.7077142556610883 0
          1.3294555144680382 -0.8219935049396334 0 2.2172042845511295 -0.8598143099636653 0
          1.7090663214606692 -0.8630511674177003 0 2.3899331808956163 -0.7729087096243483 0
          0.5651162318838167 -0.4697997558662695 0 2.053437212395998 -0.8540840377402985 0
          0 0 0 0.9414553466991413 -0.6442007074462722 0
          2.3355485876634368 -0.792120762651341 0 1.3460795999194142 -0.7226264552267644 0
          1.7040043865371457 -0.7135277250553502 0 2.1131062044059594 -0.7276000470501286 0
          0 0 0 0.9181130952966237 -0.5096775513778786 0
          1.3338062212213004 -0.5211577328119268 0 0.3788716231685774 -0.27400144996806175 0
          1.518020947381542 -0.3443255634706983 0 0 0 0
          0.9655125738485708 -0.25164387699811785 0 0.478752825660229 -0.16258120199838544 0
          0.141217790494501 -0.08246965758240503 0 0 0 0
          0.8482424574319029 -0.10287773270062557 0 1.6717450406755154 -0.3640312051438457 0
          0 0 0 2.512635166707069 -0.6986798190235255 0
          2.470430654655428 -0.6747789720040832 0 2.3104721729921596 -0.6129942978075389 0
          2.142921078885037 -0.5853095663615228 0 2.416584889649293 -0.6697278903828742 0
          2.024511402815585 -0.42812346033176196 0
          <InformationKey name="L2_NORM_RANGE" location="vtkDataArray" length="2">
            <Value index="0">
              0
            </Value>
            <Value index="1">
              2.6079664435
            </Value>
          </InformationKey>
        </DataArray>
        <DataArray type="Float64" Name="ALEveloc" NumberOfComponents="3" format="ascii" RangeMin="0" RangeMax="0.030367929755449774">
          0 0 0 0 0 0
          0 0 0 -0.00223046724534931 -0.00037116392191344216 0
          -0.0014597238121925593 0.0005755552114371093 0 0 0 0
          0 0 0 0 0 0
          -0.0020848680069086023 0.00020501264293878996 0 -0.0035594980337341764 -0.00004162870410027997 0
          0 0 0 0 0 0
          0 0 0 0 0 0
          -0.006296205990549808 -0.0000025022507518686343 0 -0.004526397823778505 -0.0005952817414708877 0
          0 0 0 0 0 0
          -0.004704869493780128 0.0016387084918743078 0 -0.009155215264749605 0.0009936024693013579 0
          -0.004798021680381015 -0.0007429687464427237 0 0 0 0
          0 0 0 -0.00529350985683652 0.0024572371063421583 0
          -0.01175159208027976 0.0024334478417846195 0 -0.005844378078775581 -0.0004527075736194819 0
          0 0 0 0 0 0
          -0.00683450671028174 0.003416621622554128 0 -0.012987548288124762 0.003398963675407485 0
          -0.012802000112588807 0.00510650163258386 0 -0.007625519542731052 0.00033011856067113876 0
          0 0 0 0 0 0
          -0.014350754027307122 0.004496344372798888 0 -0.015691848303843514 0.007689041381828132 0
          -0.00943595544606346 0.005933969333223876 0 0 0 0
          -0.014576132142783305 0.0038080022232473976 0 -0.019535324385593356 0.009312449132317768 0
          -0.016011965958581786 0.01108807934863476 0 -0.018588894704492098 0.007135774221917357 0
          -0.008546803051592056 0.007134603702507625 0 -0.019677059376687733 0.011649043920919144 0
          -0.02145462188143732 0.010733772998508195 0 -0.019055467705785478 0.012703477414167219 0
          0 0 0 -0.02131722589342422 0.009786794545013633 0
          -0.01343310992558644 0.011130260000223657 0 -0.02066427448680752 0.008594113065507614 0
          -0.021644461067114484 0.012708913812833567 0 -0.006085155584398594 0.00571861095294246 0
          -0.01714881950517011 0.013098233405553827 0 -0.023265009416407523 0.011921923686252 0
          -0.01054014875764242 0.009874762094179257 0 -0.020803548983593156 0.013789381500227016 0
          -0.023542168641204952 0.010896726496234521 0 -0.014741864562606954 0.012793148743353466 0
          -0.023545140046511648 0.013385932809970802 0 0 0 0
          -0.01880565156313585 0.014044709051634241 0 -0.00706830404404335 0.007460775932716768 0
          -0.025071745618445718 0.012419863700479095 0 -0.011330036038622593 0.011450735578296456 0
          -0.02257450049166687 0.014091878525996249 0 -0.02538545347894372 0.011403679761501584 0
          -0.01575690536830532 0.013475245674242187 0 -0.025296913154764233 0.01332627962566968 0
          -0.020185498294611026 0.013996410785692692 0 -0.026672909311320048 0.012305219704974002 0
          -0.007146058896447927 0.008652372648674356 0 -0.02424046936005464 0.013644039316648815 0
          0 0 0 -0.011540014206172344 0.011882619071091782 0
          -0.026840388008600335 0.012679104374497152 0 -0.01645739599055096 0.013066371029502477 0
          -0.02082552682354022 0.012798180176962104 0 -0.02558312913005656 0.012569514682785332 0
          0 0 0 -0.011263101194311176 0.010865817298528757 0
          -0.01733533598903314 0.011536470541293364 0 -0.003992544065312353 0.0063274370113806655 0
          -0.02087350135607524 0.010160336966743122 0 0 0 0
          -0.01206745208021176 0.007606411462821483 0 -0.004204350496794795 0.004444954800416651 0
          -0.00012834835880987105 0.0015588824417783476 0 0 0 0
          -0.008833052959615673 0.002693485985816979 0 -0.01761653009954589 0.006729510879298517 0
          0 0 0 -0.027996122332446305 0.011765555319602772 0
          -0.026895071191023856 0.011304422096600986 0 -0.024733293746875162 0.010335237831371802 0
          -0.02299814873095496 0.009782442194041563 0 -0.02796782594850633 0.01165866121508774 0
          -0.026332618099214056 0.010799403358701554 0
          <InformationKey name="L2_NORM_RANGE" location="vtkDataArray" length="2">
            <Value index="0">
              0
            </Value>
            <Value index="1">
              0.030367929755
            </Value>
          </InformationKey>
        </DataArray>
      </PointData>
      <CellData>
        <DataArray type="UInt8" Name="vtkGhostType" format="ascii" RangeMin="0" RangeMax="0">
          0 0 0 0 0 0
          0 0 0 0 0 0
          0 0 0 0 0 0
          0 0 0 0 0 0
          0 0 0 0 0 0
          0 0 0 0 0 0
          0 0 0 0 0 0
          0 0 0 0 0 0
          0 0 0 0 0 0
          0 0 0 0 0 0
          0 0 0 0 0 0
          0 0 0 0 0 0
          0 0 0 0 0 0
          0 0 0 0 0 0
          0 0 0 0 0 0
          0 0 0 0 0 0
          0 0 0 0 0 0
          0 0 0 0 0 0
          0 0 0 0 0 0
          0 0 0 0 0 0
          0 0 0 0 0 0
          0 0 0 0 0 0
          0 0 0 0 0 0
          0 0 0 0 0 0
          0 0 0 0 0 0
          0 0 0 0
        </DataArray>
        <DataArray type="Float64" Name="PStrain" NumberOfComponents="6" format="ascii" RangeMin="7.251546439670155e-8" RangeMax="0.49366110052691997">
          0.09999999999999999 0.09999999999999999 0 0.09999999999999999 0 0
          0.000001907373222368069 0.000001907373222368069 0 0.000001907373222368069 0 0
          0.000008909306992865764 0.000008909306992865764 0 0.000008909306992865764 0 0
          0.0000017120503807070884 0.0000017120503807070884 0 0.0000017120503807070884 0 0
          0.0000017534482662841084 0.0000017534482662841084 0 0.0000017534482662841084 0 0
          2.5294810734272506e-7 2.5294810734272506e-7 0 2.5294810734272506e-7 0 0
          0.0000011613436839500793 0.0000011613436839500793 0 0.0000011613436839500793 0 0
          1.641908249638773e-7 1.641908249638773e-7 0 1.641908249638773e-7 0 0
          5.481732289610421e-7 5.481732289610421e-7 0 5.481732289610421e-7 0 0
          4.7604111728275563e-7 4.7604111728275563e-7 0 4.7604111728275563e-7 0 0
          1.20229724507451e-7 1.20229724507451e-7 0 1.20229724507451e-7 0 0
          2.1429481177828254e-7 2.1429481177828254e-7 0 2.1429481177828254e-7 0 0
          0.000014232097230533305 0.000014232097230533305 0 0.000014232097230533305 0 0
          9.065220892415429e-8 9.065220892415429e-8 0 9.065220892415429e-8 0 0
          9.065220892415429e-8 9.065220892415429e-8 0 9.065220892415429e-8 0 0
          0.000014232097230533305 0.000014232097230533305 0 0.000014232097230533305 0 0
          4.186682288984637e-8 4.186682288984637e-8 0 4.186682288984637e-8 0 0
          0.000010471806960725658 0.000010471806960725658 0 0.000010471806960725658 0 0
          0.009514669878097685 0.009514669878097685 0 0.009514669878097685 0 0
          0.0060565483386631185 0.0060565483386631185 0 0.0060565483386631185 0 0
          0.008767461760983017 0.008767461760983017 0 0.008767461760983017 0 0
          0.004965399040508261 0.004965399040508261 0 0.004965399040508261 0 0
          0.005772960166463402 0.005772960166463402 0 0.005772960166463402 0 0
          0.0056382382251493925 0.0056382382251493925 0 0.0056382382251493925 0 0
          0.005466027232166024 0.005466027232166024 0 0.005466027232166024 0 0
          0.0029924741055389606 0.0029924741055389606 0 0.0029924741055389606 0 0
          0.0022836639400411534 0.0022836639400411534 0 0.0022836639400411534 0 0
          0.004251979075260672 0.004251979075260672 0 0.004251979075260672 0 0
          0.005505042135875816 0.005505042135875816 0 0.005505042135875816 0 0
          0.0021838414465999976 0.0021838414465999976 0 0.0021838414465999976 0 0
          0.0010606568764612695 0.0010606568764612695 0 0.0010606568764612695 0 0
          0.002582389573235211 0.002582389573235211 0 0.002582389573235211 0 0
          0.0038503748297174867 0.0038503748297174867 0 0.0038503748297174867 0 0
          0.0018160131467239442 0.0018160131467239442 0 0.0018160131467239442 0 0
          0.0046120040133817 0.0046120040133817 0 0.0046120040133817 0 0
          0.002296183925092745 0.002296183925092745 0 0.002296183925092745 0 0
          0.002557392385212522 0.002557392385212522 0 0.002557392385212522 0 0
          0.001840032289088829 0.001840032289088829 0 0.001840032289088829 0 0
          0.0006515142128071509 0.0006515142128071509 0 0.0006515142128071509 0 0
          0.0008525403705305493 0.0008525403705305493 0 0.0008525403705305493 0 0
          0.0009056733831841204 0.0009056733831841204 0 0.0009056733831841204 0 0
          0.0007436815443708099 0.0007436815443708099 0 0.0007436815443708099 0 0
          0.0010047474078326696 0.0010047474078326696 0 0.0010047474078326696 0 0
          0.0012125063957689987 0.0012125063957689987 0 0.0012125063957689987 0 0
          0.002345409257888748 0.002345409257888748 0 0.002345409257888748 0 0
          0.0011387426830231898 0.0011387426830231898 0 0.0011387426830231898 0 0
          0.0008321380651988474 0.0008321380651988474 0 0.0008321380651988474 0 0
          0.000325826665777878 0.000325826665777878 0 0.000325826665777878 0 0
          0.0002802457319527006 0.0002802457319527006 0 0.0002802457319527006 0 0
          0.0003117377801755019 0.0003117377801755019 0 0.0003117377801755019 0 0
          0.0003414383604237862 0.0003414383604237862 0 0.0003414383604237862 0 0
          0.00019951658774767356 0.00019951658774767356 0 0.00019951658774767356 0 0
          0.0002530509278235102 0.0002530509278235102 0 0.0002530509278235102 0 0
          0.00012246724073741852 0.00012246724073741852 0 0.00012246724073741852 0 0
          0.00008025251009565628 0.00008025251009565628 0 0.00008025251009565628 0 0
          0.00007749744694945196 0.00007749744694945196 0 0.00007749744694945196 0 0
          0.00010970716885945174 0.00010970716885945174 0 0.00010970716885945174 0 0
          0.0003277501618670881 0.0003277501618670881 0 0.0003277501618670881 0 0
          0.00013694098597794214 0.00013694098597794214 0 0.00013694098597794214 0 0
          0.0004203897359899084 0.0004203897359899084 0 0.0004203897359899084 0 0
          0.000055770789331687336 0.000055770789331687336 0 0.000055770789331687336 0 0
          0.00005801105801252084 0.00005801105801252084 0 0.00005801105801252084 0 0
          0.00009021744571100035 0.00009021744571100035 0 0.00009021744571100035 0 0
          0.0944442255239896 0.0944442255239896 0 0.0944442255239896 0 0
          0.09647168205195492 0.09647168205195492 0 0.09647168205195492 0 0
          0.04779909484336533 0.04779909484336533 0 0.04779909484336533 0 0
          0.11815618458073238 0.11815618458073238 0 0.11815618458073238 0 0
          0.14003839142729188 0.14003839142729188 0 0.14003839142729188 0 0
          0.10359949091203227 0.10359949091203227 0 0.10359949091203227 0 0
          0.07699814393376796 0.07699814393376796 0 0.07699814393376796 0 0
          0.15919827611169493 0.15919827611169493 0 0.15919827611169493 0 0
          0.05279057442820345 0.05279057442820345 0 0.05279057442820345 0 0
          0.05729627467869293 0.05729627467869293 0 0.05729627467869293 0 0
          0.029668500006278208 0.029668500006278208 0 0.029668500006278208 0 0
          0.043880537235330974 0.043880537235330974 0 0.043880537235330974 0 0
          0.02578329159534279 0.02578329159534279 0 0.02578329159534279 0 0
          0.05752750938644549 0.05752750938644549 0 0.05752750938644549 0 0
          0.07048138481516147 0.07048138481516147 0 0.07048138481516147 0 0
          0.07966604091518338 0.07966604091518338 0 0.07966604091518338 0 0
          0.04551540148810174 0.04551540148810174 0 0.04551540148810174 0 0
          0.05262998311934764 0.05262998311934764 0 0.05262998311934764 0 0
          0.04105757684811172 0.04105757684811172 0 0.04105757684811172 0 0
          0.08162380437483134 0.08162380437483134 0 0.08162380437483134 0 0
          0.030234777168444894 0.030234777168444894 0 0.030234777168444894 0 0
          0.029664924521079744 0.029664924521079744 0 0.029664924521079744 0 0
          0.017949055741922026 0.017949055741922026 0 0.017949055741922026 0 0
          0.03334440346596656 0.03334440346596656 0 0.03334440346596656 0 0
          0.018515959143770314 0.018515959143770314 0 0.018515959143770314 0 0
          0.03072778732348102 0.03072778732348102 0 0.03072778732348102 0 0
          0.047112353710296255 0.047112353710296255 0 0.047112353710296255 0 0
          0.05010951841109215 0.05010951841109215 0 0.05010951841109215 0 0
          0.03026608152945197 0.03026608152945197 0 0.03026608152945197 0 0
          0.04157629409500629 0.04157629409500629 0 0.04157629409500629 0 0
          0.02711585947488191 0.02711585947488191 0 0.02711585947488191 0 0
          0.02865009661318172 0.02865009661318172 0 0.02865009661318172 0 0
          0.022385425932817768 0.022385425932817768 0 0.022385425932817768 0 0
          0.018409020191779032 0.018409020191779032 0 0.018409020191779032 0 0
          0.01028220527468764 0.01028220527468764 0 0.01028220527468764 0 0
          0.01616004741268271 0.01616004741268271 0 0.01616004741268271 0 0
          0.013811058515221474 0.013811058515221474 0 0.013811058515221474 0 0
          0.05612987065077796 0.05612987065077796 0 0.05612987065077796 0 0
          0.017155017338646113 0.017155017338646113 0 0.017155017338646113 0 0
          0.019288576327382564 0.019288576327382564 0 0.019288576327382564 0 0
          0.013260480506016177 0.013260480506016177 0 0.013260480506016177 0 0
          0.04776731299730684 0.04776731299730684 0 0.04776731299730684 0 0
          0.061953383730586634 0.061953383730586634 0 0.061953383730586634 0 0
          0.017925370989762837 0.017925370989762837 0 0.017925370989762837 0 0
          0.03453942403988343 0.03453942403988343 0 0.03453942403988343 0 0
          0.029417835526402036 0.029417835526402036 0 0.029417835526402036 0 0
          0.018224418760987536 0.018224418760987536 0 0.018224418760987536 0 0
          0.021838338939670385 0.021838338939670385 0 0.021838338939670385 0 0
          0.011320281217543958 0.011320281217543958 0 0.011320281217543958 0 0
          0.03471893580120929 0.03471893580120929 0 0.03471893580120929 0 0
          0.021013555789754924 0.021013555789754924 0 0.021013555789754924 0 0
          0.017306676377724633 0.017306676377724633 0 0.017306676377724633 0 0
          0.013515870770195676 0.013515870770195676 0 0.013515870770195676 0 0
          0.00829633394912528 0.00829633394912528 0 0.00829633394912528 0 0
          0.04069989732488401 0.04069989732488401 0 0.04069989732488401 0 0
          0.019971255276033904 0.019971255276033904 0 0.019971255276033904 0 0
          0.01137744706947005 0.01137744706947005 0 0.01137744706947005 0 0
          0.015947271421426365 0.015947271421426365 0 0.015947271421426365 0 0
          0.04062509235761552 0.04062509235761552 0 0.04062509235761552 0 0
          0.025151143601777684 0.025151143601777684 0 0.025151143601777684 0 0
          0.025238366155631096 0.025238366155631096 0 0.025238366155631096 0 0
          0.01168283257699665 0.01168283257699665 0 0.01168283257699665 0 0
          0.02441224912989495 0.02441224912989495 0 0.02441224912989495 0 0
          0.015612434698022506 0.015612434698022506 0 0.015612434698022506 0 0
          0.026558399181918064 0.026558399181918064 0 0.026558399181918064 0 0
          0.01878340763829886 0.01878340763829886 0 0.01878340763829886 0 0
          0.01498675413382888 0.01498675413382888 0 0.01498675413382888 0 0
          0.01199427234264522 0.01199427234264522 0 0.01199427234264522 0 0
          0.018968156970620407 0.018968156970620407 0 0.018968156970620407 0 0
          0.011147567198790979 0.011147567198790979 0 0.011147567198790979 0 0
          0.007274406609646646 0.007274406609646646 0 0.007274406609646646 0 0
          0.007646569245744262 0.007646569245744262 0 0.007646569245744262 0 0
          0.012027156098525126 0.012027156098525126 0 0.012027156098525126 0 0
          0.012797850238410995 0.012797850238410995 0 0.012797850238410995 0 0
          0.029809101478300022 0.029809101478300022 0 0.029809101478300022 0 0
          0.28501536927766413 0.28501536927766413 0 0.28501536927766413 0 0
          0.2632353903795895 0.2632353903795895 0 0.2632353903795895 0 0
          0.1536313420357566 0.1536313420357566 0 0.1536313420357566 0 0