<?xml version="1.0"?>
<VTKFile type="UnstructuredGrid" version="0.1" byte_order="LittleEndian" header_type="UInt32" compressor="vtkZLibDataCompressor">
  <UnstructuredGrid>
    <Piece NumberOfPoints="94" NumberOfCells="150">
      <PointData>
        <DataArray type="Float64" Name="Velocity" NumberOfComponents="3" format="ascii" RangeMin="0" RangeMax="2.7390984124612374">
          2.5849293126452237 0 0 2.584792275821933 0.1713211932665431 0
          2.71264157733562 0.272614645015601 0 2.283713512803588 0 0
          1.9998342418282569 0.3620635309079533 0 2.4033988483644424 0.29001607653982314 0
          2.5996224274165995 0.5166702687457262 0 2.0386299581604366 0.3749950857255647 0
          1.0433059071281499 0.3546941604137704 0 1.8380624292412842 0 0
          2.193759967901606 0.5307265979215529 0 2.174652983164049 0.40808919087610346 0
          2.446510806296147 0.7569093602577803 0 0.2872873411240427 0.2790274013064856 0
          1.2343780488376317 0.42805249934217277 0 2.438858769719317 0.8220503917609862 0
          0.06104711676463084 0.20757099643579446 0 2.2466093280694044 0.7483260842935532 0
          0.43232770799383163 0.28827259064381944 0 1.6793452297981224 0.7807364661543976 0
          -0.022605532876790266 0.0073899296017808 0 2.3762677338519165 1.1232138578921635 0
          1.7285652823494488 0.2968227642179264 0 -0.018099874900382566 0.006486911903465345 0
          0.9368323441128515 0.522722267826212 0 2.095676871192127 0.9026155212947388 0
          2.0718681625991806 1.3508944256637012 0 -0.023474471170953762 0.004549252692712552 0
          -0.019154781236772528 0.003306447921822213 0 2.036718134164867 1.111159005242085 0
          1.7180592155399588 1.5312020886520055 0 1.4154646039509877 0 0
          -0.013338862061142218 0.001843689207323162 0 -0.006509243983414956 0.0004960420223911496 0
          1.847837754799687 1.378132517463344 0 1.1029646349142657 1.6609047529080732 0
          1.6763124539057728 0.6420147144212199 0 -0.0006031356900367317 -0.0003080252196666656 0
          1.72703463169328 1.0182445652138195 0 1.5522237081103047 1.529478425856725 0
          0.0010733570467181765 0.00008196541423736467 0 1.0934493567859347 1.585615331496563 0
          0.3167789422447484 0.7986132463312736 0 0 0 0
          1.5244155239310984 1.128136059472432 0 1.2271341153826931 1.4384455576022837 0
          0.9344879175869083 1.3919694109288083 0 1.4460887233628683 0.7433728436658654 0
          1.269064334644757 0.20008996040435817 0 0.43799170769936296 0.740555813150856 0
          1.3215559457119785 1.0524093720593373 0 1.075858537173037 1.1728064408859098 0
          1.3575872320961557 0.8273646112998542 0 0.7878879148126637 1.0286404978609445 0
          0.19518256949251844 0 0 1.1464032432304612 0.9630547603411842 0
          1.2953278695002237 0.6452176365774199 0 0.34623483755777257 0.2690488784311018 0
          0.9475983450267312 0.9298773182037241 0 0.6503731147416064 0.5449089902388969 0
          1.232561871292482 0.3858612028173856 0 1.2132575152673497 0.6039501734932431 0
          1.1163163999993708 0 0 1.0434542734425634 0.6831085181662419 0
          0.4935047127646162 0 0 0.8882678360292937 0.6268606288151479 0
          0.8279145625459782 0.48911796432919097 0 1.040336507244159 0.1270772162963397 0
          0.7690186135866744 0.28540364365138565 0 0.7339517980031722 0 0
          1.0506947331197176 0.2280116928250174 0 1.0488954085288498 0.35269165406499764 0
          0.9795993951728797 0.3243191519968655 0 0.9527694071387268 0.25569575165381553 0
          0.909022322457675 0.15323428300613948 0 0.9190841532376778 0 0
          1.0000000001289524 0 0 1.0000000001289524 0 0
          1.0000000001289524 0 0 1.0024272947261998 0 0
          1.0000000001289526 0 0 1.0000000001289524 0 0
          1.0000000001289524 0 0 1.0000000001289524 0 0
          2.7374699801462037 0.09443633276454244 0 2.662504112724772 0 0
          0.14663916725319368 0.31957957490248934 0 0.2794732099061483 0.3149664278777734 0
          1.0424008946489538 0.2574058103002067 0 1.112131766395837 0.23353919876812712 0
          2.0531402495930995 0.19719927964509337 0 2.1040434051481625 0.09361581045045139 0
          0.09330798052139698 0.2838390734085911 0 -0.012048889118804728 0.0054527759688642215 0
          <InformationKey name="L2_NORM_RANGE" location="vtkDataArray" length="2">
            <Value index="0">
              0
            </Value>
            <Value index="1">
              2.7390984125
            </Value>
          </InformationKey>
        </DataArray>
        <DataArray type="Float64" Name="Pressure" format="ascii" RangeMin="-3.1523995104682054" RangeMax="6.405751541053892">
          -2.13674617096011 -1.9128736926022247 -2.5113332865994815 -0.776218539365163 -2.9212625604637275 -0.8411217025389152
          -1.7020317389558777 -2.649918061369527 -2.8653332385443955 1.0374216344476466 -2.371438980065404 0.20001865192638205
          -1.5422947259463313 -2.9005754070093994 -2.751115027384166 -1.8386229023604945 -2.8264016132318157 -0.016364247232735777
          -2.819339873060273 -2.47967284027429 -2.5780268102979065 -0.7482033851935268 1.5663193740240342 -2.8198938668041964
          -2.2991415078990545 0.6138186234853155 -1.0917951553958234 -0.15074226208982072 2.9548968902303976 0.7180696233282574
          -0.754205475988188 2.3695968162265104 4.446355543690126 5.536880187118775 0.785779358023895 1.206073582862727
          1.8954978632468698 6.141790858582983 1.7690154677874932 1.6167533979105704 6.323899960535297 3.104918040553178
          5.033290653347548 6.394488299049116 2.2893053561501304 2.885767493683678 4.23423890694392 2.537792299674936
          2.76666210240291 5.76966384907756 2.974675814909156 3.863438272486829 2.965760492383825 5.197495692520133
          6.405751541053892 3.698991723774847 3.025227591197774 6.323122846150511 4.638535808346886 6.074814497828033
          3.1253199487306667 3.5073894764375857 3.2005909745633843 4.242294319810611 6.308446241442628 5.023640447864406
          5.662675169871328 3.344982661285001 5.9878516907100305 6.031832020602332 3.702711951907442 4.158579766317388
          4.834873753856656 5.343985363637177 5.692698962396568 5.850083303395597 3.357077387688393 3.5553766721405813
          4.065849467016485 5.738354984267881 4.729295117108904 5.257542949622288 5.575391403313374 5.6813164024339144
          -3.0181869761720828 -2.6892325688942327 -2.9443008603894603 -2.9901321688177 -2.983230826212393 -3.1523995104682054
          -2.9974322870511205 -3.1364422126823586 -2.8730595710772167 -2.776199919558822
        </DataArray>
        <DataArray type="Float64" Name="BTraction" NumberOfComponents="3" format="ascii" RangeMin="0" RangeMax="6.354704512796071">
          -0.0066394971779918455 1.9810452407010553 0 0 0 0
          0 0 0 -0.01027953501610726 0.6571335879184915 0
          0 0 0 0 0 0
          0 0 0 0 0 0
          0 0 0 -0.00820870346522583 -1.012919307540736 0
          0 0 0 0 0 0
          0 0 0 0 0 0
          0 0 0 0 0 0
          0 0 0 0 0 0
          0 0 0 0 0 0
          -1.8506937237950862 -0.32378450512467183 0 0 0 0
          0 0 0 -2.663690553855855 0.7980737339122219 0
          0 0 0 0 0 0
          0 0 0 -0.902746691731757 -0.47434257549936965 0
          -2.8339983705296854 0.6018906292954239 0 0 0 0
          0 0 0 -0.00039972530674859666 -2.3346332045099802 0
          -4.343740739685206 1.1371489469447558 0 -5.3199856466178375 1.3968206612965863 0
          0 0 0 0 0 0
          0 0 0 -5.9489934773245725 1.394490260416576 0
          0 0 0 0 0 0
          -6.270315256506974 0.9600588200397712 0 0 0 0
          0 0 0 -3.187348580067262 3.511680379929102 0
          0 0 0 0 0 0
          0 0 0 0 0 0
          0 0 0 0 0 0
          0 0 0 0 0 0
          0 0 0 0 0 0
          -0.0040532564311813605 6.354703220140423 0 0 0 0
          0 0 0 0 0 0
          0 0 0 0 0 0
          0 0 0 0 0 0
          0.003680294210396885 -3.116964818521297 0 0 0 0
          -0.006687205351959374 6.217652874735506 0 0 0 0
          0 0 0 0 0 0
          0 0 0 -0.007357635625662609 5.999641647984199 0
          0 0 0 0 0 0
          0 0 0 0 0 0
          0 0 0 -0.002969181766773082 5.823336766503562 0
          1.7094457253660644 -1.6653486209370791 0 3.5944080984861255 -0.009850895637161341 0
          4.074525574850515 -0.01603991224194446 0 0.0004998694446862328 5.734505706669087 0
          4.68746264804094 -0.018873399481833246 0 5.217160327322336 -0.017332643852712458 0
          5.539561093217881 -0.008116862518278012 0 3.256423485578879 2.412250411001393 0
          0 0 0 -0.004182073182729283 2.6270798605402836 0
          0 0 0 0 0 0
          0 0 0 0 0 0
          0 0 0 0 0 0
          0 0 0 -2.658114980267849 0.7763505087985907 0
          <InformationKey name="L2_NORM_RANGE" location="vtkDataArray" length="2">
            <Value index="0">
              0
            </Value>
            <Value index="1">
              6.3547045128
            </Value>
          </InformationKey>
        </DataArray>
        <DataArray type="Float64" Name="ALEdispl" NumberOfComponents="3" format="ascii" RangeMin="0" RangeMax="2.6293660623176107">
          0 0 0 0.8243230851833654 -0.09757296956840672 0
          1.6245563112564614 -0.3490548016773496 0 0 0 0
          2.082281436055678 -0.5624333062926423 0 1.0323085329082724 -0.15966025586479982 0
          1.9210759178395975 -0.4255737393794403 0 2.2446011574699614 -0.5888459710702154 0
          2.4001615501461955 -0.6480353378298636 0 0 0 0
          2.3544170453507802 -0.532721642806884 0 1.331330190151422 -0.1970519425280593 0
          2.2373343964336243 -0.40765730958872237 0 2.4415232744763955 -0.6706666073046685 0
          2.525331738689506 -0.5606685451255329 0 2.453724289346623 -0.4274313319906787 0
          2.3489660694481076 -0.6423514963156463 0 2.094880743659427 -0.28064398753263287 0
          2.539407230155571 -0.5433054708962447 0 2.6003047736566764 -0.3898473723983757 0
          2.4232723730206236 -0.4815616627566598 0 2.494955118146849 -0.27063089646655886 0
          1.127874881971989 -0.09715637642137918 0 1.9701011709964336 -0.41103907132650114 0
          2.589248959526219 -0.3175048131111788 0 2.2493485797062904 -0.19441027929743035 0
          2.58725732598624 -0.2124987652433047 0 2.4698420519579627 -0.17983801650169332 0
          2.019128012350148 -0.11107781038060269 0 2.415717322170198 -0.1288626549491159 0
          2.5438006226596306 -0.10290076970259616 0 0 0 0
          1.5373887156467645 -0.04176072626635742 0 1.010729801666367 0.024476734235454566 0
          2.486054108824649 -0.046013408474748926 0 2.3538770927729535 0.009958144372792448 0
          1.9730701005463376 -0.08513758953215587 0 0.5036514860967115 0.0722757948841246 0
          2.2996326524640556 -0.019043126252848402 0 2.4061090841044686 0.060274732162329696 0
          0.15000658960391294 0.0683536731204892 0 2.018200224318011 0.1383360532678713 0
          1.3149286089298944 0.15582520287717402 0 0 0 0
          2.298160249880722 0.07190700289370777 0 2.2039461470029256 0.18517308093095228 0
          1.6046770479300243 0.23153055634566128 0 2.069440723406635 0.016810180184896946 0
          0.954012926779769 -0.132071816600123 0 0.9016625978466495 0.2590411688686735 0
          2.1827690267206283 0.17278378517284776 0 1.8770444991864943 0.30263654540603396 0
          2.069846840057911 0.11848018805384668 0 1.2584266731640936 0.3398200966456273 0
          0 0 0 1.9692886722384355 0.29121648284421725 0
          1.8606395175727672 0.08890030639956836 0 0.242276676289159 0.18456985882162266 0
          1.5208724195194543 0.3842766059473555 0 0.5771965245085346 0.29870069389414255 0
          1.4849499474824612 -0.0476633871295077 0 1.8171713677865868 0.1793031804128341 0
          0 0 0 1.6538015320486126 0.37258576385632974 0
          0 0 0 1.1998929904017597 0.44844404577706365 0
          0.7800479057194288 0.43924404116957716 0 0.7660037708813902 -0.16646362871296222 0
          0.3706234575877324 0.2868623632961322 0 0 0 0
          0.9435551301713796 0.022929030741975852 0 1.0949326742773118 0.23055223730217433 0
          0.8786292612730291 0.3585179850062519 0 0.647866179056043 0.39284023575778454 0
          0.3637999833194945 0.3087731223461791 0 0 0 0
          0 0 0 0 0 0
          0 0 0 0 0 0
          0 0 0 0 0 0
          0 0 0 0 0 0
          1.3403696015203646 -0.14182190250954374 0 0 0 0
          2.2701567810515226 -0.76174954641414 0 2.322656855479244 -0.743339666428173 0
          2.260144934944454 -0.6805531561371856 0 2.1002969177740725 -0.6552208957099542 0
          1.8760631984076799 -0.484583850764941 0 1.6872383405313758 -0.3845975072831446 0
          2.054826048347676 -0.6996687289726545 0 1.479084400376613 -0.3323609876762255 0
          <InformationKey name="L2_NORM_RANGE" location="vtkDataArray" length="2">
            <Value index="0">
              0
            </Value>
            <Value index="1">
              2.6293660623
            </Value>
          </InformationKey>
        </DataArray>
        <DataArray type="Float64" Name="ALEveloc" NumberOfComponents="3" format="ascii" RangeMin="0" RangeMax="0.025919950629497004">
          0 0 0 -0.007988173780449914 0.0022804736795941916 0
          -0.0157110530334581 0.006007059119809588 0 0 0 0
          -0.020079135425713712 0.008807891753629171 0 -0.010302767180607741 0.002801344636891634 0
          -0.018985849670087873 0.006665044671043674 0 -0.02176835610721639 0.008973610921461095 0
          -0.023054791499657945 0.009666308967567705 0 0 0 0
          -0.022982634068622332 0.008158073131734778 0 -0.013454690091409649 0.0030220459891306395 0
          -0.022072657437183008 0.0063813232557297095 0 -0.023159666962989878 0.009818099544120606 0
          -0.024339169732388033 0.008483635137926715 0 -0.024033789013016893 0.006731035664457652 0
          -0.021871196230565992 0.009301043893142902 0 -0.020895814587261974 0.00440494897564081 0
          -0.024117544893008436 0.008203639248055117 0 -0.025096285311696054 0.006482307011358768 0
          -0.022605532873875234 0.007389929600827849 0 -0.024459020432253897 0.0049091326430307225 0
          -0.011454798244461717 0.0013905981978811488 0 -0.01809987489804854 0.006486911902628845 0
          -0.02461090559471879 0.0057620657440687895 0 -0.02233959840475963 0.0036768491142948334 0
          -0.025035311621705247 0.004503812335083068 0 -0.02347447116792667 0.004549252692125916 0
          -0.019154781234302476 0.0033064479213958387 0 -0.023881520134755974 0.0032587334913899424 0
          -0.024415906057955628 0.0035053797968574996 0 0 0 0
          -0.01333886205942214 0.0018436892070854138 0 -0.006509243982575574 0.0004960420223271839 0
          -0.02430501506220617 0.002540361103228972 0 -0.02234042634041078 0.0022053350467156913 0
          -0.01994470480672872 0.002235302506517739 0 -0.0006031356899589557 -0.00030802521962694507 0
          -0.022896296618501566 0.0018753485263376668 0 -0.023305884678151312 0.0013239380845266463 0
          0.0010733570465797648 0.00008196541422679504 0 -0.019015053863612685 0.0002657639725397176 0
          -0.010877437727824013 -0.0008332857046684239 0 0 0 0
          -0.02270265878940414 0.0008494714333568271 0 -0.021068377792527127 -0.0002742961311047454 0
          -0.014462877761507897 -0.0013323415628829771 0 -0.020842874531552535 0.0011278349656853419 0
          -0.009822973964897841 0.001969826092603044 0 -0.006368115194250734 -0.0024154550575113953 0
          -0.021397490519339257 -0.00044375767153387313 0 -0.01773866239489985 -0.0019535797480491057 0
          -0.020647963923732693 -0.000015420817718159174 0 -0.010833776202082257 -0.00296137225322346 0
          0 0 0 -0.01904056771070417 -0.0019217427449369495 0
          -0.018778304124540846 0.00009403850012476567 0 -0.00122408336821056 -0.001604083199475248 0
          -0.014095726044248913 -0.003234627301758719 0 -0.004379260858203615 -0.002972948993501534 0
          -0.01540999386973585 0.001339599294282956 0 -0.018242145051695413 -0.0010369426553570316 0
          0 0 0 -0.016043387790067865 -0.003171040719963103 0
          0 0 0 -0.011099030187057934 -0.004162084123494836 0
          -0.006822068937425874 -0.00427343498041155 0 -0.008146623719257784 0.0021869998386213896 0
          -0.0031592538058845543 -0.0028855955577749004 0 0 0 0
          -0.009799116382034123 0.00007402815730608164 0 -0.011023037289290993 -0.0020702916789577808 0
          -0.00862385445599645 -0.003482109022450941 0 -0.006120958839935353 -0.0039001613556365333 0
          -0.0032934158587996087 -0.0030706565746493886 0 0 0 0
          0 0 0 0 0 0
          0 0 0 0 0 0
          0 0 0 0 0 0
          0 0 0 0 0 0
          -0.012701773035492359 0.0034017014931105316 0 0 0 0
          -0.021116112229461415 0.010946405670911208 0 -0.02194997982128921 0.01086160144001691 0
          -0.02160466460588273 0.010201633967341195 0 -0.019970226436928584 0.009958398235871968 0
          -0.017940672606778563 0.007827815497672419 0 -0.01601589367632661 0.006579609634259298 0
          -0.01876999162579862 0.010179557628188451 0 -0.012048889117250994 0.005452775968161072 0
          <InformationKey name="L2_NORM_RANGE" location="vtkDataArray" length="2">
            <Value index="0">
              0
            </Value>
            <Value index="1">
              0.025919950629
            </Value>
          </InformationKey>
        </DataArray>
      </PointData>
      <CellData>
        <DataArray type="UInt8" Name="vtkGhostType" format="ascii" RangeMin="0" RangeMax="1">
          0 0 0 0 0 0
          0 0 1 0 0 1
          0 1 0 0 1 1
          1 0 0 0 0 0
          1 1 0 1 1 0
          1 1 0 1 0 0
          0 0 0 0 0 0
          0 0 0 0 0 0
          0 0 0 0 0 0
          0 0 0 0 0 0
          0 0 0 0 0 0
          0 0 0 0 0 0
          0 0 0 0 0 0
          0 0 0 0 0 0
          0 1 0 0 0 0
          0 0 0 1 0 0
          0 0 0 0 0 1
          0 0 0 0 0 0
          0 0 0 0 0 0
          0 0 0 0 0 0
          0 0 0 0 0 0
          0 0 0 0 0 0
          0 1 0 0 0 0
          0 0 0 0 0 0
          0 0 0 0 0 0
        </DataArray>
        <DataArray type="Float64" Name="PStrain" NumberOfComponents="6" format="ascii" RangeMin="0.006549941311210579" RangeMax="2.2484359568498413">
          0.009897104280634028 0.009897104280634028 0 0.009897104280634028 0 0
          0.012025599416811599 0.012025599416811599 0 0.012025599416811599 0 0
          0.01465253726575514 0.01465253726575514 0 0.01465253726575514 0 0
          0.011810329787956477 0.011810329787956477 0 0.011810329787956477 0 0
          0.008592978841608154 0.008592978841608154 0 0.008592978841608154 0 0
          0.008185539843243748 0.008185539843243748 0 0.008185539843243748 0 0
          0.0074428093351104774 0.0074428093351104774 0 0.0074428093351104774 0 0
          0.01047419923625512 0.01047419923625512 0 0.01047419923625512 0 0
          0.009022271135822147 0.009022271135822147 0 0.009022271135822147 0 0
          0.007435929997982631 0.007435929997982631 0 0.007435929997982631 0 0
          0.00923900662350905 0.00923900662350905 0 0.00923900662350905 0 0
          0.005747209887252102 0.005747209887252102 0 0.005747209887252102 0 0
          0.0070824585510950045 0.0070824585510950045 0 0.0070824585510950045 0 0
          0.0047046914249917636 0.0047046914249917636 0 0.0047046914249917636 0 0
          0.07595904953039817 0.07595904953039817 0 0.07595904953039817 0 0
          0.05122196963140295 0.05122196963140295 0 0.05122196963140295 0 0
          0.0894167518227194 0.0894167518227194 0 0.0894167518227194 0 0
          0.09132552513302175 0.09132552513302175 0 0.09132552513302175 0 0
          0.04529980964288628 0.04529980964288628 0 0.04529980964288628 0 0
          0.05261208811306701 0.05261208811306701 0 0.05261208811306701 0 0
          0.0405324186831197 0.0405324186831197 0 0.0405324186831197 0 0
          0.023376747367654903 0.023376747367654903 0 0.023376747367654903 0 0
          0.019922111115273727 0.019922111115273727 0 0.019922111115273727 0 0
          0.0234122696091147 0.0234122696091147 0 0.0234122696091147 0 0
          0.041585990506196074 0.041585990506196074 0 0.041585990506196074 0 0
          0.02444663616044092 0.02444663616044092 0 0.02444663616044092 0 0
          0.021130761931490768 0.021130761931490768 0 0.021130761931490768 0 0
          0.028100273736111563 0.028100273736111563 0 0.028100273736111563 0 0
          0.017016691146081033 0.017016691146081033 0 0.017016691146081033 0 0
          0.024321261162420883 0.024321261162420883 0 0.024321261162420883 0 0
          0.015323049649483191 0.015323049649483191 0 0.015323049649483191 0 0
          0.01308297317335601 0.01308297317335601 0 0.01308297317335601 0 0
          0.014721231040946189 0.014721231040946189 0 0.014721231040946189 0 0
          0.006895994307957089 0.006895994307957089 0 0.006895994307957089 0 0
          0.09999999999999999 0.09999999999999999 0 0.09999999999999999 0 0
          0.004854743313573159 0.004854743313573159 0 0.004854743313573159 0 0
          0.011594097531854204 0.011594097531854204 0 0.011594097531854204 0 0
          0.007451438452492734 0.007451438452492734 0 0.007451438452492734 0 0
          0.00550864801525079 0.00550864801525079 0 0.00550864801525079 0 0
          0.014073589813465539 0.014073589813465539 0 0.014073589813465539 0 0
          0.027759589017684105 0.027759589017684105 0 0.027759589017684105 0 0
          0.03316321572553256 0.03316321572553256 0 0.03316321572553256 0 0
          0.013375020474374114 0.013375020474374114 0 0.013375020474374114 0 0
          0.04323905721065564 0.04323905721065564 0 0.04323905721065564 0 0
          0.019810624370640142 0.019810624370640142 0 0.019810624370640142 0 0
          0.05619194202349956 0.05619194202349956 0 0.05619194202349956 0 0
          0.012455714494149481 0.012455714494149481 0 0.012455714494149481 0 0
          0.00809285746261108 0.00809285746261108 0 0.00809285746261108 0 0
          0.04995179364695108 0.04995179364695108 0 0.04995179364695108 0 0
          0.031917265915253096 0.031917265915253096 0 0.031917265915253096 0 0
          0.03718081986765503 0.03718081986765503 0 0.03718081986765503 0 0
          0.024635484131084472 0.024635484131084472 0 0.024635484131084472 0 0
          0.010118561383608199 0.010118561383608199 0 0.010118561383608199 0 0
          0.015589037201220738 0.015589037201220738 0 0.015589037201220738 0 0
          0.029813852955119326 0.029813852955119326 0 0.029813852955119326 0 0
          0.029897772535514268 0.029897772535514268 0 0.029897772535514268 0 0
          0.027572617689095996 0.027572617689095996 0 0.027572617689095996 0 0
          0.013222923166407658 0.013222923166407658 0 0.013222923166407658 0 0
          0.017036241896847944 0.017036241896847944 0 0.017036241896847944 0 0
          0.012169337069593972 0.012169337069593972 0 0.012169337069593972 0 0
          0.004258699575436692 0.004258699575436692 0 0.004258699575436692 0 0
          0.007500399304774221 0.007500399304774221 0 0.007500399304774221 0 0
          0.01368647936701288 0.01368647936701288 0 0.01368647936701288 0 0
          0.01112673612971456 0.01112673612971456 0 0.01112673612971456 0 0
          0.009237997945776321 0.009237997945776321 0 0.009237997945776321 0 0
          0.006258053621299404 0.006258053621299404 0 0.006258053621299404 0 0
          0.0037816103792036784 0.0037816103792036784 0 0.0037816103792036784 0 0
          1.2981351049428895 1.2981351049428895 0 1.2981351049428895 0 0
          0.8342691359624534 0.8342691359624534 0 0.8342691359624534 0 0
          0.8518159026268124 0.8518159026268124 0 0.8518159026268124 0 0
          0.8881419293332011 0.8881419293332011 0 0.8881419293332011 0 0
          0.20892332490878673 0.20892332490878673 0 0.20892332490878673 0 0
          0.23447273258710438 0.23447273258710438 0 0.23447273258710438 0 0
          1.1290406802008097 1.1290406802008097 0 1.1290406802008097 0 0
          0.56604806478273 0.56604806478273 0 0.56604806478273 0 0
          0.1494405849424958 0.1494405849424958 0 0.1494405849424958 0 0
          0.22995568663179983 0.22995568663179983 0 0.22995568663179983 0 0
          0.06013168331907438 0.06013168331907438 0 0.06013168331907438 0 0
          0.2985768660192682 0.2985768660192682 0 0.2985768660192682 0 0
          0.20668626503840248 0.20668626503840248 0 0.20668626503840248 0 0
          0.19560050419321742 0.19560050419321742 0 0.19560050419321742 0 0
          0.554494078638459 0.554494078638459 0 0.554494078638459 0 0
          0.15635730290157107 0.15635730290157107 0 0.15635730290157107 0 0
          0.24330719374773363 0.24330719374773363 0 0.24330719374773363 0 0
          0.12162647012601704 0.12162647012601704 0 0.12162647012601704 0 0
          0.2691968638946079 0.2691968638946079 0 0.2691968638946079 0 0
          0.08223595238153861 0.08223595238153861 0 0.08223595238153861 0 0
          0.054704634065292426 0.054704634065292426 0 0.054704634065292426 0 0
          0.36065192775324684 0.36065192775324684 0 0.36065192775324684 0 0
          0.07041635544142225 0.07041635544142225 0 0.07041635544142225 0 0
          0.021705848310426594 0.021705848310426594 0 0.021705848310426594 0 0
          0.0802642339528479 0.0802642339528479 0 0.0802642339528479 0 0
          0.027410933264374326 0.027410933264374326 0 0.027410933264374326 0 0
          0.24806262403679835 0.24806262403679835 0 0.24806262403679835 0 0
          0.14395075193425388 0.14395075193425388 0 0.14395075193425388 0 0
          0.08046822325587569 0.08046822325587569 0 0.08046822325587569 0 0
          0.3070779780075696 0.3070779780075696 0 0.3070779780075696 0 0
          0.0918510488738297 0.0918510488738297 0 0.0918510488738297 0 0
          0.0518872763983307 0.0518872763983307 0 0.0518872763983307 0 0
          0.14470507518065887 0.14470507518065887 0 0.14470507518065887 0 0
          0.07382366065409465 0.07382366065409465 0 0.07382366065409465 0 0
          0.14510275473095308 0.14510275473095308 0 0.14510275473095308 0 0
          0.033243319600560414 0.033243319600560414 0 0.033243319600560414 0 0
          0.17754416450655813 0.17754416450655813 0 0.17754416450655813 0 0
          0.16582806815611012 0.16582806815611012 0 0.16582806815611012 0 0
          0.18693802248983932 0.18693802248983932 0 0.18693802248983932 0 0
          0.032119804294140936 0.032119804294140936 0 0.032119804294140936 0 0
          0.029081517382625904 0.029081517382625904 0 0.029081517382625904 0 0
          0.14665802759422425 0.14665802759422425 0 0.14665802759422425 0 0
          0.08835409207799935 0.08835409207799935 0 0.08835409207799935 0 0
          0.08326071325172367 0.08326071325172367 0 0.08326071325172367 0 0
          0.027335860434070554 0.027335860434070554 0 0.027335860434070554 0 0
          0.17422144532949677 0.17422144532949677 0 0.17422144532949677 0 0
          0.04424626538437228 0.04424626538437228 0 0.04424626538437228 0 0
          0.0701964841961542 0.0701964841961542 0 0.0701964841961542 0 0
          0.04871688182171435 0.04871688182171435 0 0.04871688182171435 0 0
          0.07143136843228451 0.07143136843228451 0 0.07143136843228451 0 0
          0.05635130071812233 0.05635130071812233 0 0.05635130071812233 0 0
          0.03687985642421075 0.03687985642421075 0 0.03687985642421075 0 0
          0.08456336083984016 0.08456336083984016 0 0.08456336083984016 0 0
          0.100048349592871 0.100048349592871 0 0.100048349592871 0 0
          0.09279292367322642 0.09279292367322642 0 0.09279292367322642 0 0
          0.014924173773465766 0.014924173773465766 0 0.014924173773465766 0 0
          0.10423098478735605 0.10423098478735605 0 0.10423098478735605 0 0
          0.09102847238092673 0.09102847238092673 0 0.09102847238092673 0 0
          0.02793131562532912 0.02793131562532912 0 0.02793131562532912 0 0
          0.04969818616963163 0.04969818616963163 0 0.04969818616963163 0 0
          0.06656399368864552 0.06656399368864552 0 0.06656399368864552 0 0
          0.06836523377956312 0.06836523377956312 0 0.06836523377956312 0 0
          0.26007281873525995 0.26007281873525995 0 0.26007281873525995 0 0
          0.03103413299325581 0.03103413299325581 0 0.03103413299325581 0 0
          0.016826952551542484 0.016826952551542484 0 0.016826952551542484 0 0
          0.05667167338082345 0.05667167338082345 0 0.05667167338082345 0 0
          0.2509338667431039 0.2509338667431039 0 0.2509338667431039 0 0
          0.07275879805659614 0.07275879805659614 0 0.07275879805659614 0 0
          0.11679680885805663 0.11679680885805663 0 0.11679680885805663 0 0
          0.11333254660772071 0.11333254660772071 0 0.11333254660772071 0 0
          0.054725662203221684 0.054725662203221684 0 0.054725662203221684 0 0
          0.01786619220844987 0.01786619220844987 0 0.01786619220844987 0 0
          0.014967326840857328 0.014967326840857328 0 0.014967326840857328 0 0
          0.03754745856637741 0.03754745856637741 0 0.03754745856637741 0 0
          0.011594097531854211 0.011594097531854211 0 0.011594097531854211 0 0
          0.08005380877815874 0.08005380877815874 0 0.08005380877815874 0 0
          0.015057788215600196 0.015057788215600196 0 0.015057788215600196 0 0
          0.04195606212409439 0.04195606212409439 0 0.04195606212409439 0 0
          0.025993497878433046 0.025993497878433046 0 0.025993497878433046 0 0
          0.025876652696333734 0.025876652696333734 0 0.025876652696333734 0 0
          0.03695154728624274 0.03695154728624274 0 0.03695154728624274 0 0
          0.039473276687936557 0.039473276687936557 0 0.039473276687936557 0 0
          0.02620405805102193 0.02620405805102193 0 0.02620405805102193 0 0