<?xml version="1.0"?>
<VTKFile type="UnstructuredGrid" version="0.1" byte_order="LittleEndian" header_type="UInt32" compressor="vtkZLibDataCompressor">
  <UnstructuredGrid>
    <Piece NumberOfPoints="97" NumberOfCells="154">
      <PointData>
        <DataArray type="Float64" Name="Velocity" NumberOfComponents="3" format="ascii" RangeMin="0" RangeMax="2.7387870827512013">
          1.0292122434889484 0.010359814429226682 0 1.0502527894654499 0 0
          0.987896231519388 -0.005036950415297935 0 1.000057170484227 -0.02345241426547575 0
          0.9812806136090807 -0.017015249365625262 0 1.1219018130687233 0 0
          0.9895426129474247 0.0025173018698239815 0 0.9674629156312121 0 0
          0.9661037371561376 -0.001792814748108159 0 0.9722675939164624 -0.0022036759299013165 0
          1.2103171040766347 0 0 0.9403715601919568 0 0
          0.8945605527390061 0 0 1.6272347272601944 0 0
          0.9131848497084997 -0.4509867063791597 0 1.6780153806034455 -0.5248197023104985 0
          0.46662071517512366 0 0 2.324619685684107 0 0
          0.34481866177430287 -0.546400044295453 0 1.0844924798201998 -0.793273676125318 0
          2.3288447122961684 -0.3300554805075371 0 -0.0808692006326205 0 0
          2.690370617309138 0 0 -0.1886877280734432 -0.6660394094236353 0
          1.0654629153061184 -0.5725085952936367 0 2.6694450665687426 -0.06628647062812074 0
          -0.8130480879106555 0 0 2.6953948261518965 0 0
          -0.5983182802436097 -0.14734449989267032 0 1.7540363889368549 -0.11330279390294279 0
          0.2122584276899493 -0.11274804595567783 0 2.7382411254257764 0.05468293766627248 0
          -0.9627500240377497 0 0 2.597023034574262 0 0
          2.0675962702948305 -0.03759542787620523 0 0.47033940997803153 0.16050501175374254 0
          -0.6971927313960493 0.08051794101606109 0 -0.8568922226809436 0 0
          2.689361845205455 0.10072680256919844 0 0.933011680503999 0.19155398538684962 0
          -0.1865173896776597 0.3141587834469611 0 2.113889596533956 0.05733302204772813 0
          -0.6013498725442709 0.19353224214338915 0 0.40873500511430305 0.33649112177046486 0
          0.7825725796836651 0.2134965844701518 0 0.0772742506706901 0.39094595951163963 0
          -0.5922852618185902 0 0 1.3495911778853869 0.05114669022329885 0
          -0.3332852293372456 0.30989803959051054 0 2.0972588622565396 0.14168734337795147 0
          0.36714806786803306 0.3755659619506758 0 -0.4897312665830001 0.14799569968728107 0
          -0.11357037874565268 0.3753114276558959 0 0.5393773671272315 0.21575070213606629 0
          -0.4102619333030285 0.26657993359812393 0 0.11975951688550242 0.4086655318720831 0
          1.1796313092774875 0.16911405557637457 0 -0.2318302911239601 0.34767825345501224 0
          0.27894918331360574 0.3497695725833519 0 -0.35707122844615696 0 0
          -0.037732436818874365 0.4025995816474568 0 -0.32944181057706906 0.15216277958056051 0
          0.39724965993415856 0.2429521566281531 0 -0.2654342133061884 0.256213127965459 0
          0.12731405430546933 0.4133479851283384 0 1.1132348351517176 0.21590946435185682 0
          -0.12254537148017 0.3364265129854819 0 0.20305570475999396 0.37005257318794743 0
          0.03225907604713134 0.387105325228452 0 0.29256546485869517 0.2938224799253356 0
          -0.19312081445900867 0.14134017502628055 0 0.12929043342382174 0.38233414621349593 0
          -0.19354551585525415 0 0 -0.1383961357196219 0.23061429685386092 0
          0.13902840923615034 0.3177457666501661 0 -0.02214102471694633 0.31589582056171334 0
          0.06028643919462319 0.32466825477636396 0 0.09011895334320945 0.2929275098037539 0
          -0.07375025715598842 0 0 -0.029052619165297177 0.1930167455079498 0
          0.028647073044807472 0.18956449549781984 0 -0.026629810143923485 0.06882679549066172 0
          -0.01371555740586284 0.01307613950252598 0 -0.016005452411200504 2.3758043597683883e-23 0
          -0.008217123522390346 0.010747525725118098 0 -0.0026426840985752744 0.007052882901771459 0
          0.00026466030303637535 0.0029787430165739114 0 0 0 0
          2.527530621995356 0.1526814839777104 0 2.6940911006439237 0.22941130631212836 0
          2.511266325765065 0 0 0.29936668378291553 0.28205654406612757 0
          1.107856395182232 0.3384726430432419 0 2.10446878695669 0.3402674035476652 0
          2.0635557731206804 0.31156573776801916 0 0.05586327026034678 0.2202290405241986 0
          -0.014857758462255231 0.012453821431956245 0
          <InformationKey name="L2_NORM_RANGE" location="vtkDataArray" length="2">
            <Value index="0">
              0
            </Value>
            <Value index="1">
              2.7387870828
            </Value>
          </InformationKey>
        </DataArray>
        <DataArray type="Float64" Name="Pressure" format="ascii" RangeMin="-4.155603968477056" RangeMax="0.12136821195131806">
          -0.033622417086118975 -0.0028870663211317065 -0.000630577340779334 0.012060643145891283 0.005403002564853512 0.04221720121059577
          0.0017318076000122033 0.0055142539981894965 0.012185702000385091 -0.015345848674317453 0.011018468668529515 0.028931198245430265
          0.12136821195131806 0.008135125947699934 -0.11249354687408658 -0.8392395817040548 -0.09788711442892724 -1.2898367885114292
          -0.7640780343108371 -1.6889448338298143 -2.02957893232741 -1.0677039586930068 -2.553614477273558 -2.01129120260688
          -3.5629285114698757 -2.9296565758345534 -2.541470070617467 -2.9120694813730967 -3.5306648927655506 -3.9977646105930513
          -4.155603968477056 -3.06532870284166 -3.524770964093619 -2.771844311367542 -3.562346388612442 -4.09992241632163
          -3.9502484939026448 -3.5642833670574503 -3.0126145908072326 -3.6633820207879997 -3.774528269110043 -3.1331082052569528
          -3.4663909343826753 -3.589033908622381 -3.4446556167822036 -3.5366445537366507 -3.291806009079798 -3.2912446657611163
          -3.4451406491140593 -3.073414597258262 -3.433385827589816 -3.24400992948212 -3.408527275332007 -3.353379140706002
          -3.2507192410865224 -3.364697464732925 -3.3076303508070497 -3.260317743022373 -3.308208519577001 -3.0804550534419706
          -3.2556820760984553 -3.0893683235252207 -3.2901592995381495 -3.0973201705657702 -3.244348144812518 -3.2273953804939057
          -3.121262529276456 -3.238795534581936 -3.1439621409328247 -3.244157820968706 -2.9724152026850423 -3.1661247598991933
          -2.960836333680643 -2.9878972908418757 -3.1838957630672393 -3.027180124687116 -3.0572290129899584 -3.1066178281417094
          -2.890907753163166 -2.928643444674835 -2.979591584263299 -2.8642513878111 -2.9954281159170106 -2.8500226445831776
          -2.915976295404965 -2.856429338288453 -2.831069329767531 -2.826885357838559 -2.0301786155017107 -2.606893731214102
          -2.2431904579412807 -3.182286093351371 -3.151443444161717 -2.8858378741690034 -3.0879745666343923 -3.085930595025129
          -3.046449603613987
        </DataArray>
        <DataArray type="Float64" Name="BTraction" NumberOfComponents="3" format="ascii" RangeMin="0" RangeMax="3.5316379124133537">
          0.01204987207397507 0.0117638082193234 0 0.0017811829997408004 0.001454613566581821 0
          0.005405909491943963 0.0006720335780273632 0 0 0 0
          0 0 0 0.0035822245708167348 -0.02879407223078348 0
          -0.0006285694273520772 0.002086251922901201 0 -0.0005938265210272385 0.00995251246838676 0
          0 0 0 0 0 0
          0.00920594735487808 -0.006658610289640082 0 -0.0007440850850445467 0.04108174104699891 0
          -0.004638758407511475 0.07849118188282048 0 0.015139465192209385 0.2138788558311169 0
          0 0 0 0 0 0
          -0.008899280753186896 -0.1707914837739 0 0.013294230752169199 1.2687128627512576 0
          0 0 0 0 0 0
          0 0 0 -0.009934176946364118 -1.0399137450202325 0
          0.005289523892585333 2.4006381186721364 0 0 0 0
          0 0 0 0 0 0
          -0.012207739236884788 -2.3787618013817577 0 -0.0012701434785202179 2.827684764015778 0
          0 0 0 0 0 0
          0 0 0 0 0 0
          -0.012644007040617244 -3.350496202405971 0 -0.004706265874142097 2.7041619590114627 0
          0 0 0 0 0 0
          0 0 0 -0.007111475604365601 -3.5316307524017967 0
          0 0 0 0 0 0
          0 0 0 0 0 0
          0 0 0 0 0 0
          0 0 0 0 0 0
          -0.002656595360677606 -3.34247687252237 0 0 0 0
          0 0 0 0 0 0
          0 0 0 0 0 0
          0 0 0 0 0 0
          0 0 0 0 0 0
          0 0 0 0 0 0
          0 0 0 -0.0011712058483331718 -3.1326367373772697 0
          0 0 0 0 0 0
          0 0 0 0 0 0
          0 0 0 0 0 0
          0 0 0 0 0 0
          0 0 0 0 0 0
          0 0 0 0 0 0
          0.0002350729651491199 -2.9994649014491968 0 0 0 0
          0 0 0 0 0 0
          0 0 0 0 0 0
          0.000382325229494724 -2.9173698726117414 0 0 0 0
          0 0 0 0 0 0
          -2.864848957283329 0.8524063007097765 0 -0.00013292496925997093 -2.860975790261803 0
          -2.8037350404355914 0.7837014975795484 0 -2.7698593451839124 0.6731631729927057 0
          -2.788083113475875 0.4436391708354029 0 -1.3562708170105435 -1.333140918062071 0
          0 0 0 0 0 0
          -0.007266307920813077 2.0982856660717975 0 0 0 0
          0 0 0 0 0 0
          0 0 0 0 0 0
          -2.874991270091534 0.8803244351310945 0
          <InformationKey name="L2_NORM_RANGE" location="vtkDataArray" length="2">
            <Value index="0">
              0
            </Value>
            <Value index="1">
              3.5316379124
            </Value>
          </InformationKey>
        </DataArray>
        <DataArray type="Float64" Name="ALEdispl" NumberOfComponents="3" format="ascii" RangeMin="0" RangeMax="2.5690621238873925">
          0 0 0 0 0 0
          0 0 0 0.20333077733188853 0.03388574022487743 0
          0.1330097002393057 -0.05241778076359594 0 0 0 0
          0 0 0 0 0 0
          0.18995708529947106 -0.01848122893565997 0 0.32448919290701184 0.004245456922904504 0
          0 0 0 0 0 0
          0 0 0 0 0 0
          0.5731831261985998 0.00866789893850373 0 0.4151801734973645 0.06921987486449645 0
          0 0 0 0 0 0
          0.4248082408275685 -0.1354850925894706 0 0.8358007804905039 -0.0602785998494561 0
          0.4452656668369941 0.09371240065774172 0 0 0 0
          0 0 0 0.47288334746744626 -0.20111941546372872 0
          1.0694891104389335 -0.15218487301024333 0 0.5485037463902871 0.0875353127720435 0
          0 0 0 0 0 0
          0.6053748193356687 -0.2717975880001702 0 1.1933999982542756 -0.19127567288193553 0
          1.1518050922538574 -0.37153915895460443 0 0.7186126539010977 0.04968828269820464 0
          0 0 0 0 0 0
          1.3159248479525985 -0.2477940082859741 0 1.4208280007925145 -0.5287919881850185 0
          0.8180345437283566 -0.4588367008249017 0 0 0 0
          1.3598421943779753 -0.1445842027091291 0 1.765017780549694 -0.5934650656320637 0
          1.4034479212149815 -0.7738781070126577 0 1.7117155065912 -0.3913104461750036 0
          0.706742931848486 -0.5073500114834136 0 1.7479916519407064 -0.7699019896490473 0
          1.930609960168571 -0.6793224246198535 0 1.6666568042738135 -0.8469587285934261 0
          0 0 0 1.9363337459826322 -0.5945975825945249 0
          1.1447912818601926 -0.751087305738185 0 1.903375524574656 -0.4929650972715089 0
          1.9094574635508776 -0.8279594179217672 0 0.48265891070460326 -0.38267070741176773 0
          1.4781387672536426 -0.8630457328027461 0 2.076957421299181 -0.7558780969672235 0
          0.8703589720036421 -0.6424396592063957 0 1.7999386882081776 -0.895950691810368 0
          2.1306925912019232 -0.6663765704174514 0 1.2457570297034473 -0.8167786003603574 0
          2.0548922169732724 -0.860644577194534 0 0 0 0
          1.599896589333382 -0.8897882397023875 0 0.5487064845086891 -0.45082391049375564 0
          2.2232256052254753 -0.7810552242092318 0 0.92829695682226 -0.6855941514075877 0
          1.9231687893215232 -0.8933754278436524 0 2.292953027639964 -0.6922735797764195 0
          1.3106970567180152 -0.8064349545370205 0 2.185759097493639 -0.8420809480048643 0
          1.684839686163303 -0.8459846774265801 0 2.3560226082542246 -0.7561056900217852 0
          0.5571811234044407 -0.4610634235763719 0 2.024264410823195 -0.8363866131771533 0
          0 0 0 0.9283092222053685 -0.6318810473470784 0
          2.3023017379599264 -0.774786829129666 0 1.3271926957872353 -0.7081614292093231 0
          1.6799174140327298 -0.69832707515188 0 2.0830944171520205 -0.7113051137415543 0
          0 0 0 0.9054984916781644 -0.4993816785371867 0
          1.315344896547036 -0.5098427527622095 0 0.3738447546488582 -0.26861803789980787 0
          1.49702598114063 -0.335482980783288 0 0 0 0
          0.9525069192679809 -0.24563224382088547 0 0.4725841976343762 -0.15913842247039928 0
          0.1395094890421997 -0.08100785830346471 0 0 0 0
          0.8364624841956345 -0.09950179079580823 0 1.648406402980758 -0.35524798192600837 0
          0 0 0 2.476761683199087 -0.6824454271439035 0
          2.4352234353935214 -0.6593499632933484 0 2.277647711782748 -0.5990799020446029 0
          2.112730739978143 -0.5722092134200053 0 2.382128244198095 -0.6536699344981489 0
          1.996019447002003 -0.4167053801475722 0
          <InformationKey name="L2_NORM_RANGE" location="vtkDataArray" length="2">
            <Value index="0">
              0
            </Value>
            <Value index="1">
              2.5690621239
            </Value>
          </InformationKey>
        </DataArray>
        <DataArray type="Float64" Name="ALEveloc" NumberOfComponents="3" format="ascii" RangeMin="0" RangeMax="0.019386868100004603">
          0 0 0 0 0 0
          0 0 0 -0.0007434330089488572 -0.00012328967412740532 0
          -0.00048728712571208255 0.00019227684892486607 0 0 0 0
          0 0 0 0 0 0
          -0.0006963273292974193 0.0000709831722720683 0 -0.0011863477901113417 -0.000008147167311019221 0
          0 0 0 0 0 0
          0 0 0 0 0 0
          -0.0021117952190776723 0.0001319094355813344 0 -0.0014914404830228545 0.00002395514461767112 0
          0 0 0 0 0 0
          -0.0015998759236857119 0.000753992069074505 0 -0.003049241300271621 0.0007770974424783778 0
          -0.0015179516570190676 0.0001385003482543279 0 0 0 0
          0 0 0 -0.0018572517574332315 0.0011548340737814189 0
          -0.003965308093567543 0.0018295440411917885 0 -0.001768099992144223 0.000516291353585524 0
          0 0 0 0 0 0
          -0.0024529622318039124 0.0016904385697780189 0 -0.004266229656161302 0.0027970546739717883 0
          -0.004476946360224998 0.0029885913241994855 0 -0.002255528223633174 0.0012255553901813487 0
          0 0 0 0 0 0
          -0.00480095473731712 0.003698122448894836 0 -0.00542977530566624 0.004886234894676655 0
          -0.003626519801106065 0.003030999874350626 0 0 0 0
          -0.004503831599814934 0.0040446957733676625 0 -0.006940870963383361 0.006509413501163075 0
          -0.00629214736224748 0.006811713491567728 0 -0.00609941918735446 0.005891253367915517 0
          -0.0037619430120836572 0.00418979858863 0 -0.007462940408470953 0.007768828125271465 0
          -0.007760916903958748 0.007605977833567978 0 -0.007643231236392545 0.00836412349121507 0
          0 0 0 -0.007427207674568059 0.007303712002261431 0
          -0.005762540569487884 0.007133135882378516 0 -0.006779613801096485 0.006846138870833962 0
          -0.00844096017290541 0.008699708637158965 0 -0.0029548744872670563 0.003664396997362096 0
          -0.007252829525445925 0.008755101996317682 0 -0.008685845105921075 0.008506213540846685 0
          -0.00490934700540957 0.006628139471172245 0 -0.008690270617676354 0.009493050644908463 0
          -0.008330143916881916 0.008151582481508046 0 -0.00667867182868509 0.008909412779415593 0
          -0.00953625802278335 0.009437343669620013 0 0 0 0
          -0.008352122632798942 0.010003293236872546 0 -0.003693048984872105 0.005405575863537293 0
          -0.009602404637903739 0.009063593765297862 0 -0.005649947284416479 0.008589967455900238 0
          -0.009882938508540384 0.010154706591093188 0 -0.009068784267452834 0.008701959384949998 0
          -0.007621410141547713 0.01029360612095731 0 -0.01057988225604678 0.009749428882739997 0
          -0.00948940694581335 0.01072433948644913 0 -0.010370899744218676 0.009351589852323539 0
          -0.003924096161690649 0.0071085549222913436 0 -0.011171305191293612 0.01040392942959567 0
          0 0 0 -0.006325211166327671 0.010250916983216007 0
          -0.011477754364475512 0.009794847728436418 0 -0.008762558416550936 0.011301500941073073 0
          -0.010708474681714986 0.011175156790743213 0 -0.012482319064498704 0.010589146881120559 0
          0 0 0 -0.006700832552767766 0.01100176823599508 0
          -0.010674465323529336 0.012203203147987729 0 -0.0022823826535843805 0.007148562761359167 0
          -0.013715557404863077 0.013076139501572825 0 0 0 0
          -0.00821712352179138 0.010747525724334683 0 -0.0026426840983826416 0.007052882901257357 0
          0.00026466030301708354 0.002978743016356783 0 0 0 0
          -0.0025222076999593668 0.0029141373974926332 0 -0.005361126570003538 0.005795227698115246 0
          0 0 0 -0.01085598361048401 0.00959973886581822 0
          -0.009541803147286032 0.00909779299904201 0 -0.008143120939918091 0.008305617789290287 0
          -0.007637280732004648 0.007704699453004116 0 -0.012229522278979665 0.009918351163781702 0
          -0.01485775846117221 0.01245382143104845 0
          <InformationKey name="L2_NORM_RANGE" location="vtkDataArray" length="2">
            <Value index="0">
              0
            </Value>
            <Value index="1">
              0.0193868681
            </Value>
          </InformationKey>
        </DataArray>
      </PointData>
      <CellData>
        <DataArray type="UInt8" Name="vtkGhostType" format="ascii" RangeMin="0" RangeMax="0">
          0 0 0 0 0 0
          0 0 0 0 0 0
          0 0 0 0 0 0
          0 0 0 0 0 0
          0 0 0 0 0 0
          0 0 0 0 0 0
          0 0 0 0 0 0
          0 0 0 0 0 0
          0 0 0 0 0 0
          0 0 0 0 0 0
          0 0 0 0 0 0
          0 0 0 0 0 0
          0 0 0 0 0 0
          0 0 0 0 0 0
          0 0 0 0 0 0
          0 0 0 0 0 0
          0 0 0 0 0 0
          0 0 0 0 0 0
          0 0 0 0 0 0
          0 0 0 0 0 0
          0 0 0 0 0 0
          0 0 0 0 0 0
          0 0 0 0 0 0
          0 0 0 0 0 0
          0 0 0 0 0 0
          0 0 0 0
        </DataArray>
        <DataArray type="Float64" Name="PStrain" NumberOfComponents="6" format="ascii" RangeMin="7.04995434314476e-8" RangeMax="0.47963884809815366">
          0.09999999999999999 0.09999999999999999 0 0.09999999999999999 0 0
          0.0000018543412907904129 0.0000018543412907904129 0 0.0000018543412907904129 0 0
          0.000008661382695412097 0.000008661382695412097 0 0.000008661382695412097 0 0
          0.0000016644435195708004 0.0000016644435195708004 0 0.0000016644435195708004 0 0
          0.0000017046975545907333 0.0000017046975545907333 0 0.0000017046975545907333 0 0
          2.45915341006975e-7 2.45915341006975e-7 0 2.45915341006975e-7 0 0
          0.0000011290537391870686 0.0000011290537391870686 0 0.0000011290537391870686 0 0
          1.596267741907016e-7 1.596267741907016e-7 0 1.596267741907016e-7 0 0
          5.329356664460477e-7 5.329356664460477e-7 0 5.329356664460477e-7 0 0
          4.628077568610572e-7 4.628077568610572e-7 0 4.628077568610572e-7 0 0
          1.1688691244182263e-7 1.1688691244182263e-7 0 1.1688691244182263e-7 0 0
          2.0833666155866014e-7 2.0833666155866014e-7 0 2.0833666155866014e-7 0 0
          0.000013836420189615372 0.000013836420189615372 0 0.000013836420189615372 0 0
          8.813210952340343e-8 8.813210952340343e-8 0 8.813210952340343e-8 0 0
          8.813210952340343e-8 8.813210952340343e-8 0 8.813210952340343e-8 0 0
          0.000013836420189615372 0.000013836420189615372 0 0.000013836420189615372 0 0
          4.0702930377891985e-8 4.0702930377891985e-8 0 4.0702930377891985e-8 0 0
          0.000010180879967590623 0.000010180879967590623 0 0.000010180879967590623 0 0
          0.009272600693289498 0.009272600693289498 0 0.009272600693289498 0 0
          0.005905781169596483 0.005905781169596483 0 0.005905781169596483 0 0
          0.008511318637485952 0.008511318637485952 0 0.008511318637485952 0 0
          0.0048341348393775 0.0048341348393775 0 0.0048341348393775 0 0
          0.0056082845057227135 0.0056082845057227135 0 0.0056082845057227135 0 0
          0.005471419454764633 0.005471419454764633 0 0.005471419454764633 0 0
          0.005308520882020053 0.005308520882020053 0 0.005308520882020053 0 0
          0.0029063704111979023 0.0029063704111979023 0 0.0029063704111979023 0 0
          0.002219784372272867 0.002219784372272867 0 0.002219784372272867 0 0
          0.004133848989985319 0.004133848989985319 0 0.004133848989985319 0 0
          0.0053541750395872546 0.0053541750395872546 0 0.0053541750395872546 0 0
          0.0021254891295083784 0.0021254891295083784 0 0.0021254891295083784 0 0
          0.0010303730451801363 0.0010303730451801363 0 0.0010303730451801363 0 0
          0.002509925743559916 0.002509925743559916 0 0.002509925743559916 0 0
          0.0037513821469271945 0.0037513821469271945 0 0.0037513821469271945 0 0
          0.0017679393814151955 0.0017679393814151955 0 0.0017679393814151955 0 0
          0.004484852837831211 0.004484852837831211 0 0.004484852837831211 0 0
          0.0022363345995495285 0.0022363345995495285 0 0.0022363345995495285 0 0
          0.00248886996500328 0.00248886996500328 0 0.00248886996500328 0 0
          0.0017891385999430692 0.0017891385999430692 0 0.0017891385999430692 0 0
          0.0006334096364209623 0.0006334096364209623 0 0.0006334096364209623 0 0
          0.0008292816082912815 0.0008292816082912815 0 0.0008292816082912815 0 0
          0.0008812084716546781 0.0008812084716546781 0 0.0008812084716546781 0 0
          0.0007236928874152367 0.0007236928874152367 0 0.0007236928874152367 0 0
          0.0009761451665424214 0.0009761451665424214 0 0.0009761451665424214 0 0
          0.0011782408225327842 0.0011782408225327842 0 0.0011782408225327842 0 0
          0.0022773503003458853 0.0022773503003458853 0 0.0022773503003458853 0 0
          0.0011077006084243028 0.0011077006084243028 0 0.0011077006084243028 0 0
          0.0008083287721305391 0.0008083287721305391 0 0.0008083287721305391 0 0
          0.00031686456494809604 0.00031686456494809604 0 0.00031686456494809604 0 0
          0.00027259891107319956 0.00027259891107319956 0 0.00027259891107319956 0 0
          0.00030292881782116165 0.00030292881782116165 0 0.00030292881782116165 0 0
          0.0003318112132515877 0.0003318112132515877 0 0.0003318112132515877 0 0
          0.00019408197352035144 0.00019408197352035144 0 0.00019408197352035144 0 0
          0.0002458857473415003 0.0002458857473415003 0 0.0002458857473415003 0 0
          0.00011907431317477357 0.00011907431317477357 0 0.00011907431317477357 0 0
          0.00007804026477892862 0.00007804026477892862 0 0.00007804026477892862 0 0
          0.00007532357665136976 0.00007532357665136976 0 0.00007532357665136976 0 0
          0.00010663732588946773 0.00010663732588946773 0 0.00010663732588946773 0 0
          0.0003186306168446655 0.0003186306168446655 0 0.0003186306168446655 0 0
          0.0001331315800714159 0.0001331315800714159 0 0.0001331315800714159 0 0
          0.00040871529678928134 0.00040871529678928134 0 0.00040871529678928134 0 0
          0.0000542032953435632 0.0000542032953435632 0 0.0000542032953435632 0 0
          0.00005641401275616478 0.00005641401275616478 0 0.00005641401275616478 0 0
          0.00008772140111179639 0.00008772140111179639 0 0.00008772140111179639 0 0
          0.09189977378066472 0.09189977378066472 0 0.09189977378066472 0 0
          0.09389256168123258 0.09389256168123258 0 0.09389256168123258 0 0
          0.046552572801727886 0.046552572801727886 0 0.046552572801727886 0 0
          0.11483447612395808 0.11483447612395808 0 0.11483447612395808 0 0
          0.1359050906509843 0.1359050906509843 0 0.1359050906509843 0 0
          0.1006176173976541 0.1006176173976541 0 0.1006176173976541 0 0
          0.07476389167869833 0.07476389167869833 0 0.07476389167869833 0 0
          0.15433058529947985 0.15433058529947985 0 0.15433058529947985 0 0
          0.051353169024613184 0.051353169024613184 0 0.051353169024613184 0 0
          0.05574914817458372 0.05574914817458372 0 0.05574914817458372 0 0
          0.028886507648055372 0.028886507648055372 0 0.028886507648055372 0 0
          0.04274721571320923 0.04274721571320923 0 0.04274721571320923 0 0
          0.02512216601898966 0.02512216601898966 0 0.02512216601898966 0 0
          0.05591444086581565 0.05591444086581565 0 0.05591444086581565 0 0
          0.06836064701590927 0.06836064701590927 0 0.06836064701590927 0 0
          0.0773078548815104 0.0773078548815104 0 0.0773078548815104 0 0
          0.044174905798260694 0.044174905798260694 0 0.044174905798260694 0 0
          0.051133852846274655 0.051133852846274655 0 0.051133852846274655 0 0
          0.03987771265568145 0.03987771265568145 0 0.03987771265568145 0 0
          0.07916920564268319 0.07916920564268319 0 0.07916920564268319 0 0
          0.02940835855460868 0.02940835855460868 0 0.02940835855460868 0 0
          0.02888510641995102 0.02888510641995102 0 0.02888510641995102 0 0
          0.017487173806445967 0.017487173806445967 0 0.017487173806445967 0 0
          0.032438588465089235 0.032438588465089235 0 0.032438588465089235 0 0
          0.018023675407037663 0.018023675407037663 0 0.018023675407037663 0 0
          0.029866791356444884 0.029866791356444884 0 0.029866791356444884 0 0
          0.04569966269807459 0.04569966269807459 0 0.04569966269807459 0 0
          0.04862329447371859 0.04862329447371859 0 0.04862329447371859 0 0
          0.029369543088034383 0.029369543088034383 0 0.029369543088034383 0 0
          0.0403681244448869 0.0403681244448869 0 0.0403681244448869 0 0
          0.026325069811769852 0.026325069811769852 0 0.026325069811769852 0 0
          0.02784217945845071 0.02784217945845071 0 0.02784217945845071 0 0
          0.021747070447085848 0.021747070447085848 0 0.021747070447085848 0 0
          0.017919759636989788 0.017919759636989788 0 0.017919759636989788 0 0
          0.010010310971137653 0.010010310971137653 0 0.010010310971137653 0 0
          0.015749229766039808 0.015749229766039808 0 0.015749229766039808 0 0
          0.013445900281214684 0.013445900281214684 0 0.013445900281214684 0 0
          0.05443621314649748 0.05443621314649748 0 0.05443621314649748 0 0
          0.016684313278935558 0.016684313278935558 0 0.016684313278935558 0 0
          0.018763088049839637 0.018763088049839637 0 0.018763088049839637 0 0
          0.012909431543943408 0.012909431543943408 0 0.012909431543943408 0 0
          0.046313450463730116 0.046313450463730116 0 0.046313450463730116 0 0
          0.060066246946551785 0.060066246946551785 0 0.060066246946551785 0 0
          0.017421290058529448 0.017421290058529448 0 0.017421290058529448 0 0
          0.033500877227095195 0.033500877227095195 0 0.033500877227095195 0 0
          0.028554296535891685 0.028554296535891685 0 0.028554296535891685 0 0
          0.017690813849883476 0.017690813849883476 0 0.017690813849883476 0 0
          0.02121165476369146 0.02121165476369146 0 0.02121165476369146 0 0
          0.010994180062814617 0.010994180062814617 0 0.010994180062814617 0 0
          0.03368172788749508 0.03368172788749508 0 0.03368172788749508 0 0
          0.020389600508248434 0.020389600508248434 0 0.020389600508248434 0 0
          0.016819773907636396 0.016819773907636396 0 0.016819773907636396 0 0
          0.0131290252789347 0.0131290252789347 0 0.0131290252789347 0 0
          0.008068048912509118 0.008068048912509118 0 0.008068048912509118 0 0
          0.039459407176064186 0.039459407176064186 0 0.039459407176064186 0 0
          0.019382143753709172 0.019382143753709172 0 0.019382143753709172 0 0
          0.01104376466117518 0.01104376466117518 0 0.01104376466117518 0 0
          0.015484294558015772 0.015484294558015772 0 0.015484294558015772 0 0
          0.03939562370082547 0.03939562370082547 0 0.03939562370082547 0 0
          0.024395468443749235 0.024395468443749235 0 0.024395468443749235 0 0
          0.024489528732536764 0.024489528732536764 0 0.024489528732536764 0 0
          0.01135366113016074 0.01135366113016074 0 0.01135366113016074 0 0
          0.02367915028453036 0.02367915028453036 0 0.02367915028453036 0 0
          0.015150451624618113 0.015150451624618113 0 0.015150451624618113 0 0
          0.025749252107310418 0.025749252107310418 0 0.025749252107310418 0 0
          0.018217295302273808 0.018217295302273808 0 0.018217295302273808 0 0
          0.014542402016541386 0.014542402016541386 0 0.014542402016541386 0 0
          0.011636621236621163 0.011636621236621163 0 0.011636621236621163 0 0
          0.018406182281938695 0.018406182281938695 0 0.018406182281938695 0 0
          0.010844315152628858 0.010844315152628858 0 0.010844315152628858 0 0
          0.007085163444962463 0.007085163444962463 0 0.007085163444962463 0 0
          0.0074461309755404406 0.0074461309755404406 0 0.0074461309755404406 0 0
          0.011671983772628906 0.011671983772628906 0 0.011671983772628906 0 0
          0.012419988609199307 0.012419988609199307 0 0.012419988609199307 0 0
          0.02890778415132525 0.02890778415132525 0 0.02890778415132525 0 0
          0.27691961806327103 0.27691961806327103 0 0.27691961806327103 0 0
          0.25539434410317097 0.25539434410317097 0 0.25539434410317097 0 0
          0.14894157405403502 0.14894157405403502 0 0.14894157405403502 0 0