<?xml version="1.0"?>
<VTKFile type="UnstructuredGrid" version="0.1" byte_order="LittleEndian" header_type="UInt32" compressor="vtkZLibDataCompressor">
  <UnstructuredGrid>
    <Piece NumberOfPoints="183" NumberOfCells="79">
      <PointData>
        <DataArray type="Float64" Name="Density" format="ascii" RangeMin="0.9158289151285833" RangeMax="1.180642987965678">
          0.9999999999980137 1.000000000001366 1.0000000000004554 0.9999999999986595 1.0000000000725955 0.9999999999911481
          1.0000000000107394 1.0000000000445277 0.9999999996961044 1.000000000211136 1.0000000000008147 0.9999999996010713
          0.9999999999962006 1.000000006525496 1.000000000018363 0.9999999993197276 1.0000000044024024 1.0000000000287397
          0.9999999999964609 1.0000000000029305 0.9999999872067301 0.9999999999947682 0.9999999999943066 0.9999999834320409
          1.0000000139624972 1.0000000003675955 1.0000000698846359 1.0000000013506691 0.9999999983062344 1.0000000825985267
          0.9999999714289743 0.9999999956615422 0.9999998904726491 1.0000000518944658 1.0000000321758542 0.9999997976236811
          1.0000001727505585 0.9999974860116461 0.9999998824348747 0.9999998857046105 0.9999986157915285 0.9999998200157553
          0.9999996823802791 1.000009864130466 0.9999997058643599 1.0000001974476247 0.9999995838758202 1.0000022498205436
          1.0000005336066955 0.9999993491178837 1.00000205743051 1.0000013454586174 0.9997886063604204 1.0000041232758552
          0.9999997067135756 1.0000013561624157 0.9999962354492214 0.9999965888240492 0.9999875680671014 1.000002883776687
          0.9999961013117955 1.0000008618581586 0.9997040943274257 1.0011091390273235 1.0000127272270356 1.000001927473583
          1.0000020189385452 0.9998940340928147 0.9999986950315778 0.9999973353299073 1.0000089325975696 1.0000068117922396
          0.9999967506328944 1.0000152579501902 1.0000184474138722 0.9999007035084595 0.9999864620600293 0.9999870479313799
          0.9999548227970555 1.0000043259947577 1.000068371404941 1.0000474910027815 0.9998521857606723 1.000050771556068
          0.9999946798709316 0.9999942433800345 0.9999423829206658 0.99049654601114 1.000469035884495 1.000017175174325
          0.9987847203594934 0.9998103314104164 1.0000391075668036 0.9998907676788341 0.9999647816021149 1.0000339051178089
          0.9999052086540922 1.0001697578346016 1.0000043157034928 0.99998103755598 0.9994522052208912 1.0002745065905068
          0.9999866490556903 0.9998233426054862 1.0000031824290307 0.9999933229823968 0.9979404623975271 0.9994247347710522
          1.0001393367749132 0.9999972447431028 0.9999186437170645 1.0001148246245382 0.9997860865146986 1.0000171856617222
          0.9839537670366936 0.9995517317568137 1.0000923985865486 1.003375509204762 0.998990166481626 1.0005299657887845
          0.999640064515583 0.9996042276251397 1.0006546999555552 0.9995661525664548 1.0026165324378127 1.0001651317757163
          0.9995126842995542 1.0002320769700381 0.9993900150805739 1.003581224435031 0.9988189551649402 0.9991599284883349
          0.9943205084642732 1.0000034062373118 0.999694408593335 1.0223408111733034 0.9998903603746193 1.0008251051347543
          0.9982688610340332 0.9991239817547481 1.0002816555500733 0.9594131601421303 0.9599382140495897 1.0008140366338942
          1.0010052283913788 0.9694516842298596 0.9990277916372319 0.9992323726389654 0.9306747601314247 0.9685345981359815
          0.9859352506302143 0.9718137646346992 0.9776965565338924 0.9173248166021147 0.9681163360410711 0.9158289151285833
          1.0837741403928247 1.1252652679043613 1.154255360537302 1.1588510697115022 1.093975915844306 1.1722536138669637
          1.021563692827229 0.9542023600339072 1.1710823021112016 1.180642987965678 1.0989661541344526 1.1325748085471696
          1 1 1 1 1 1
          1 1.1267045693070072 1 1.0980703298293453 1 1
          1 1 1
        </DataArray>
        <DataArray type="Float64" Name="Momentum" NumberOfComponents="3" format="ascii" RangeMin="0" RangeMax="1">
          -2.349904796807619e-12 -1.5665596850613475e-12 0 6.55728510990046e-13 0 0
          -1.7084179980550394e-14 1.0101651887028563e-12 0 -1.670582670046427e-12 -2.908103323373196e-12 0
          6.32927489190625e-11 0 0 -8.32139744081798e-12 -3.814342216698351e-13 0
          8.809475265821255e-12 -2.7154113683325365e-12 0 3.615163513645459e-11 -1.3514884838353379e-11 0
          -2.5407415841332046e-10 0 0 1.7858243708262453e-10 -4.826638638009928e-11 0
          3.664329877410035e-13 -1.2299539788353882e-12 0 -3.517439869587934e-10 2.1767717642927661e-10 0
          -3.4268684113063253e-12 4.6031992007749575e-12 0 6.042648301085957e-9 0 0
          1.4994677437479185e-11 -6.601943484193493e-12 0 -5.246537780543634e-10 6.039331505969521e-11 0
          4.008325689455821e-9 -1.3985832411749798e-9 0 1.7775435970609172e-11 -2.9029681343395926e-11 0
          -3.691157818029675e-12 3.006568216811404e-12 0 2.3483039561461784e-12 0 0
          -1.1201198981073176e-8 0 0 -5.040449428510475e-12 0 0
          -3.3251604201299154e-12 0 0 -1.442979001105475e-8 8.704590306594727e-9 0
          1.2878277607046208e-8 -3.7116647959028134e-9 0 4.873938667878403e-10 7.247755116766766e-10 0
          8.861508606773683e-8 0 0 1.20259247570023e-9 0 0
          -1.5490178361917928e-9 -5.507719398193557e-9 0 8.626573303085266e-8 -4.109045989019873e-8 0
          -2.3647580245550847e-8 4.573374915141824e-9 0 -3.972241465963997e-9 0 0
          -1.633225073806252e-7 0 0 5.6589390485408704e-8 0 0
          3.9781767151093486e-8 3.71723723098128e-8 0 -2.161816873080714e-7 9.716275011452513e-8 0
          1.7987911711070622e-7 -3.7342975103362614e-9 0 -0.000002702828529874912 0 0
          -1.2477213873870124e-7 2.344229722985575e-7 0 -1.2722808217983704e-7 0 0
          -0.0000013552490218455149 6.223953075937249e-7 0 -1.503478189349346e-7 -1.7401176133766586e-7 0
          -2.6040754719901413e-7 -2.9353199031989076e-7 0 0.00001158200132461625 0 0
          -8.523904963397357e-7 0.0000031551993744163065 0 -1.3632419428395944e-7 0 0
          -1.8424238882309002e-7 -5.937198283508643e-8 0 0.000004300560949990543 -0.00000785694637896438 0
          4.474135134399327e-7 5.214381127602889e-7 0 -6.564363854579426e-7 6.946121803379552e-7 0
          0.0000011399271402035715 -1.0226307465424073e-7 0 0.000001262280067191519 6.256758123720504e-7 0
          -0.00018836036436079378 0 0 0.000005802663363055481 -0.000008803155988288902 0
          0.0000016327183185137202 0 0 8.706737873102338e-8 0.000004247270317884864 0
          -0.000003886754873643917 -9.534481311033342e-7 0 1.7941559335138657e-7 0.0000015389488348474055 0
          -0.000017880591198921034 0.000008588978811165537 0 0.0000012641652614632544 -0.000001353552543009136 0
          -0.0000017589927220660155 -0.000002458102281561096 0 -5.385614000272879e-7 8.455088019779052e-7 0
          -0.00019851487754016706 0.0005259042731579928 0 0.0009043414546747341 0 0
          0.00002082933040507156 -0.0000165505284983919 0 0.000004445241429768848 0.000001394484979657852 0
          0.0000052128109199058405 0.000004109645791931068 0 -0.00009950178635666793 0 0
          0.0000023539346143249752 0.0000023283446397430245 0 0.0000015423629083880975 -0.0000034699434047333835 0
          0.0000026274823046272576 9.31298725757512e-7 0 -0.000034305713627252293 0.000043736694164335696 0
          -0.000007596793449864454 -0.000012548683497354708 0 6.758244319024925e-7 0.000017629250056740193 0
          0.000008186481472663624 -0.0000019881827482085395 0 -0.00004659355945770937 -0.00014672165974392024 0
          -0.0000072326002098310785 0.000005981114266401876 0 -0.0000033134256261475547 -0.00000812531693188696 0
          -0.000055078162051619496 0.0006492340662453123 0 -4.5607041806002665e-7 -3.5422702653755514e-7 0
          0.0000467182931196199 0.000032385460145981155 0 0.00005614847444625897 -0.000038723591187958256 0
          0.0004712703173085568 -0.0012752827848987128 0 0.000043144947979196775 0.00004328838960584527 0
          0.000002912029273458393 0.000009360030067121871 0 0.000002728550685685894 -0.000007121845452027052 0
          -0.0000396531779537788 -0.000023993198219839728 0 -0.00871336280687379 0 0
          0.00033222997170993 0 0 0.0000041902962881145566 -7.215377679128576e-7 0
          -0.001118333666506853 -0.0005005411517581936 0 -0.00009689722344697401 6.717193271246673e-8 0
          0.00002388439487675036 -0.00005515604886728447 0 -0.00010272452966811312 0.00006731330176048709 0
          -0.000021648956650596315 0.000015405649593633203 0 0.000005964197272158598 0.000044685328855710116 0
          -0.00013205487099948222 -0.0001415431575055053 0 0.0000728752217232067 -0.0007133462517610513 0
          5.598663489834588e-7 -0.0000017343575648088323 0 -0.000008329236632733457 -0.000010831522435947858 0
          -0.0004742570990252639 -0.0006994554981984937 0 0.00025394032527869544 -0.00013225111323012962 0
          0.000005799930827142945 0.000017458670248370444 0 -0.00009120057933331237 0.00016059389979596105 0
          0 0 0 0.000008745491903061756 -0.000006526216531370612 0
          -0.0016169659660673406 0.00048609429651366487 0 -0.0002564804316080063 0.0009367420334445231 0
          0.00010468619565387268 0.00013115047789193527 0 0 0 0
          -0.0000183470957286492 -0.00016975781404756992 0 0.00007285418452418431 -0.00015932601969364903 0
          -0.0006576624973493014 -0.0011677831160849387 0 0 0 0
          -0.00897255253198934 0.015351310785354953 0 -0.0004817779095966429 0.00011674693262802255 0
          0.000036739007336607127 0.00008692215495818522 0 0.0029782420391739 0.00022161470440553967 0
          -0.0007719531029600986 0.0004155897190914256 0 0 0 0
          -0.0003058014671648269 -0.00024647247495574733 0 -0.00011020657673279917 -0.00010178738448458075 0
          0 0 0 -0.0003372701682612632 0.0003195580062184988 0
          0.0019325364624832655 -0.0021342196249070165 0 0 0 0
          -0.0003546870984113892 -0.00034300499700751653 0 0.0018629277718924442 0.0017833326794967112 0
          -0.0006255980277260812 -0.00012901532663420017 0 0.003802478187287913 0.0007909579387519055 0
          -0.0013000371186117174 0.0013758802249556018 0 -0.0008214445317579763 -0.00012456421995286435 0
          -0.005052499304156863 0 0 -0.0001575650423845348 -0.0007206755370417393 0
          0.00025748791651762566 0.00001491080338462808 0 0.02579721098543605 0 0
          0.00022233928854040237 0.00014502830494258538 0 0.0017638969323539454 -0.0021943469907913533 0
          -0.0001467521434512717 0.0016477053986605169 0 -0.001036098595013774 -0.00030220592366572306 0
          0.002052054688042637 -0.002797799550398195 0 -0.04950823768203602 0.0187923355511004 0
          -0.040614712201097 0.0005420754959376292 0 0.0014887726886760621 0.0009419061103046599 0
          0.0005349490993822312 -0.0002211256777081447 0 -0.01840914487834258 0.005030998235998475 0
          0.0012350788450040079 0.0013513919179737562 0 0.0011266939130186193 -0.000920945009111066 0
          -0.07473116436027084 0.0057347383455625366 0 -0.01918282892461287 -0.015256335400796807 0
          -0.005540037798980292 -0.01750781027895403 0 -0.015473786114430342 0.0022346795220946204 0
          -0.01377576456251954 0.011502455364695116 0 -0.09151266947602102 -0.012982535897304458 0
          -0.015515932240729037 -0.00403566822351955 0 -0.09108951071290708 0.0003128331628993782 0
          0.08788374444106335 -0.004244782256496321 0 0.13239116272941392 -0.014792684006133244 0
          0.1645696071766938 0.0025818134360516914 0 0.1695723598171377 -0.0032245055247218783 0
          0.09719467204764096 0.005465793328284743 0 0.18426611814862148 0.00221755824345534 0
          0.021576089312009376 0 0 -0.06900315990684594 -0.008590032278047163 0
          0.190048923100956 0.000060439792872695994 0 0.1931658802713067 -0.0011081297647092374 0
          0.10176204562741893 -0.006293652660299349 0 0.14816100935148954 0.004056371329422282 0
          1 0 0 1 0 0
          1 0 0 1 0 0
          1 0 0 1 0 0
          1 0 0 0.1377833688727822 0.0037957187736380412 0
          1 0 0 0.11063257870426409 0.003395690035737229 0
          1 0 0 1 0 0
          1 0 0 1 0 0
          1 0 0
          <InformationKey name="L2_NORM_RANGE" location="vtkDataArray" length="2">
            <Value index="0">
              0
            </Value>
            <Value index="1">
              1
            </Value>
          </InformationKey>
        </DataArray>
        <DataArray type="Float64" Name="Energy" format="ascii" RangeMin="1.4783346068512375" RangeMax="2.247249069663262">
          1.7231999999950893 1.7232000000033543 1.7232000000011274 1.7231999999967595 1.7232000001762042 1.7231999999783925
          1.7232000000261212 1.723200000107738 1.7231999992633327 1.7232000005031591 1.7232000000019674 1.723199999046278
          1.723199999990868 1.7232000159432315 1.7232000000445342 1.7231999983615898 1.7232000106442489 1.7232000000694754
          1.723199999991446 1.7232000000070944 1.7231999688203439 1.7231999999874088 1.723199999985875 1.723199959947944
          1.7232000335339908 1.7232000008854529 1.7232001728215756 1.7232000032857606 1.7231999959363065 1.7232001997917632
          1.7231999311969932 1.723199989468115 1.7231997278080837 1.7232001273272246 1.7232000773926284 1.7231995070605528
          1.723200418033425 1.723193924078666 1.7231997190529034 1.7231997208755137 1.7231966489061097 1.7231995658798318
          1.7231992292814564 1.7232238566859106 1.7231992850198254 1.7232005193869275 1.7231989884436367 1.723205417545963
          1.7232012616222012 1.723198448846027 1.723205051543733 1.7232032578525533 1.7226859409953552 1.7232100096461298
          1.7231992512126069 1.7232035757925002 1.723190844024231 1.7231916396945002 1.7231689401641046 1.7232063222241214
          1.7231904563240257 1.7232020316774384 1.722489289302879 1.7258818634913506 1.7232319980750397 1.7232059472690708
          1.7232046957550295 1.722943286368241 1.723196815970381 1.7231935246877428 1.7232217994711885 1.7232156125646114
          1.7231923358344896 1.7232359073058319 1.7232425226302344 1.7229599263391762 1.7231670627782618 1.7231687567011889
          1.7230838167626672 1.7232101429788804 1.7233639202763598 1.7233215963187176 1.7228486262501923 1.72332597418505
          1.7231868729234199 1.7231860154137462 1.7230559213907584 1.6978076552455261 1.7243340909353166 1.7232419521959976
          1.720237171764373 1.7227249744304336 1.7232862241993019 1.7229289027351786 1.723115282612171 1.7232816831397966
          1.7229674582561012 1.7235509946979155 1.7232090178272668 1.7231547069694972 1.7219498763367058 1.7238844446983925
          1.7231713453135473 1.7227624653762685 1.7232022337712278 1.7231889105657991 1.7184668207964113 1.7218158000044725
          1.7235452972067606 1.7231948289889365 1.7229926662613289 1.7234488592538117 1.7226607067258206 1.7232379100552446
          1.6872616599158405 1.722103467085581 1.7234129759583627 1.73129362240547 1.7207806773295602 1.7245460952339602
          1.7223169302026438 1.7221761651545733 1.7247893118504205 1.7221131955409987 1.7291652610359776 1.7235746938653616
          1.7220159321912858 1.7237053412027898 1.7216995475290942 1.7315030859705733 1.7206670113310536 1.7211499778205954
          1.7077637675776727 1.7237830849970976 1.7224655693185216 1.7858293220191381 1.722949386636289 1.7251039643985915
          1.7186926177008073 1.721733172603151 1.7235595530104622 1.6011655276761194 1.6104514715546652 1.724533081069647
          1.7248814947098763 1.6536302626673394 1.720139441456737 1.7205805732151978 1.5231128539086762 1.6519256404348166
          1.6929633208287345 1.6591526268765584 1.672898686011168 1.4860193589955193 1.6517922713078517 1.4783346068512375
          1.9630071229226425 2.0842414190579337 2.166784335554558 2.1828709899497363 1.9914655952737665 2.2207034408181476
          1.781404095077125 1.5747464995319804 2.2143007378715844 2.247249069663262 2.0052251087070183 2.1046974746702505
          2.2232 2.2232 2.2232 2.2232 2.2232 2.2232
          2.2232 2.0904468835434815 2.2232 2.0112027121549545 2.2232 2.2232
          2.2232 2.2232 2.2232
        </DataArray>
      </PointData>
      <CellData>
        <DataArray type="UInt8" Name="vtkGhostType" format="ascii" RangeMin="0" RangeMax="0">
          0 0 0 0 0 0
          0 0 0 0 0 0
          0 0 0 0 0 0
          0 0 0 0 0 0
          0 0 0 0 0 0
          0 0 0 0 0 0
          0 0 0 0 0 0
          0 0 0 0 0 0
          0 0 0 0 0 0
          0 0 0 0 0 0
          0 0 0 0 0 0
          0 0 0 0 0 0
          0 0 0 0 0 0
          0
        </DataArray>
      </CellData>
      <Points>
        <DataArray type="Float32" Name="Points" NumberOfComponents="3" format="ascii" RangeMin="0" RangeMax="7.102112369882704">
          7 1.2000000476837158 0 6.5 1.2000000476837158 0
          7 0.6000000238418579 0 6.5 0.6000000238418579 0
          6 1.2000000476837158 0 7 -2.220446049250313e-16 0
          6.25 0.16698729991912842 0 5.75 0.7669873237609863 0
          5.5 1.2000000476837158 0 5.5 0.33397459983825684 0
          7 -0.6000000238418579 0 5.25 0.7669873237609863 0
          6.5 -0.6000000238418579 0 5 1.2000000476837158 0
          5.75 -0.4330126941204071 0 5 2.220446049250313e-16 0
          4.75 0.4330126941204071 0 5.25 -0.4330126941204071 0
          7 -1.2000000476837158 0 6.5 -1.2000000476837158 0
          4.5 1.2000000476837158 0 6 -1.2000000476837158 0
          5.5 -1.2000000476837158 0 4.25 0.4330126941204071 0
          4.5 -0.33397459983825684 0 4.75 -0.7669873237609863 0
          4 1.2000000476837158 0 5 -1.2000000476837158 0
          4.25 -0.7669873237609863 0 3.6823039054870605 0.4431717097759247 0
          3.9323039054870605 -0.32381561398506165 0 4.5 -1.2000000476837158 0
          3.5 1.2000000476837158 0 4 -1.2000000476837158 0
          3.6823039054870605 -0.7568283081054688 0 3.1823039054870605 0.4431717097759247 0
          3.364607095718384 -0.31365659832954407 0 3 1.2000000476837158 0
          2.953885078430176 0.029621059074997902 0 3.5 -1.2000000476837158 0
          2.771580934524536 0.7864493131637573 0 3.1823039054870605 -0.7568283081054688 0
          2.9061310291290283 -0.4530656039714813 0 2.5 1.2000000476837158 0
          2.5431621074676514 0.3728986978530884 0 3 -1.2000000476837158 0
          2.495408058166504 -0.10978800058364868 0 2.271580934524536 0.7864493131637573 0
          2.7238268852233887 -0.8962373733520508 0 2.2451179027557373 0.2950834035873413 0
          2.4476540088653564 -0.5924746990203857 0 2.197364091873169 -0.18760329484939575 0
          2 1.2000000476837158 0 1.9735369682312012 0.708634078502655 0
          2.5 -1.2000000476837158 0 1.947074055671692 0.2172681987285614 0
          2.0834739208221436 -0.4830414056777954 0 2.2238268852233887 -0.8962373733520508 0
          1.766793966293335 0.8914316296577454 0 1.7403310537338257 0.40006569027900696 0
          1.833184003829956 -0.07816994935274124 0 1.696537971496582 0.15281939506530762 0
          1.5884170532226562 0.9876154065132141 0 1.5 1.2000000476837158 0
          1.5335869789123535 0.5828632116317749 0 1.7192939519882202 -0.3736081123352051 0
          1.8596470355987549 -0.7868040204048157 0 2 -1.2000000476837158 0
          1.4897949695587158 0.3356168866157532 0 1.5826480388641357 -0.1426188051700592 0
          1.4460029602050781 0.08837053179740906 0 1.3552099466323853 0.6790469884872437 0
          1.339123010635376 0.4750398099422455 0 1.4790019989013672 -0.34034401178359985 0
          1.5011229515075684 -0.5437853932380676 0 1.641476035118103 -0.9569813013076782 0
          1.2953310012817383 0.22779349982738495 0 1.3423570394515991 -0.10935469716787338 0
          1.1768330335617065 0.7752308249473572 0 1.2693469524383545 0.06596699357032776 0
          1.1607470512390137 0.5712236166000366 0 1.1446599960327148 0.36721640825271606 0
          1.0884170532226562 0.9876154065132141 0 1.2387109994888306 -0.3070800006389618 0
          1.1186749935150146 0.20538990199565887 0 1.1657010316848755 -0.13175830245018005 0
          1.2608319520950317 -0.5105212926864624 0 1 1.2000000476837158 0
          1.5 -1.2000000476837158 0 1.0926909446716309 0.043563440442085266 0
          1.2829530239105225 -0.7139626741409302 0 0.9874739050865173 0.6781361103057861 0
          1.0298000574111938 0.28314921259880066 0 0.9713870286941528 0.4741289019584656 0
          1.0038150548934937 0.12132269889116287 0 1.0768250226974487 -0.25308090448379517 0
          1.0993930101394653 -0.3733969032764435 0 0.8990572094917297 0.8905206918716431 0
          0.9963455200195312 0.021781720221042633 0 1.0038150548934937 -0.07775924354791641 0
          1.1215139627456665 -0.5768383145332336 0 0.9149399995803833 0.1990818977355957 0
          0.9074699878692627 0.09954095631837845 0 0.8565272092819214 0.39006170630455017 0
          0.8999999761581421 0 0 0.9074699878692627 -0.09954095631837845 0
          0.7981144189834595 0.5810413956642151 0 1.141476035118103 -0.9569813013076782 0
          0.9149399995803833 -0.1990818977355957 0 0.8500000238418579 0.08660253882408142 0
          0.9375075101852417 -0.319397896528244 0 0.8324699997901917 0.14284220337867737 0
          0.9600750803947449 -0.43971389532089233 0 0.8500000238418579 -0.08660253882408142 0
          0.7150853276252747 1.018962025642395 0 0.7654337286949158 0.21538899838924408 0
          0.8324699997901917 -0.14284220337867737 0 0.9678938984870911 -0.6856740713119507 0
          0.7070209980010986 0.4063687026500702 0 0.75 0.08660253882408142 0
          0.8092945218086243 -0.23232249915599823 0 0.8318619728088379 -0.35263851284980774 0
          0.75 -0.08660253882408142 0 0.6829637289047241 0.15914930403232574 0
          0.6141425967216492 0.7094823122024536 0 0.699999988079071 0 0
          0.7268245220184326 -0.1760828047990799 0 0.8064550161361694 -0.5485497117042542 0
          0.6600599884986877 0.04330126941204071 0 0.5785459280014038 0.5376487970352173 0
          0.615927517414093 0.23169609904289246 0 0.6600599884986877 -0.04330126941204071 0
          1 -1.2000000476837158 0 0.7036489844322205 -0.26556310057640076 0
          0.5930237174034119 0.11584799736738205 0 0.5 1.2000000476837158 0
          0.6368845105171204 -0.13278159499168396 0 0.8264175057411194 -0.9286928176879883 0
          0.678242027759552 -0.46147438883781433 0 0.5701199769973755 2.220446049250313e-16 0
          0.4874523878097534 0.3629761040210724 0 0.4301707148551941 0.8379232287406921 0
          0.6528350114822388 -0.6573855876922607 0 0.46278950572013855 0.17328590154647827 0
          0.5381790995597839 -0.23345430195331573 0 0.39457398653030396 0.6660897135734558 0
          0.47141459584236145 -0.10067269951105118 0 0.4398857057094574 0.05743790045380592 0
          0.3589772880077362 0.4942561089992523 0 0.5127720832824707 -0.42936548590660095 0
          0.7066044211387634 -1.0821729898452759 0 0.33431440591812134 0.30456599593162537 0
          0.5330219268798828 -0.8108659982681274 0 0.3727092146873474 -0.2013455033302307 0
          0.34118029475212097 -0.04323484003543854 0 0.3096514046192169 0.11487580090761185 0
          0.21508529782295227 1.018962025642395 0 0.21508529782295227 0.8189616203308105 0
          0.17948870360851288 0.6471279859542847 0 0.17948870360851288 0.4471279978752136 0
          0.3264175057411194 -0.5286927819252014 0 0.15482570230960846 0.25743791460990906 0
          0.5 -1.2000000476837158 0 0.4132086932659149 -0.9643464088439941 0
          0.1863546073436737 -0.10067269951105118 0 0.15482570230960846 0.05743790045380592 0
          0.3264175057411194 -0.7286928296089172 0 0.1863546073436737 -0.300672709941864 0
          0 1.2000000476837158 0 0 1 0
          0 0.800000011920929 0 0 0.6000000238418579 0
          0 0.4000000059604645 0 0 0.20000000298023224 0
          0 0 0 0.20660440623760223 -0.8821731805801392 0
          0 -0.20000000298023224 0 0.20660440623760223 -1.0821729898452759 0
          0 -0.4000000059604645 0 0 -0.6000000238418579 0
          0 -0.800000011920929 0 0 -1 0
          0 -1.2000000476837158 0
          <InformationKey name="L2_NORM_RANGE" location="vtkDataArray" length="2">
            <Value index="0">
              0
            </Value>
            <Value index="1">
              7.1021123699
            </Value>
          </InformationKey>
        </DataArray>
      </Points>
      <Cells>
        <DataArray type="Int64" Name="connectivity" format="ascii" RangeMin="0" RangeMax="182">
          104 122 108 113 116 105
          122 119 139 125 128 131
          119 104 101 109 102 111
          108 122 133 116 126 120
          139 119 130 128 123 134
          101 104 89 102 98 94
          104 108 89 105 99 98
          122 139 133 131 136 126
          119 101 130 111 115 123
          108 133 112 120 121 110
          139 130 155 134 143 147
          101 89 81 94 84 92
          112 133 142 121 138 127
          155 130 148 143 140 151
          81 89 70 84 79 76
          108 112 83 110 96 95
          139 155 153 147 154 146
          101 81 106 92 93 103
          142 133 153 138 144 149
          70 89 83 79 85 77
          153 155 174 154 165 164
          174 155 172 165 161 173
          148 130 106 140 118 129
          83 112 90 96 100 86
          106 81 78 93 80 91
          112 142 90 127 117 100
          81 70 64 76 68 72
          139 153 133 146 144 136
          155 148 172 151 159 161
          172 148 170 159 158 171
          108 83 89 95 85 99
          101 106 130 103 118 115
          153 174 178 164 176 167
          153 178 142 167 160 149
          168 170 141 169 157 156
          178 180 142 179 166 160
          180 182 163 181 177 175
          90 142 132 117 137 107
          78 81 64 80 72 71
          78 64 52 71 58 62
          64 70 55 68 61 59
          83 90 65 86 74 73
          106 78 87 91 82 97
          170 148 141 158 145 157
          87 78 52 82 62 63
          168 141 87 156 114 135
          163 182 132 177 162 150
          180 163 142 175 152 166
          142 163 132 152 150 137
          55 70 65 61 69 60
          64 55 52 59 53 58
          65 90 67 74 75 66
          83 65 70 73 69 77
          148 106 141 129 124 145
          90 132 67 107 88 75
          87 141 106 114 124 97
          65 67 50 66 57 56
          50 67 45 57 54 48
          65 50 55 56 51 60
          50 45 36 48 41 42
          52 55 44 53 49 47
          44 55 50 49 51 46
          52 44 37 47 40 43
          37 44 36 40 38 35
          36 45 33 41 39 34
          50 36 44 42 38 46
          33 27 24 31 25 28
          4 13 9 8 11 7
          24 27 9 25 17 15
          9 13 24 11 16 15
          4 9 5 7 6 3
          21 18 5 19 10 12
          26 37 36 32 35 29
          27 21 9 22 14 17
          13 26 24 20 23 16
          0 4 5 1 3 2
          33 24 36 28 30 34
          36 24 26 30 23 29
          5 9 21 6 14 12
        </DataArray>
        <DataArray type="Int64" Name="offsets" format="ascii" RangeMin="6" RangeMax="474">
          6 12 18 24 30 36
          42 48 54 60 66 72
          78 84 90 96 102 108
          114 120 126 132 138 144
          150 156 162 168 174 180
          186 192 198 204 210 216
          222 228 234 240 246 252
          258 264 270 276 282 288
          294 300 306 312 318 324
          330 336 342 348 354 360
          366 372 378 384 390 396
          402 408 414 420 426 432
          438 444 450 456 462 468
          474
        </DataArray>
        <DataArray type="UInt8" Name="types" format="ascii" RangeMin="22" RangeMax="22">
          22 22 22 22 22 22
          22 22 22 22 22 22
          22 22 22 22 22 22
          22 22 22 22 22 22
          22 22 22 22 22 22
          22 22 22 22 22 22
          22 22 22 22 22 22
          22 22 22 22 22 22
          22 22 22 22 22 22
          22 22 22 22 22 22
          22 22 22 22 22 22
          22 22 22 22 22 22
          22 22 22 22 22 22
          22
        </DataArray>
      </Cells>
    </Piece>
  </UnstructuredGrid>
</VTKFile>
