<?xml version="1.0"?>
<VTKFile type="UnstructuredGrid" version="0.1" byte_order="LittleEndian" header_type="UInt32" compressor="vtkZLibDataCompressor">
  <UnstructuredGrid>
    <Piece NumberOfPoints="310" NumberOfCells="140">
      <PointData>
        <DataArray type="Float64" Name="Velocity" NumberOfComponents="3" format="ascii" RangeMin="0" RangeMax="1.4658372292481003">
          0.49921044288021704 0.07043423964243141 0 0.305386153703446 0.001381431437543362 0
          1.0021451064202902 0.03176979692537539 0 0.722761854170287 0.11631290374041764 0
          0.41456260449167 0.04664320562995221 0 1.0807086803806412 0.08095605795685419 0
          1.0341390655040714 0.06492657882983546 0 0.25164382582117895 0.0015811190066860328 0
          0.41143897692865716 -0.0439594280047853 0 0.7258416394598347 -0.1152894986649333 0
          0.9269801783891155 0.11452915134340885 0 1.0302331409550438 -0.10802374008387863 0
          1.0953965073947614 -0.05881119906554194 0 0.3446466756913046 0.06765450783258371 0
          0.985075801077587 0 0 0.9848302436715826 -0.0006359466839074264 0
          0.20567806530153976 0.0009439825589099252 0 0.641915837921188 0.10260970379581008 0
          0.3405855168431972 -0.06609064740062627 0 1.0823567950763497 0.0726813097703413 0
          1.07186894259605 0.06963565424076669 0 1.050936512899234 0.03957317964659327 0
          0.9675568351521291 0.01206466480513375 0 0.9609757400979336 -0.11473310252647846 0
          0.6426798245149494 -0.10048438538970036 0 0.9327952707174425 0.13464797274586798 0
          1.1357210344991207 -0.07650786536791016 0 0.13760794430122772 -0.0020167848460845334 0
          0.23361143896995992 0.0703180391224584 0 1.0793314915724754 0.10893215678894483 0
          0.5463268764921817 0.1235077605300748 0 1.0836396218333886 -0.059618806269533094 0
          0.2335074595805414 -0.0714326766675366 0 1.097378317558061 0.092353358861457 0
          1.0995521093807836 0.05050668185146303 0 0.058311484631240675 -0.0007771511655084806 0
          0.7613231526648815 0.13766459145918727 0 0.17342389393950725 0.07410348038120394 0
          1.1370687429950244 -0.07487397200186309 0 0.9609546778159547 -0.13068520870208808 0
          0.5495825464211032 -0.1218022853699137 0 1.0071785492799552 -0.02614371411008693 0
          1.0158294408516813 0.015098107057248416 0 0.17495587496224907 -0.0758278597421112 0
          0.3580601054976895 0.0989858726040544 0 0.9801519954401248 0.10555746111821968 0
          -0.02469192320826251 -0.002382766139658323 0 1.1288456542937833 -0.06881228884746553 0
          1.1249984002559623 0.09758291061228329 0 1.1167557777199697 -0.10775776104597361 0
          0.7781453696906219 -0.1373896883910674 0 1.1414476106880227 0.03635602883928296 0
          0.6349280474723379 0.11000147147763628 0 0.018190133553710852 0.02899200575963835 0
          0.3611019541914592 -0.10140356313168684 0 0.9779524171760704 0.12035143941682626 0
          -0.06645212072804126 -0.0013468214855384868 0 0.020780492561156074 -0.031027989014176867 0
          1.0926735444393307 -0.03542422534808376 0 1.1407778709704142 0.05669820355558164 0
          0.15303509878372798 0.07862364163205393 0 1.1554405673898962 -0.09266996973916358 0
          1.0440386344003167 0.00571111625467135 0 0.5803440285006619 0.15052619306051868 0
          1.008122807504993 -0.10713558192641255 0 -0.016432744227341083 0.05785789228659999 0
          0.6479511711755525 -0.11005095456093668 0 0.9991779781377308 0.11778869600267458 0
          -0.1426681545542904 -0.0014699614730944077 0 -0.011966954745200487 -0.05947956283408279 0
          0.1552411544602685 -0.0777051279460485 0 0.9764270138973175 0 0
          0.982613606642979 -0.010876010552101509 0 0.18930354760418652 0.10619877289231709 0
          1.152958938697116 -0.05370157996485542 0 1.187620247598748 0.026353260650315603 0
          -0.06660594764942201 0.07184347952761681 0 0.6562346984481092 0.09201079216742852 0
          1.0056716979860694 -0.11902979228003112 0 0.981934203236267 -0.015114766279736134 0
          1.1724460377682355 -0.09446838022846496 0 -0.23094748897409584 -0.004627148763053964 0
          0.5924169035597157 -0.14972511618898615 0 -0.061245936647855326 -0.08018412226578697 0
          1.101130827546967 0.10003129651213741 0 0.19602517827929755 -0.11083648626310091 0
          0.2736904323160833 0.0617142165391416 0 1.0760012862563055 -0.0014267707485318014 0
          -0.05477664938571357 0.06606128281916489 0 1.0246603622380872 -0.12052392873492122 0
          1.1873645091031848 -0.0588579416636067 0 -0.3373116928517659 -0.0052275470207011595 0
          0.8612785811596525 -0.011098217831159073 0 0.7645560138577934 0.06127208885370131 0
          1.194718615752926 -0.036228975673331554 0 0.6713090775379151 -0.09649426021546739 0
          -0.046669996123669656 -0.07608427820498505 0 0.2837552658788904 -0.0695622299439357 0
          -0.09999268619173633 0.13687737698820032 0 1.2255743885355108 -0.01909238609754172 0
          -0.43630823118640477 -0.007727001930941075 0 -0.09106540035637638 -0.15148066473969246 0
          0.4263973685664907 0.08524262068637069 0 1.131965714890604 -0.10039609955278128 0
          1.2360091668430249 -0.029783682930366748 0 -0.5848816451635334 -0.003727192626928422 0
          0.7276045270078323 0.06949911353731572 0 0.7867516327107563 -0.0619927332668985 0
          1.0043774244188068 -0.022291320171508124 0 -0.2614022599538783 -0.1770167324798778 0
          0.9278914771026995 -0.008059503843500874 0 0.446329942352193 -0.09484976726969069 0
          0.9461942089039214 -0.005889155642395195 0 -0.4064575891048132 -0.0006789465892337099 0
          -0.2547704111187484 0.17338014266194748 0 0.01485756071031395 -0.19797445509948455 0
          1.2174699492542955 -0.08685206461093652 0 1.2584285325202451 0.017919712443410077 0
          -0.18851574114058206 -0.16131642347240133 0 -0.23388661155831336 0.006634066852442708 0
          0.7549161573019918 -0.07261689162350236 0 -0.18582836529388558 0.17149393906202895 0
          1.0578525568774253 -0.008272595944321677 0 0.11487925394130614 -0.186051227048023 0
          0.028515586262195414 0.20075289230507268 0 -0.04261409251002657 -0.20876317691172022 0
          1.291049160796037 -0.1372122989752875 0 -0.05696984789295635 0.004102640498655505 0
          -0.09257726832634593 -0.1150751185587621 0 0.9630235707149796 0 0
          0.21719094187846835 -0.0031560462563723474 0 0.9788213990622572 0.004139620239485957 0
          -0.09441273003242259 0.12266175357437784 0 0.9743985312481482 -0.018748690443819275 0
          -0.00488831518446165 -0.05347880398013222 0 -0.038582866950820104 0.21374391465518724 0
          0.12907390483533066 0.18498521816280597 0 0 0 0
          0.5697131112194233 -0.025060690508928667 0 0 0 0
          0.9872645943400031 -0.02667447858504471 0 0 0 0
          1.1112260782771826 -0.005278989163903268 0 1.247692152699156 0.08208295612260119 0
          0.058035766708266955 -0.0052105787468436915 0 0 0 0
          0.26231139512505597 -0.01050469367037928 0 1.0191715127844327 0 0
          0.955974757115244 -0.07876078665780416 0 0 0 0
          0 0 0 -0.0006907657258594977 0.05122404049941401 0
          0.23493656523839726 -0.004495737302266176 0 0.662670224788982 -0.0447333079763334 0
          1.0286042549581218 -0.0725610650288629 0 0 0 0
          0.07447165429774522 0.009918409287975986 0 1.3219814420627212 0.13173668448303966 0
          0.3478066117362269 -0.004145920261570365 0 0 0 0
          1.2573336586316644 -0.16577546023752263 0 0.06601129518763237 0.001154217142069279 0
          0.5980710265720891 0.01957609470177286 0 0.8359615087553076 -0.08129756870488108 0
          0 0 0 0.28160155236174866 0.006307881387232496 0
          0.20083635152750248 0.009653223115544524 0 1.153671038620402 -0.2085455302142279 0
          0.5227157874157933 -0.020400535004403992 0 0 0 0
          0.987495045362609 0.07458432698296284 0 0.08018539818575558 -0.01162968693914895 0
          0.8646294845870528 0.005759703980252735 0 0.6914832161697532 0.041149201711022466 0
          1.4272966614201812 -0.24112613093659926 0 0 0 0
          1.1862431071536 -0.1903288070360501 0 0.34920935332788233 -0.02019523630330407 0
          0.367179310066937 0.0013883513998854218 0 0.7648168142309644 -0.07604562726616906 0
          0 0 0 0.8643381021011979 0.07854103556863429 0
          0.20990505233114642 -0.010626012634971942 0 1.283953184373762 0.16104380059559867 0
          0 0 0 0.5441648909402775 0.01911213978621569 0
          0.25039709147016453 -0.07146585807249935 0 0 0 0
          1.2159910260390603 -0.3943098024079508 0 0.9322022975338649 -0.39343508814949774 0
          0.3612529795713242 0.02052762877875526 0 0 0 0
          0.7860366586965735 0.07516472841843333 0 1.2097745277521894 0.18590837208898717 0
          1.447080616045633 0.23374446157019144 0 1.1807702242417555 0.1972807466942615 0
          0 0 0 0.670179491927254 -0.45413321774629084 0
          0.2561947540985157 0.07176015007477843 0 0 0 0
          0.9359210096960858 0.009622244528779597 0 0.8515147173933902 -0.5878293255011602 0
          0 0 0 0.5182484090159707 -0.5598495213142103 0
          0.944659351470428 0.3893139629348319 0 1.1316013737523725 -0.28165458223936596 0
          1.2292362417606155 0.3843375086174682 0 0 0 0
          0 0 0 0.9443440202301905 0 0
          0.6706195216947493 0.4508744444676754 0 0.9636545298063898 -0.023674190111395276 0
          0 0 0 0 0 0
          0 0 0 0.6468084662311296 -0.5379089326539094 0
          0 0 0 1.0624326087698828 0.05970672734080811 0
          0.5146045498595939 0.5527868259558016 0 0.9772214606842491 -0.053402090169472914 0
          0.6430728906246669 -0.4479071375405364 0 0.8478632976609528 0.5729394604110084 0
          0.034320819251078084 -0.03465916419900261 0 0.8612232213763733 -0.4005271281113095 0
          0.028522305317684214 0.010923604515085566 0 -0.017133684176248727 -0.013593217273823576 0
          0.6390871903727121 0.42471182228907506 0 0.9488511861743578 -0.11902919993028829 0
          0.6869600828673104 -0.14060392864056398 0 0.6363319756706121 0.5154032605272313 0
          1.151794271214222 0.26859922631279254 0 0.49240896456950495 -0.24351188499378193 0
          1.0105349264615553 0 0 -0.014307819374444652 -0.021575160794900666 0
          0.8834825498721682 -0.18976892256428102 0 0.4896539287119554 0.20770480581252673 0
          0.6848238942377552 0.11152876568300425 0 0.9833334003403327 -0.2778721038669299 0
          0.525355752683111 -0.19277718373848415 0 0.871759934860261 0.015276592394926633 0
          0.22580759117117646 -0.01330128229425713 0 0.8866475663457289 0.3810937198566208 0
          0.5263064176583854 0.16959938576902117 0 0.7873716410147223 -0.2537222525334522 0
          0.43470301607341577 -0.009607245348212739 0 0.8937954964846725 0.18256575782735923 0
          0.7965275009686944 0.23458365107317358 0 1.0053436497203372 0.2589113408908833 0
          0.9343301655613699 0.010472147133275433 0 0.9434108461908615 -0.06926328151397175 0
          0.8694213242107806 -0.13057950178955188 0 0.9823430624730745 0.09398948059038753 0
          0.9206698047025094 -0.0512760991618928 0 0.7371211309928196 -0.0023337611628585575 0
          0.8791030473776033 0.126517314356583 0 0.9970715037630024 0 0
          0.874632984346881 0.03876953156282926 0 0.9402374466487452 0.04387140922379121 0
          0.9407858804013717 0 0 0.9534335056468499 -0.0058488290735917966 0
          0.9172670016454836 -0.0017448331008443224 0 0.9444814133891112 -0.029290489971440237 0
          0.8792802776604652 -0.02237236922666975 0 0.9584583039983414 -0.07357563547126855 0
          0.9257248146786253 0.024152396390130546 0 0.9674434814717647 0.04971241049403724 0
          0.8899074994073433 0.021887110169797556 0 0.9847535503371126 0 0
          0.9763718837163604 0.07699835018340646 0 0.9409124692705083 -0.012075543911412651 0
          0.9342107468140528 -0.0012588138901890634 0 0.9584174025499766 -0.02723606882291524 0
          0.8881352680788452 0.00467098572339876 0 0.9660539799612695 0.022485547392180838 0
          1.0000000000346712 0 0 1.0000000000346712 0 0
          1.0000000000346712 0 0 0.9544756321334626 -0.0011005623399449507 0
          0.9191677444507232 0.015051493402624657 0 1.0000000000346712 0 0
          1.0000000000346712 0 0 0.9664770355538176 0 0
          1.0000000000346712 0 0 1.0000000000346712 0 0
          1.0000000000346712 0 0 1.0000000000346712 0 0
          0.3875447170574113 -0.0021962320835937645 0 0.4974748434682701 -0.06830537154062484 0
          0.9337098606529484 -0.0704950936802795 0 0.6421989266306375 -0.061824817863905555 0
          0.8459042352568735 -0.0737338527551845 0 1.0410687314068428 -0.06890039093916021 0
          1.0070453260579861 -0.01600732517204707 0 1.0574363268712872 -0.057600405560886934 0
          1.0755730587791996 -0.04933814879946062 0 0.8620884398123524 -0.011497254223024318 0
          0.9378184001402499 -0.009021992807180418 0 1.0181777602524107 -0.056098753791065936 0
          1.0383758001114063 0.056984255218327375 0 0.9866347969451232 0.1091716056494546 0
          0.9175000379510246 0.07471504169938599 0 0.6453628631603919 0.059968517806871235 0
          0.8331038190332022 0.07578812386858057 0 0.9915059947409137 0.07602991394526488 0
          0.9534870299567851 0.024314367620201675 0 0.9950506987311485 0.04981876544311337 0
          0.9837791879302459 0 0 0.9725181078645623 0.011179732571733773 0
          1.0125792606117316 0 0 0.9140272343835243 -0.009396476804885423 0
          <InformationKey name="L2_NORM_RANGE" location="vtkDataArray" length="2">
            <Value index="0">
              0
            </Value>
            <Value index="1">
              1.4658372292
            </Value>
          </InformationKey>
        </DataArray>
        <DataArray type="Float64" Name="Pressure" format="ascii" RangeMin="-0.05356647095823304" RangeMax="0.940016603627428">
          0.423838019849642 0.42663133468890924 0.39496526043977753 0.410082137015784 0.41467320218987697 0.38678166539786346
          0.3912811488325304 0.4161429613977623 0.4158921828197286 0.41218572310155 0.39241753248862815 0.40519562353818267
          0.4021797549156241 0.4044346244536108 0.4205231595084805 0.41765604643129817 0.40579514062861205 0.39229648255321137
          0.405232788880011 0.3726473403454386 0.37546697350456065 0.38479001827532694 0.40556661661430427 0.39382942054260367
          0.3938947218555991 0.36494986052685907 0.3935754594047533 0.3902894279718507 0.37828632777874077 0.3536178582999715
          0.36331457711306686 0.3976534332432473 0.3789676535562048 0.3575495808216649 0.36685929328538863 0.369332382321645
          0.33934280215619456 0.3534785956455572 0.37824532767904534 0.36842400798136066 0.3645641238789477 0.4017131763318786
          0.3990374383861595 0.35412962786509705 0.3306676456965254 0.32366918721043464 0.3422280479564536 0.37935960494351467
          0.3273345624292607 0.3567904246832179 0.34118087248885004 0.33944205302725644 0.30017601800126215 0.31971785465403707
          0.3317702143697607 0.30463856865875966 0.319129731913967 0.3205181566873643 0.3911534167680228 0.3046365730192424
          0.29265471784500063 0.3620547464889623 0.39516005136842036 0.2656601968038954 0.3240348941320048 0.2926293093128514
          0.3036998090547548 0.26876038523681206 0.28940720790106944 0.2937251837061622 0.2949211291094181 0.44270726579563413
          0.4391908430637922 0.2519079026199525 0.3733619853201749 0.2869221581296737 0.25768588011754195 0.22890428075119124
          0.30463256731618077 0.42615859414254104 0.3290451502170862 0.2531376392021491 0.2695279482839327 0.2567364803842096
          0.23321139162238877 0.25372683600540274 0.21033558731348276 0.384222831309837 0.2119624401537836 0.2692849799048853
          0.3063924568992705 0.21143512487540586 0.4141056082079038 0.18444954544617692 0.3436713027989466 0.23144901825035338
          0.214109481063274 0.21227285290882256 0.1668404319292972 0.207447814068946 0.17249653754868643 0.16968973553279765
          0.12736395037438336 0.23095267220638196 0.2893189899606519 0.12429249037842076 0.13607969042099602 0.18286594850444796
          0.40914197283873865 0.10756474481980086 0.426917787427666 0.12441351263259028 0.15071311720882083 0.1670972031834473
          0.10775487846946419 0.1151640549680457 0.1643408537757301 0.20254298561904752 0.1413334680599648 0.18704681573006532
          0.1366818331677016 0.14090135097363332 0.40474081145439655 0.15282019215022424 0.12464223790895185 0.154027684494907
          0.16076266285719681 0.2235773032617864 0.1803665665691621 0.46110904256009044 0.16301246918824597 0.15610699720680143
          0.18206800386573224 0.45625762162216593 0.1549044559948303 0.15476531867465992 0.14661498412974716 0.19389044544377387
          0.11878624890962473 0.23609781208516062 0.44222633880531337 0.15581062057282172 0.39181331638665196 0.16080147435818223
          0.1064834216778922 0.19145456419546963 0.08467961789337629 0.42874569356394954 0.08703541146589638 0.12486883364358665
          0.1556691731573999 0.14969590248442316 0.14463989560536472 0.05368807326002688 0.4264774994190145 0.07074883193789079
          0.029402951163745156 0.1597523633073075 0.030716842213879395 0.12202191034026058 0.09784934539395887 0.10468439570678065
          0.11554426793229344 0.043707523702776425 -0.04215571420581155 0.08660219089949901 -0.023582759534157883 0.3121812247073048
          0.004566187093391242 0.06891912736671742 0.09920820679347334 0.032929727885742326 0.43959553505165805 0.05561729209322144
          0.18179130715641695 -0.02903292874638076 0.05707645478360703 -0.045931618105809355 0.029055447092050636 -0.03570335463228637
          -0.04363167094230272 0.058389131893398866 -0.014737576667309533 0.11907554674145825 -0.03447736610478013 0.005115282114327242
          -0.04348372630510415 -0.02814828817977211 0.20682210058838327 0.0907514919907719 -0.04920360227222968 0.09153164129029834
          -0.03413558838624966 0.0526090241343431 0.18127272935967562 0.31637800494722257 -0.02117362533834879 0.22378801022934086
          -0.05356647095823304 0.554221316664002 0.45156017804816584 0.37284552198192056 0.07070139187039619 0.5724663449521825
          0.09056272359318361 0.4278605317053982 0.21425229691878825 0.8531482927180722 0.6193487350642216 0.4735821967218926
          0.2281015165001069 0.4623866185290036 0.8889854687513603 0.906668306311957 0.8086413443015559 0.6449434036794894
          0.940016603627428 0.4358277739559952 0.6181422607738709 0.4348136429268232 0.7759273803998603 0.38559887658074554
          0.8926237846690404 0.5679503999878429 0.9333090280712534 0.822452609222712 0.820560645216052 0.498006747070172
          0.772007313441833 0.6800347440576452 0.43924331466797656 0.8862312281801314 0.45456601890449216 0.8834671387431104
          0.6552719812155038 0.9198049813883477 0.8187455000528396 0.5372242312902991 0.8366157190319664 0.4550512104555589
          0.8492828639664807 0.5762519606798431 0.863472944197741 0.7251618503790599 0.8430863868927134 0.6526671403223795
          0.7356303275876749 0.5512512695068976 0.47233394209533036 0.5078681665229721 0.6655054457017128 0.5135567522351603
          0.5598618578276828 0.722371113871127 0.6769812872687806 0.47588534997041726 0.4427469999340781 0.5797407621268423
          0.4125697086862835 0.4488132926584563 0.6329047800434643 0.4792346173884896 0.5904039958078967 0.4999240828564947
          0.4802922390645617 0.525382484293569 0.600285305026386 0.4908062988290178 0.5419388518010647 0.3678903105214848
          0.4858771827364224 0.39858964924383045 0.49953160626820137 0.44356793573350545 0 0
          0 0.4216754698992186 0.45630720215426984 0 0 0.4396327176647292
          0 0 0 0 0.43018487531695704 0.42538493608036687
          0.41640039412231766 0.42480886090015596 0.41879888206653415 0.4099213330887487 0.3980940012719593 0.4075008221828332
          0.3999828943151109 0.4033088421052444 0.39747652337616096 0.4008223575360943 0.39739636915457965 0.4001698479500085
          0.4133552029780569 0.4222551233399285 0.41582197069159604 0.4075355684847496 0.3978340535042771 0.3960937157274103
          0.4036436595301031 0.4034368330454747 0.40943631093704197 0.41060447152887275
        </DataArray>
        <DataArray type="Float64" Name="Temperature" format="ascii" RangeMin="-4.7105193059962405" RangeMax="154.99510168647473">
          47.055896368603086 34.967368961555195 80.18042691563564 63.719979617856275 46.12390001117404 79.26415648739592
          79.59473449261425 36.48813648078867 41.820558529567364 55.535410131723545 75.35327887804767 54.05758050663846
          42.846996318248394 47.79525019787571 111.91844332510968 87.24974035060889 37.454843945337714 62.07436556052808
          44.274347113383364 81.51916319928004 81.00190341222053 80.97712752263068 83.10693394623405 58.7848609816245
          56.101025524075304 75.48400327164514 47.683851820981005 36.68264815760243 47.05049514759368 80.4524748717519
          61.016239874235495 42.00469425575748 44.69142257969144 81.71416268980177 81.06239857603067 38.04506171063703
          68.96694287626795 46.25067470803141 53.902287255359056 61.99240084560479 57.10648593480008 63.01962346993592
          81.69488128173077 44.730373005802946 54.70286774241539 76.67515894411517 37.718958826554775 44.12803986678603
          82.44580106244369 60.44487844826517 62.464287675490816 81.88648921251158 63.07587101855472 42.3858126296313
          53.06786596003716 75.92461132391486 38.64674696443342 41.923598619848974 43.28022577996638 81.921470169741
          49.02597960448545 49.996434249833335 79.73826314394016 59.60846591646435 64.9150160102509 42.10819458777953
          60.167949950061356 75.22197121777883 39.18993344319255 42.16329193425019 49.10375769315216 111.03849421287232
          85.16313698819974 49.583560118402836 42.081977070052 82.09748785769764 41.8841648640278 59.456468653516055
          66.53665630718588 80.61226414210824 57.66784815830627 39.27031371377077 58.29812119660393 42.5914803326194
          78.51840525267292 50.725682520937745 49.60656198122184 78.34178374604757 42.659975156008 67.77926417961065
          58.275115621301616 39.1125186906684 109.65957755394896 61.70043247276251 45.43762277758355 58.479466044803516
          44.45753809062594 51.71563462065852 41.55008606359191 82.21807588543575 39.35056947429002 44.550248013984465
          48.816329509531194 69.35428189518949 55.322570890135246 38.78425837342769 56.34202210257847 59.810533075825695
          68.39190462838582 35.96175949962768 147.1653905269538 52.45012651465563 62.02608080913546 37.04298738247131
          36.83705886885275 37.62798035534578 65.5367514447113 69.62552253043245 34.863697227582755 36.13369964246863
          57.64190631741804 35.41457475136078 51.897813288917575 46.41339688951575 38.10811302340313 35.29992487074812
          67.36168021213237 32.83928636235403 32.273098189335755 101.70861948685199 57.8317553396162 63.00176553630668
          32.58099868910803 77.13702063771224 43.830235302321086 35.97161013447892 47.67699262251447 32.686846792017334
          58.4988658405129 30.632901608904874 78.33346749238493 36.51015820143028 41.935870459214755 63.25649801851993
          53.181969401923624 33.31995385428576 56.56461508442026 129.32558742158625 59.688495962194224 45.53619709170671
          37.41456617915642 45.55342143018709 59.15763901483552 59.09612434794751 67.12533046380878 54.16229368092941
          56.99462803267657 63.428537814247484 58.803984741356594 47.67114835755808 59.580012099428835 56.046522529033595
          60.96239016952882 58.68148669077727 58.40386097717067 59.9706121643969 58.93298786576346 86.86298126163653
          58.94290756164336 57.5582736749633 62.25938444479135 60.55017199218359 119.5655836772334 62.481751636282745
          59.5853039497245 58.97993308592117 58.692226700323516 59.362585539412706 62.32093633186827 58.72894864781933
          62.035530350143226 61.875453001393744 62.559369758083015 61.67795917284948 60.46289696478138 62.418844571166325
          60.39208646909554 62.72521865378379 56.86486914329183 58.216702429091654 62.789899859632314 62.24422912506608
          62.28335288226306 61.35507056404513 60.51157831379976 67.24644121177732 63.558504896421724 58.86174000119278
          63.46389915127971 61.808924829523264 154.99510168647473 55.15121867101857 64.9199118847687 61.04580122343273
          61.27945388530692 64.67951186326724 59.29124044594959 63.47412599071544 64.6717801354704 85.86030773038712
          62.05189659479544 62.24313620045475 65.26534950249001 65.890612864836 68.65409945144623 54.211799585544334
          67.39146920536967 33.030036781451905 63.772174266654126 66.14694028503558 59.19642868092097 58.19035996191323
          65.46232350639627 59.87561447892505 67.19831005104015 65.34070109188328 61.72541558877815 45.79025548643131
          51.18259732564314 58.27035239031504 56.88084614172655 60.243468691596675 129.183829880266 61.21301436301408
          56.72116287638009 62.73882897965044 54.59478956595109 90.84609306843541 55.26296743038113 110.88313397639922
          60.97495857807606 52.82421819007346 58.61567368218891 48.63083763172242 60.36210485635189 50.9008549858361
          49.264274223156086 61.00211119127342 146.84644046774358 28.776173094926374 45.48210596664614 23.066311762887345
          73.79706539307224 52.58414999460799 40.64862873736295 117.25444879523121 93.7454327149532 33.228120602453295
          53.356147042683524 33.41393852697844 47.28557210074317 39.08107447907949 40.154324868247066 50.42003645376795
          126.47385118330104 25.70824995872528 32.47228727874693 97.49441439900698 21.404624270709334 2.404479756768812
          21.345701988230733 34.06489372556373 45.751591912117576 17.120769328637188 0 0
          0 -4.7105193059962405 78.1109112698128 0 0 54.57165843430828
          0 0 0 0 32.106397138543805 42.16199255088702
          50.0990232229299 42.63846365504117 53.53146717163378 47.09147561990428 39.70414129282912 42.79209465703701
          42.012071030169814 93.63463847955879 60.35158573963762 52.900109600493224 77.56867429305593 75.79660519283058
          65.71744181122405 49.6826324668188 65.03087158751192 73.2079532360437 79.60549604870482 77.75305459945861
          102.8964821933724 81.24155501974174 122.71207204444471 131.8602604746934
        </DataArray>
      </PointData>
      <CellData>
        <DataArray type="UInt8" Name="vtkGhostType" format="ascii" RangeMin="0" RangeMax="1">
          0 0 1 0 0 1
          1 1 1 0 0 1
          0 1 1 1 1 1
          1 1 1 0 0 0
          0 0 0 0 0 0
          0 0 0 0 0 0
          0 0 0 0 0 0
          0 0 0 0 0 0
          0 0 0 0 0 0
          0 0 0 0 0 0
          0 0 0 0 1 1
          1 1 0 0 0 0
          0 0 0 0 0 0
          0 0 0 0 0 0
          0 0 0 0 0 0
          0 0 0 0 0 0
          0 0 0 0 0 0
          0 0 0 0 0 0
          0 0 0 0 0 0
          0 0 0 0 0 0
          0 0 0 0 0 0
          0 0 0 0 0 0
          0 0 0 0 0 0
          0 0
        </DataArray>
      </CellData>
      <Points>
        <DataArray type="Float32" Name="Points" NumberOfComponents="3" format="ascii" RangeMin="0" RangeMax="1.920937301017636">
          1.4974470138549805 -0.05740142986178398 0 1.4958950281143188 0 0
          1.3696999549865723 -0.5396580100059509 0 1.4293919801712036 -0.11480289697647095 0
          1.427839994430542 -0.05740142986178398 0 1.3829339742660522 -0.29485228657722473 0
          1.3682019710540771 -0.38214409351348877 0 1.4262880086898804 0 0
          1.4278310537338257 0.05740255117416382 0 1.4293750524520874 0.11480510234832764 0
          1.3648350238800049 -0.18495939671993256 0 1.4474730491638184 0.22469249367713928 0
          1.4655719995498657 0.33457979559898376 0 1.3691669702529907 -0.05740142986178398 0
          1.25 -1.2000000476837158 0 1.25 -0.949999988079071 0
          1.367614984512329 0 0 1.3444969654083252 -0.10870400071144104 0
          1.3691580295562744 0.05740255117416382 0 1.3002779483795166 -0.25511598587036133 0
          1.285544991493225 -0.34240779280662537 0 1.27081298828125 -0.4296995997428894 0
          1.234292984008789 -0.6748082041740417 0 1.364791989326477 0.1849427968263626 0
          1.3444880247116089 0.10870510339736938 0 1.27993905544281 -0.178860604763031 0
          1.382891058921814 0.29483020305633545 0 1.3089410066604614 0 0
          1.284271001815796 -0.051302578300237656 0 1.2393720149993896 -0.21663780510425568 0
          1.2596009969711304 -0.10260520130395889 0 1.3681819438934326 0.382138192653656 0
          1.284271001815796 0.051302578300237656 0 1.214534044265747 -0.2855753004550934 0
          1.199800968170166 -0.37286698818206787 0 1.2596009969711304 0 0
          1.21903395652771 -0.14038239419460297 0 1.2349309921264648 -0.051302578300237656 0
          1.3002099990844727 0.2550804913043976 0 1.2799060344696045 0.17884290218353271 0
          1.2596009969711304 0.10260520130395889 0 1.3696190118789673 0.5403494238853455 0
          1.1354060173034668 -0.5648497939109802 0 1.2349309921264648 0.051302578300237656 0
          1.1978299617767334 -0.08577834814786911 0 1.1784659624099731 -0.17815950512886047 0
          1.2102609872817993 0 0 1.2855010032653809 0.3423886001110077 0
          1.1536279916763306 -0.24709700047969818 0 1.2393289804458618 0.21660220623016357 0
          1.2190239429473877 0.14036449790000916 0 1.128790020942688 -0.3160344958305359 0
          1.1572630405426025 -0.1235554963350296 0 1.1731599569320679 -0.034475769847631454 0
          1.197829008102417 0.08577045053243637 0 1.1382579803466797 -0.17358939349651337 0