<?xml version="1.0"?>
<VTKFile type="UnstructuredGrid" version="0.1" byte_order="LittleEndian" header_type="UInt32" compressor="vtkZLibDataCompressor">
  <UnstructuredGrid>
    <Piece NumberOfPoints="310" NumberOfCells="140">
      <PointData>
        <DataArray type="Float64" Name="Velocity" NumberOfComponents="3" format="ascii" RangeMin="0" RangeMax="1.3174831458251786">
          0.5675692230449659 0.04842706699221427 0 0.4636277159842595 0.00734730612959976 0
          0.8237483017015351 0.02642982323760937 0 0.6726609508927086 0.07529374098214989 0
          0.5195766426744257 0.03788934022257124 0 0.8436950963988904 0.06198209012182576 0
          0.8310889196550522 0.04914650758825541 0 0.4250156927803487 0.007487693767782536 0
          0.5022317790055026 -0.02379036695593595 0 0.6603450293567885 -0.06386322089684768 0
          0.7667088439017522 0.0829136090728737 0 0.812843506544712 -0.06085617390190761 0
          0.8546549525826342 -0.03085465766545623 0 0.4753612841712932 0.05591217566274 0
          0.8192032275985428 0 0 0.811535672854434 0.008179735091040193 0
          0.3875986308027219 0.007560949085443729 0 0.6336711531713812 0.08162024653909428 0
          0.45630846534136876 -0.04156474531904612 0 0.8468814051001107 0.06609222919440091 0
          0.8509896889255618 0.05892099615259268 0 0.8490361012848161 0.03957222953277212 0
          0.788850689366967 0.013975384034590409 0 0.7780434315135066 -0.07133445180396773 0
          0.6172272591100115 -0.06758254909440944 0 0.7738496043780988 0.1048106916865427 0
          0.8766888853843613 -0.04336500193563698 0 0.331805787859106 0.006777457397816381 0
          0.3976064067484884 0.06286479638224275 0 0.8504540344730253 0.09778153408460852 0
          0.581548120483544 0.09850919868191099 0 0.8642962523658719 -0.025487531029694466 0
          0.3798160812776655 -0.04867416302844946 0 0.8674142526560211 0.08431530528726924 0
          0.8753285726109411 0.05285387283756926 0 0.26686315233350993 0.006815033479955987 0
          0.6866222415479667 0.12025895641236697 0 0.3531321821578757 0.06604529925977998 0
          0.8800494500624902 -0.05298388929744385 0 0.7814493362545004 -0.08963948139599771 0
          0.5637675855373434 -0.08372156118386287 0 0.8251209322556455 0.004487417243290084 0
          0.8404659841554318 0.02206639852224871 0 0.3359070785962617 -0.05272516131762601 0
          0.46251364702484443 0.09897107119188493 0 0.8040902954468924 0.10559339001731852 0
          0.19848703965494174 0.006105569030614399 0 0.8928031229085324 -0.039023912091570585 0
          0.8850408402355144 0.0964399594701234 0 0.8698408593537759 -0.08349961333407528 0
          0.681530731082561 -0.10686975429290504 0 0.9055736351077147 0.05718943056219534 0
          0.6192852752142695 0.12093347452174119 0 0.23166412929361024 0.050434641951421666 0
          0.44302172278614776 -0.08635242095194072 0 0.8110413217804167 0.12736214044131322 0
          0.1372969803483889 0.0058598081974882595 0 0.21853963506252697 -0.03753907668196904 0
          0.8835143045419243 -0.011556263108816536 0 0.9013745275571907 0.08648370107280903 0
          0.32227499927828795 0.10083019714327053 0 0.9101717196470538 -0.06748399603174618 0
          0.8600807882956719 0.014746056700836879 0 0.5866535065146574 0.1499965938265762 0
          0.8120516228668451 -0.09358630110697704 0 0.1837337286628609 0.07028557602701056 0
          0.6084167878195789 -0.10673558756967459 0 0.8285981076080046 0.13303477680257839 0
          0.05087864034608429 0.004708229039117826 0 0.17310892739094674 -0.05922926131734762 0
          0.3028866500500986 -0.08622828776695976 0 0.82054090815025 0 0
          0.8196795010156342 -0.00015816278068717243 0 0.33767939174996775 0.11856981201533592 0
          0.9217448916533814 -0.031712338885653196 0 0.9432527973515906 0.06617192685276187 0
          0.13156561025133526 0.07492869705346579 0 0.6298625335427813 0.12550142867055272 0
          0.8180517505971491 -0.11180678648285627 0 0.7937405865697593 0.006597793027490485 0
          0.9193468309939437 -0.07844553140438636 0 -0.03682942910309547 0.0022657553528649937 0
          0.5749267737533789 -0.13581318299853845 0 0.12262760462465457 -0.06927097701644921 0
          0.893397186401529 0.13164266241280898 0 0.3216364277261604 -0.10907112660610029 0
          0.3807673524666987 0.10758016802290346 0 0.8880955896282691 0.012044125574325746 0
          0.12630218912101232 0.08442137751348554 0 0.8339902089895851 -0.12063645077185128 0
          0.9360023525443038 -0.07074792648907738 0 -0.13249162815824153 0.002355574291548208 0
          0.6915711380835535 0.013221719077647224 0 0.6986043865802494 0.12029014625236052 0
          0.9538214849722616 -0.03627708437988273 0 0.6216257224691557 -0.11459626790673906 0
          0.1179109646029087 -0.07864471549944985 0 0.36782329118325163 -0.09868197333169719 0
          0.07943970109976056 0.12073895500351906 0 0.9833290019767278 0.06000081341352864 0
          -0.22098647656205317 -0.00018638770536167276 0 0.07233233578110825 -0.12009070138309172 0
          0.45845464358096044 0.13030582143019767 0 0.9087462521530676 -0.11617420532521275 0
          0.985179090673986 -0.048020322827460396 0 -0.3357243332220718 -0.0002374332065657408 0
          0.6663923916583849 0.15064968004413015 0 0.6979696161527553 -0.10559197381870206 0
          0.8283934380827814 0.004577619515949044 0 -0.08706528302230522 -0.08169224803819908 0
          0.7510338363570391 -0.011078771897510328 0 0.45457470284995133 -0.12779747867469668 0
          0.8528486171797564 0.059802350847563156 0 -0.22458379158324063 0.002153464964165216 0
          -0.0928403745723526 0.08709123352872353 0 0.12203628913219118 -0.015389489639169973 0
          1.023275564129825 0.0003800407706138757 0 1.0083357422892854 -0.04132222284797747 0
          -0.07808319202362715 -0.0703146357763145 0 -0.12087539732239402 0.0036757601319335983 0
          0.6720384966588998 -0.1435347330730062 0 -0.08262521116705368 0.07839146535350955 0
          0.8768567416903778 0.01320423305601751 0 0.23259386183526914 -0.012057644466676247 0
          0.115392152748813 0.026593955981594055 0 -0.0026989176187417964 -0.09157832125995767 0
          1.084932653836593 -0.052356284483763414 0 -0.029483824327085524 0.0032217439779233348 0
          -0.047028685748985465 -0.05808610916426618 0 0.819736672131109 0 0
          0.35737897838663 0.10704191455731159 0 0.8681436640372234 -0.049950949307618016 0
          -0.04936937834050776 0.0648476279218726 0 0.8237215313844183 -0.0028794211898293225 0
          0.04078269518250333 -0.005359430522330526 0 -0.005700237415477257 0.10132898196096796 0
          0.22582403988975192 0.025384412956777788 0 0 0 0
          0.653084823726545 0.0637195126523037 0 0 0 0
          0.8049352715825823 -0.004314826968105545 0 0 0 0
          0.9280592698621567 0.012048977715416638 0 1.0502310506162853 0.011677375218216142 0
          0.12082205829120744 0.03780132435492996 0 0 0 0
          0.36118838544028503 0.041391849391681904 0 0.8218393801865633 0 0
          0.9419962377545298 -0.00463104466041014 0 0 0 0
          0 0 0 0.037954115639267406 0.009186661775813261 0
          0.350653650560693 -0.09925055889630031 0 0.7098265220760229 0.003956352532213941 0
          0.8548748483221374 -0.04770501989249338 0 0 0 0
          0.10165555992315854 0.021731023557491708 0 1.1217370401440614 0.06524688552413994 0
          0.4090310897558506 0.020807201837947445 0 0 0 0
          1.1593525299485177 -0.08726999716025081 0 0.1178112970297037 -0.035104769175094 0
          0.6559675155767487 -0.056567040415040515 0 0.8275896300056576 -0.033070385011240704 0
          0 0 0 0.3592077340365889 -0.037829508922387255 0
          0.21981452131109666 0.015202546225409482 0 0.984152486253018 -0.1425656081866434 0
          0.5450515320297831 -0.002435601260372964 0 0 0 0
          0.9577286300434226 0.012310651911914118 0 0.10125356303232985 -0.021173007185437662 0
          0.6612191342961191 0.009909831288126397 0 0.7181690317055982 0.00009180684540225336 0
          1.2757977460800438 -0.16015218762430405 0 0 0 0
          1.0797933770319041 -0.13195370613619123 0 0.34765616128976623 -0.01810207466757215 0
          0.4110737928527177 -0.019272603501438036 0 0.7308499909817766 -0.05869974717195344 0
          0 0 0 0.8430658160730173 0.03774677260840851 0
          0.22165829045662463 -0.015012185917162166 0 1.184003052786838 0.09528420583230943 0
          0 0 0 0.5528762991851731 0.004070053614945191 0
          0.23617139245941068 -0.06334165099162778 0 0 0 0
          1.0816699524905835 -0.31698874475794775 0 0.8297262284162684 -0.3236253179239863 0
          0.3536859771499624 0.01863829741239042 0 0 0 0
          0.7455099503529968 0.060398052822712205 0 1.104488832006685 0.1361784595547207 0
          1.3069267023640498 0.16644649044434293 0 1.0242404869288215 0.1499926282508538 0
          0 0 0 0.5754795078734863 -0.3833440805467207 0
          0.24030866784425875 0.06414613017327271 0 0 0 0
          0.7558082984617052 0.004453601938893183 0 0.7547523830640291 -0.5123468097943615 0
          0 0 0 0.43881147068474396 -0.47509582517322757 0
          0.8466452327671183 0.32574108985409034 0 1.0024031348125442 -0.2299480861456894 0
          1.105305011130857 0.3174603857352693 0 0 0 0
          0 0 0 0.8202282048140647 0 0
          0.5814094816644721 0.3842495463698259 0 0.825729702513004 -0.012080668477538204 0
          0 0 0 0 0 0
          0 0 0 0.5655340419540749 -0.48922234397066056 0
          0 0 0 0.9006102432259893 0.07544534248434016 0
          0.43932992702895535 0.4713877496220395 0 0.8065612370262666 -0.03789214616715348 0
          0.5429582912461485 -0.40485464482601596 0 0.7632228777701914 0.5051619390259452 0
          0.04617329068176265 -0.05126549991831385 0 0.7395896875221163 -0.3581202755168986 0
          0.04072101609035532 0.029641824224921526 0 -0.005996034309922034 -0.012353540052441962 0
          0.54186556794906 0.38454133293035386 0 0.7790073626224057 -0.10229893565160107 0
          0.5917338599099861 -0.13637259866424412 0 0.5661230247063712 0.47244771220236004 0
          1.0470163202698892 0.2270028280895412 0 0.4300481005002089 -0.21163923922488787 0
          0.8247370011711846 0 0 0.02609075928112796 -0.02041306437808079 0
          0.7658350169520598 -0.16316620246750796 0 0.42817027287797593 0.17764056540840417 0
          0.5968132112136402 0.11068533039435853 0 0.8689448119011784 -0.26103589477611283 0
          0.4586472563143798 -0.15492370603518832 0 0.642181279092731 0.014441189254726995 0
          0.22485506444942474 -0.012920588782812414 0 0.785367622718953 0.3457341396126485 0
          0.46139121164817465 0.13299183454392738 0 0.6837653715470604 -0.22644202750135894 0
          0.3882805609098582 -0.010007096762879647 0 0.79594425224404 0.15544999872290238 0
          0.7044874481165186 0.20872542665175073 0 0.9328777090269643 0.24791335553156682 0
          0.760370745523772 -0.008916626118136161 0 0.7734080353814224 -0.04751575452957631 0
          0.7665657802076498 -0.11929934830905023 0 0.8283365300496331 0.1115448718351432 0
          0.8023812978740056 -0.03455414785907644 0 0.6574325807369045 -0.00048543837422414384 0
          0.7927667031285847 0.12184666768279473 0 0.8287824381495176 0 0
          0.6276523669645644 0.041296155719696345 0 0.8849160684469827 0.045099544258893565 0
          0.8416219078698213 0 0 0.8409851413605309 -0.01108773282089598 0
          0.8278614613893801 -0.003152243918539896 0 0.8109176457738624 -0.018247796447405783 0
          0.7700048690598554 -0.012734094534475639 0 0.8420523182036197 -0.053005827801406696 0
          0.7559553477788326 0.010579542706520442 0 0.8021983541504607 0.06245260653813219 0
          0.8190431082633217 0.01978703862495167 0 0.8471086958579104 0 0
          0.9265163441379493 0.061302407387321164 0 0.8240441964694782 0.014811066412870316 0
          0.8583338884982884 0.013396787787960975 0 0.8774947631432873 -0.007590481400594615 0
          0.6671293690511488 0.006295784316710704 0 0.91002024713556 0.024082235032176744 0
          0.999999997765626 0 0 0.999999997765626 0 0
          0.999999997765626 0 0 0.8876433896030057 -0.029727487144194792 0
          0.7643708257806957 0.022437758555941267 0 0.999999997765626 0 0
          0.999999997765626 0 0 0.869864385182324 0 0
          0.999999997765626 0 0 0.999999997765626 0 0
          0.999999997765626 0 0 0.999999997765626 0 0
          0.5148042433692693 0.007888952966337941 0 0.5523268824312506 -0.03455556911218588 0
          0.7577005622293926 -0.033531818352383176 0 0.6287506660921058 -0.029837100025846643 0
          0.7203835288838475 -0.03953031865678114 0 0.8157246219166923 -0.03214779061855573 0
          0.8050514181076219 0.001938737575048271 0 0.8248038144029515 -0.026689009909245283 0
          0.846003177732884 -0.017132615899155934 0 0.7156005442170476 0.009660606910554035 0
          0.7743510590288322 0.015835897965898252 0 0.8291652924126339 -0.02137877980662291 0
          0.8221601317892219 0.04690051718768149 0 0.7951344223574621 0.07393716087823832 0
          0.7595175192045153 0.04678920156750999 0 0.6424472403659307 0.041801194223229976 0
          0.7256356774350445 0.05270787067145736 0 0.7957836718211463 0.04923963893004924 0
          0.7837652725695073 0.018791001321084255 0 0.8166761347237498 0.03820359801952256 0
          0.8100579091059512 0 0 0.8019972844117815 0.012337062876196063 0
          0.8047075135281628 0 0 0.753449233502479 -0.005451729115825644 0
          <InformationKey name="L2_NORM_RANGE" location="vtkDataArray" length="2">
            <Value index="0">
              0
            </Value>
            <Value index="1">
              1.3174831458
            </Value>
          </InformationKey>
        </DataArray>
        <DataArray type="Float64" Name="Pressure" format="ascii" RangeMin="0" RangeMax="1.7443566378028457">
          1.2296896163986504 1.2321202447024622 1.2342555826020283 1.2383992171653002 1.2415416807926831 1.2327429272685824
          1.235093025171359 1.2431817388158515 1.2432805106244813 1.2415977693756486 1.2426417915345676 1.2335684874935215
          1.2279923261157732 1.2508634512144807 1.266948875895812 1.2652326938553105 1.2525693593635827 1.2498010057553817
          1.2526114657481462 1.24313090792797 1.2430215912960159 1.2480815840201211 1.2620074419591976 1.2473516360415202
          1.2532408860687374 1.248013380707055 1.2413104698131807 1.2605696564976554 1.2594091112469976 1.2472237703103872
          1.2556095125863527 1.2446052906429956 1.2610600906519918 1.248407800712101 1.2516441883341092 1.2626935213966222
          1.2507872419246575 1.259499704308281 1.2512660239523803 1.2538849379604413 1.2590619324113141 1.2451105561019342
          1.2762876561476266 1.2613620897433813 1.2541210783080476 1.2453609875453304 1.2609905846306309 1.2517226972083417
          1.2443224770902666 1.2542866163917556 1.2552099599655424 1.2484407889349909 1.2420991167561797 1.2559109854776151
          1.257203470936658 1.2405020242072011 1.2576287269901343 1.2574080514052848 1.2590868090241387 1.2353440386218788
          1.244510528845973 1.257056219241704 1.28557125289367 1.2310576899228296 1.250205182185899 1.248183260936061
          1.2470980420005087 1.2261826301015262 1.2483302572184842 1.249784434669778 1.2476191144922355 1.3185268507919061
          1.3161686082527868 1.2273482223555494 1.2624939971428424 1.2227929762552958 1.2332164479443088 1.2122164733282035
          1.245279167107085 1.3087747979746664 1.2509350387069607 1.2310401211103543 1.235352699277066 1.2335502471257696
          1.202776556980546 1.2304503640503872 1.2050939580984918 1.2882650403967544 1.2092272921568894 1.2308116365001356
          1.241773013223765 1.2096118183397935 1.2742712643218426 1.1826826828704915 1.2576051941221758 1.2166586155343178
          1.212180273484922 1.2086635258366576 1.1832105279859142 1.170818601287258 1.1848354068914284 1.1870204911687148
          1.1576129646883626 1.2050465897361908 1.2292418590567826 1.1530420276162991 1.147448862495251 1.1848423188255595
          1.2892270756592237 1.1394478799123289 1.279581390305246 1.1600839885796908 1.1374904339690455 1.161749729266362
          1.1421873008211996 1.1285981228445374 1.1385506933988494 1.169380682914823 1.1370861347393866 1.1567154462314841
          1.1515311196352083 1.139094741096176 1.2977407634775564 1.1195677095268557 1.1373865849891256 1.1240545439423297
          1.1225604460881045 1.1663817136948986 1.1411724335183455 1.352503503395843 1.092104119885497 1.1416261018493907
          1.144212421349856 1.3443676085938534 1.0976433791335611 1.1266141648091075 1.1188929968880583 1.1457213005028417
          1.052157400000652 1.170687895336611 1.330067310374127 1.1230370632145066 1.296950271433637 1.1337314369335516
          1.04163582839541 1.1466098480339442 1.0147615249537396 1.2803192451660632 1.0280846164790465 1.0639753990356595
          1.1250207706376962 1.0984420131367216 1.0883992724146927 0.9902962465477095 1.3335765762192207 0.9978630457759249
          0.9570569338746014 1.1214666408691225 0.966757324700608 1.0670408017380046 1.0467876362714332 1.0442829828887128
          1.0593186826184762 0.9943871680616422 0.907552296637566 1.0223915707782194 0.9333530811322186 1.2424947664730224
          0.9638978962020437 1.0008432340190663 1.0488435701297307 0.9627833003434887 1.3262644851552274 0.9952122360724281
          1.133045517940651 0.9375896265768523 1.0283053048599478 0.9319097017505958 0.9639146066965505 0.9534525180830359
          0.9065634907906037 1.0071206651278393 0.9391589162682085 1.0664063599924174 0.9797772949207535 0.9603215614669167
          0.9699210587757494 0.9299333403555176 1.1575343392022122 1.071963409007674 0.9184312350555245 1.081870140384679
          0.9452803828245712 1.0166720648771292 1.1251190116696663 1.2441748981923832 0.9919069926168189 1.179343368511529
          0.9544800501862828 1.4320335114973752 1.3348692095156494 1.2873369954487062 1.0563525707519064 1.4411713479248391
          1.0642951752403984 1.335109344082461 1.154433507165489 1.6566454621211784 1.4786948852854005 1.3628988442191228
          1.1747691177133062 1.3321305496193856 1.7074749652465793 1.6912330317921362 1.6456019321611803 1.5053518084790334
          1.7443566378028457 1.3380082822893227 1.471390658196957 1.2561662406033005 1.6085433779441094 1.290971460313186
          1.7131195797623224 1.4466271230705734 1.7411507519659404 1.6559262124235719 1.6388223430711022 1.382204217862392
          1.6121018444431339 1.5283569498855425 1.3389460069922667 1.703741414884198 1.335909331600673 1.7044508294466145
          1.5162916178781816 1.7292573870153416 1.6475853435647785 1.4148238767198407 1.6602982263853903 1.3426441550513477
          1.6684840760188322 1.450067869526077 1.6813450384257853 1.568265908687453 1.6592740582496033 1.5151178226105606
          1.5754198472304963 1.42451348715429 1.3689747382136537 1.3644059532620212 1.5123325269620875 1.3942794624542834
          1.4117913625478387 1.5630395793275762 1.5280811118344302 1.3714923059235757 1.2598388942663457 1.4328654133671468
          1.1462314921694907 1.2353208110428424 1.4522193499071008 1.2814665792781077 1.4056321178578268 1.2496634638190809
          1.358847446266656 1.3794117800994654 1.4144677439734932 1.3786090504497093 1.3253221380161722 0.9272484649523273
          1.1680324385732197 0.9701015930947977 1.2845978808082845 1.0763704772739355 0 0
          0 1.0408021407278745 1.2141405346306133 0 0 1.1854496250976805
          0 0 0 0 1.2175295682547125 1.2314500011279443
          1.195513562197564 1.2068775776199163 1.2196582288994746 1.2125567100337409 1.1756952144351451 1.1861947859051334
          1.2017129813396714 1.2268271623485094 1.200058976102121 1.2267110629412354 1.2207253822592534 1.227604277947048
          1.1924335578860827 1.2044161197471095 1.216116106816469 1.2079676743624466 1.2168825328610255 1.217701128921817
          1.2135308654844907 1.216592092450176 1.2241573800291425 1.2282785820752675
        </DataArray>
        <DataArray type="Float64" Name="Temperature" format="ascii" RangeMin="-18.17596022161923" RangeMax="182.2411972400946">
          22.13830445039546 15.8843337302718 55.65152489066755 34.014013035486656 23.044153573548275 50.33237120824171
          53.4043312962315 17.32257764649883 19.936223512573168 28.54135880358887 45.94346269392582 31.944002370064442
          28.446564485538815 25.092362503461125 85.6586357029362 64.71411732583842 18.288197879231422 36.22947613250638
          22.04218039527848 55.192912106071574 58.22767146435848 61.12414830513177 67.16883501923293 36.12698885847394
          31.26843787876339 50.423695003743035 33.042210698751326 18.581457194542338 26.40400468264743 57.07762143721855
          39.04105836323312 31.570631479792873 23.807243589675124 61.86379471392511 64.82605513449454 19.75108220429106
          48.277511518604875 27.03828048959611 38.76234713128125 41.354514072089266 34.704810886253256 44.452721461061415
          73.34537163111699 24.778766316160034 36.3074357540528 57.221179050572644 20.200267105709763 35.54132563359044
          64.84242165698718 44.19590575642848 42.4646281505018 68.84832184768432 46.74512433958204 25.04026178209169
          33.29690694748341 59.0562791761337 21.38014111825262 23.77073207381277 36.430050816693175 67.1691012765729
          32.96369435472403 40.965015119739476 77.28505653208967 46.344055724854556 48.55105673645045 25.36393696610882
          42.78903719134648 60.89435427088353 21.99373299431373 24.435340608402335 31.172806916050433 111.20047244849117
          82.69650765161809 35.50963082232584 37.76113790073028 71.18640978321412 25.8153715904271 48.63460574214077
          51.73103935095549 84.29419418567116 47.83596001850009 22.27255740101813 43.36134766892804 25.349687058120328
          66.57454152786606 34.33590927916783 37.89794123955516 80.60156042756267 27.68815148256879 54.78292618892216
          50.512634573654495 22.26068567948053 81.33257985183867 53.22253615215403 42.26172903235398 46.0016609284578
          27.690611858109698 37.43266092303526 27.3059020578183 72.72746749550066 21.50189327620466 28.055255281485707
          40.20280750551865 60.14014519678276 51.61224145756289 18.271611597722377 50.541939930367626 50.55104331931477
          62.463036417381595 22.3620071342822 94.9927223395855 41.01950148098401 56.286018196958196 18.8494587390569
          22.72446458469678 30.596858573825518 62.30364483394459 65.00912037677942 21.695833958609434 19.361940257217928
          50.426706689196195 22.012875784459144 53.29944396142319 37.88538147962129 31.45424706623596 27.030515516806695
          66.3772908382724 19.02527576615671 20.155373905925504 128.87113159128597 46.24814529490625 56.24011611267619
          20.38203950366627 94.30693524791288 34.977575393277405 27.778654569864123 39.960981271563696 21.123146393713565
          48.82897415927916 18.639362931873723 101.64499473371659 26.407501736408786 47.70989872767035 60.21618197116471
          42.22476406375437 21.5780871435673 46.100190178495566 91.09755274426001 53.22036873088932 35.12593990728533
          27.329032270601658 36.82441465586936 49.1587873818234 50.802702238796364 90.89477720583447 42.290259035712126
          45.43884507033333 63.355053859679224 48.62975095390628 37.24758343725259 55.72463869705209 45.43659292178292
          52.928479330074566 51.9676221467976 47.30223400558967 50.13230636185071 48.800850852335195 94.74918390013548
          50.35682302672562 45.826116377955465 57.539538745029475 49.544105986881846 113.5868690627103 55.501574881794895
          58.734091816027146 49.64483513257493 55.127100342265535 50.79804621365284 53.27408415998743 52.02844618975775
          51.776074704003385 57.109119821830475 53.591804785288595 60.641000099840426 52.194003091234705 55.38763067911219
          52.675011594001845 54.74133651033743 56.2498148248437 54.74696534856256 55.872200649590845 54.98984129608087
          57.488044053625785 60.617982562884485 63.48029106493338 78.88878041921728 56.977201203628695 55.49507920809384
          57.530554570739675 56.108876863765964 131.3122020641869 57.60422169581493 59.58196191033341 58.64503689714637
          60.39829740880881 77.8533327352866 62.3568840759424 58.623398383406226 60.692571569423606 137.41335853229043
          60.96336021054798 95.3070706721585 59.5432987191837 62.02517914083279 62.140179064576245 59.8524485403887
          62.1592925458904 48.0232158266626 63.62073824215762 103.75545044359664 62.49897042476328 64.35092016145974
          63.3337455939811 71.95225738546033 65.75434757921212 63.65016831506154 67.87412006380812 87.64592625661814
          60.47962280064333 68.39294245363165 73.14602044269296 70.72204302262328 121.12186248033021 70.77170493965767
          69.82412284230482 75.85356746462007 70.0423137349152 129.54947486843966 71.3472993448963 138.28517727877946
          81.78125453286238 70.75829955951248 78.5804402297329 59.69185804835606 90.89254051420824 70.46686453827547
          69.01781918154674 93.53240939800847 160.95312762236878 67.9529365603075 57.87464508406624 42.12586935036092
          158.73013945281792 97.19917697724914 63.830173014964224 140.75694012308543 146.28112164377873 81.40101962789576
          107.41757029619653 76.39772013947687 98.86574348439244 88.08375184737389 58.54693644737417 153.93170210654833
          182.2411972400946 45.640639858656215 55.46303476901124 155.83238238526053 65.0683194145415 -18.17596022161923
          49.63652861987453 65.57770556492899 75.89024325570776 36.09303865965865 0 0
          0 -4.511068547161528 174.0913691889254 0 0 117.31591356148748
          0 0 0 0 14.027425507912886 19.00086060869687
          22.390441131967272 17.89909523500358 25.668669071958043 26.05592362889654 20.758314901835917 21.922378156857757
          24.890539555738826 54.57824462694311 33.66307082159584 34.803381815771445 46.015175054055035 43.32078248622766
          29.42386531068305 21.680536537440044 31.85050089596037 38.07162767874541 50.08290073101885 48.25352476471434
          59.0019953352705 47.85861696928676 65.10115150091173 67.8591477017184
        </DataArray>
      </PointData>
      <CellData>
        <DataArray type="UInt8" Name="vtkGhostType" format="ascii" RangeMin="0" RangeMax="1">
          0 0 1 0 0 1
          1 1 1 0 0 1
          0 1 1 1 1 1
          1 1 1 0 0 0
          0 0 0 0 0 0
          0 0 0 0 0 0
          0 0 0 0 0 0
          0 0 0 0 0 0
          0 0 0 0 0 0
          0 0 0 0 0 0
          0 0 0 0 1 1
          1 1 0 0 0 0
          0 0 0 0 0 0
          0 0 0 0 0 0
          0 0 0 0 0 0
          0 0 0 0 0 0
          0 0 0 0 0 0
          0 0 0 0 0 0
          0 0 0 0 0 0
          0 0 0 0 0 0
          0 0 0 0 0 0
          0 0 0 0 0 0
          0 0 0 0 0 0
          0 0
        </DataArray>
      </CellData>
      <Points>
        <DataArray type="Float32" Name="Points" NumberOfComponents="3" format="ascii" RangeMin="0" RangeMax="1.920937301017636">
          1.4974470138549805 -0.05740142986178398 0 1.4958950281143188 0 0
          1.3696999549865723 -0.5396580100059509 0 1.4293919801712036 -0.11480289697647095 0
          1.427839994430542 -0.05740142986178398 0 1.3829339742660522 -0.29485228657722473 0
          1.3682019710540771 -0.38214409351348877 0 1.4262880086898804 0 0
          1.4278310537338257 0.05740255117416382 0 1.4293750524520874 0.11480510234832764 0
          1.3648350238800049 -0.18495939671993256 0 1.4474730491638184 0.22469249367713928 0
          1.4655719995498657 0.33457979559898376 0 1.3691669702529907 -0.05740142986178398 0
          1.25 -1.2000000476837158 0 1.25 -0.949999988079071 0
          1.367614984512329 0 0 1.3444969654083252 -0.10870400071144104 0
          1.3691580295562744 0.05740255117416382 0 1.3002779483795166 -0.25511598587036133 0
          1.285544991493225 -0.34240779280662537 0 1.27081298828125 -0.4296995997428894 0
          1.234292984008789 -0.6748082041740417 0 1.364791989326477 0.1849427968263626 0
          1.3444880247116089 0.10870510339736938 0 1.27993905544281 -0.178860604763031 0
          1.382891058921814 0.29483020305633545 0 1.3089410066604614 0 0
          1.284271001815796 -0.051302578300237656 0 1.2393720149993896 -0.21663780510425568 0
          1.2596009969711304 -0.10260520130395889 0 1.3681819438934326 0.382138192653656 0
          1.284271001815796 0.051302578300237656 0 1.214534044265747 -0.2855753004550934 0
          1.199800968170166 -0.37286698818206787 0 1.2596009969711304 0 0
          1.21903395652771 -0.14038239419460297 0 1.2349309921264648 -0.051302578300237656 0
          1.3002099990844727 0.2550804913043976 0 1.2799060344696045 0.17884290218353271 0
          1.2596009969711304 0.10260520130395889 0 1.3696190118789673 0.5403494238853455 0
          1.1354060173034668 -0.5648497939109802 0 1.2349309921264648 0.051302578300237656 0
          1.1978299617767334 -0.08577834814786911 0 1.1784659624099731 -0.17815950512886047 0
          1.2102609872817993 0 0 1.2855010032653809 0.3423886001110077 0
          1.1536279916763306 -0.24709700047969818 0 1.2393289804458618 0.21660220623016357 0
          1.2190239429473877 0.14036449790000916 0 1.128790020942688 -0.3160344958305359 0
          1.1572630405426025 -0.1235554963350296 0 1.1731599569320679 -0.034475769847631454 0
          1.197829008102417 0.08577045053243637 0 1.1382579803466797 -0.17358939349651337 0
          1.1688519716262817 0 0 1.1731590032577515 0.03446786850690842 0
          1.2707910537719727 0.42969658970832825 0 1.113420009613037 -0.24252690374851227 0
          1.136059045791626 -0.06895153224468231 0 1.2144869565963745 0.2855345904827118 0