<?xml version="1.0"?>
<VTKFile type="UnstructuredGrid" version="0.1" byte_order="LittleEndian" header_type="UInt32" compressor="vtkZLibDataCompressor">
  <UnstructuredGrid>
    <Piece NumberOfPoints="310" NumberOfCells="140">
      <PointData>
        <DataArray type="Float64" Name="Velocity" NumberOfComponents="3" format="ascii" RangeMin="0" RangeMax="0.9999999999643432">
          0.4084549118387057 0.023176332606061015 0 0.3869441305264741 0.00898886695175091 0
          0.4926724384214826 0.01556495342161423 0 0.4287347500252265 0.0354284159220635 0
          0.39154817778823936 0.021867004499987304 0 0.4847983023440545 0.03325392010971782 0
          0.4882624268280757 0.02783342499006008 0 0.3714201821036458 0.009264111592897785 0
          0.3900026846369021 -0.0033518086256344648 0 0.4260802637709214 -0.01694931831335103 0
          0.4575045240626141 0.040824726331494005 0 0.46603875918256826 -0.016432852854532328 0
          0.4791876514771297 -0.007533101434506803 0 0.37459032678568716 0.028824489616203708 0
          0.4877378982439696 0 0 0.4856821983410671 0.005728095612086914 0
          0.3554898463015696 0.009566444176983347 0 0.41596011774936237 0.04091555443315796 0
          0.3730380878303226 -0.009714748755015297 0 0.48454523775299674 0.03848684757893825 0
          0.49317401615983597 0.03484268861557837 0 0.500154210493573 0.027344553509023865 0
          0.47971359625194687 0.007432691549692286 0 0.45649977257923674 -0.02169937284830321 0
          0.41333433434106115 -0.021607862734568464 0 0.459470842998758 0.05188730459184324 0
          0.4850537203136571 -0.012692341155446298 0 0.33273321471389167 0.009918937462179799 0
          0.3433619583346862 0.035928622552715415 0 0.4845430508859899 0.05347352482286506 0
          0.3992084418197261 0.05106341519413883 0 0.4868219799256504 -0.005292241812179389 0
          0.3418556686000106 -0.01589298917886382 0 0.49647430477582094 0.048573350564230094 0
          0.506250924561168 0.035520546219931 0 0.3016281098375483 0.009973603298491295 0
          0.4315965755596686 0.06353738516726584 0 0.3234953550559188 0.038214936421093554 0
          0.4859458019426671 -0.018497417284027266 0 0.45833919766532283 -0.03165002345820218 0
          0.396746697547446 -0.03068466870966507 0 0.4797904042836864 0.009076545084150303 0
          0.5095655662083736 0.013665239016523249 0 0.32220341307657635 -0.018179596921549798 0
          0.356139913368041 0.05779133946648716 0 0.46998616363073775 0.06272114175619714 0
          0.2683463819569557 0.009926599944390208 0 0.4955977574421341 -0.011980776579436192 0
          0.501318244060749 0.05914123513178715 0 0.48451926160632947 -0.0329684316658442 0
          0.4296361639148557 -0.04305274760176334 0 0.5160090257705271 0.04540119932761673 0
          0.4093200100017712 0.07227794777109368 0 0.271572953432826 0.03791752835232765 0
          0.3543304233222191 -0.03746478369408782 0 0.4751729511610404 0.07744601672965024 0
          0.2299172612246038 0.009999092957521605 0 0.2709420380716451 -0.017661246369902243 0
          0.4985463519292902 -0.0009201306567362153 0 0.5095361222530473 0.0633448308957866 0
          0.30134857866553155 0.06534061435636267 0 0.5010192823318849 -0.026343530316315925 0
          0.5210369945131708 0.013663603920652443 0 0.39665147482830543 0.09165026560512007 0
          0.46899531335660827 -0.042163661047539845 0 0.24216637483987333 0.04622395747470591 0
          0.40725452980730137 -0.05149741599920958 0 0.48453544220397843 0.08896379828170982 0
          0.18137668098215448 0.0099431266844936 0 0.24214513638392188 -0.02601109156065837 0
          0.3002351032936347 -0.04432767572024686 0 0.4938484770802779 0 0
          0.4924834230763116 0.002576540356002044 0 0.3006679670967168 0.0795824440078246 0
          0.5106882809728003 -0.010366237961611385 0 0.5320537918375338 0.06412781973334261 0
          0.2115392042466302 0.05065777759528741 0 0.4113400000641355 0.09246362816203049 0
          0.4743638756517059 -0.05610209815200816 0 0.48121826166803705 0.005900459218676072 0
          0.5049282417588592 -0.03642066196219561 0 0.13361501141997695 0.009667794724725601 0
          0.39470048355986614 -0.07043248613623689 0 0.21198494701843038 -0.031061378898727076 0
          0.5132809998131134 0.10481604542377423 0 0.29989243332965704 -0.05934937372692702 0
          0.3095424405378023 0.0834041688419866 0 0.5370391029411502 0.014652193512158325 0
          0.19868977164344262 0.0602718792001925 0 0.48351365919121153 -0.06827466786448345 0
          0.5138578676029392 -0.04145928555083315 0 0.08085001198118331 0.009715242683719198 0
          0.4345153471839734 0.01800720853276148 0 0.4347229277496233 0.10820311379176556 0
          0.5234670296098651 -0.020757286543788642 0 0.4095457272178681 -0.07225669913152402 0
          0.19944321744395985 -0.04070643387014001 0 0.30872238580900335 -0.06352752629712942 0
          0.16977385158028374 0.07484359190842427 0 0.5580487872034148 0.09226298162920613 0
          0.03281565462633932 0.009687070013998541 0 0.17065029365467813 -0.05539004174804373 0
          0.32310850170621414 0.10982478355053503 0 0.5145117099332824 -0.08334728221943935 0
          0.5393977878298095 -0.04045317816203617 0 -0.025084660858587834 0.01128984979418423 0
          0.41399674810212345 0.1344020486959476 0 0.43403637041288934 -0.08773952162973675 0
          0.4902774153847401 0.017821900838442137 0 0.0745719286550014 0.023254716331146657 0
          0.45050251951326764 -0.0004445542826413543 0 0.32269804639409455 -0.09339655901003202 0
          0.5164710635397515 0.0833050766759825 0 -0.014323700744895947 0.010197506989227728 0
          0.07149233898618985 -0.004325986044167192 0 0.16844615106296543 0.09313768065650475 0
          0.5726839637537223 0.060300913373788054 0 0.5625401270319312 -0.06997023582097059 0
          0.04681042589572501 0.028714806320562232 0 -0.007926587311289066 0.01011160690150347 0
          0.4155933694361094 -0.11912197346114108 0 0.04163894693029091 -0.010053606783493894 0
          0.5148205478040417 0.017918407143399866 0 0.2358442438865213 0.11771636590732432 0
          0.16473940436974058 -0.07875796450733424 0 0.06514168386860958 0.045188489640072986 0
          0.6325166937225771 0.016093335577339187 0 -0.0031715320730323127 0.005930850336242761 0
          0.0015565206359958812 0.004007158196054742 0 0.5030228402365765 0 0
          0.34427566079370575 0.14722831248992826 0 0.5231488537444614 -0.06568512784505834 0
          -0.0015764223047117043 0.0068926996134397985 0 0.5039960455433352 0.00705707888329341 0
          0.08930049902482559 0.0620599879819837 0 0.05910639143383613 -0.030790305363214657 0
          0.2340310282812444 -0.10356463666535569 0 0 0 0
          0.494170878095405 0.10686153324136786 0 0 0 0
          0.49093137602346304 0.012677964325911232 0 0 0 0
          0.541421722643589 0.016884858949506205 0 0.5829474833292169 -0.04256513182611516 0
          0.16284068937860602 0.08282492806769134 0 0 0 0
          0.3496108475684622 0.08873974583242861 0 0.47158919058953486 0 0
          0.6241249448750418 0.05062786914306532 0 0 0 0
          0 0 0 0.08504108093865878 -0.054892026152332726 0
          0.34378349248947776 -0.13982571035754984 0 0.5316613490064944 0.05347469356971769 0
          0.5297916077395698 -0.021343606023308058 0 0 0 0
          0.11004494069064556 0.03329055820130896 0 0.6479565074453468 0.001582441663638021 0
          0.36093117852882173 0.045367737267209225 0 0 0 0
          0.7365409400603635 -0.01019412740034358 0 0.15943503246005933 -0.07871574549671081 0
          0.5019354502579637 -0.0997084307965532 0 0.5937585180384268 0.01664414428082535 0
          0 0 0 0.35149347985104024 -0.08428268809120827 0
          0.18284367368266458 0.01812171857930738 0 0.6038126755391205 -0.060525524239746435 0
          0.41603132861811787 0.018023563085381288 0 0 0 0
          0.6412131536265749 -0.041515548486910914 0 0.10992613385360782 -0.03247252635851149 0
          0.4140077474698158 0.023077800393778457 0 0.5450953573435932 -0.048395257782224345 0
          0.7940572231815207 -0.061716188850790506 0 0 0 0
          0.70248024769473 -0.052622320825004405 0 0.25255574095731276 -0.01163324779996307 0
          0.36706764094535677 -0.04343693275207844 0 0.513075189730207 -0.03394448681040202 0
          0 0 0 0.6145230097374463 -0.011438994387888873 0
          0.18691117656211736 -0.018009573603513025 0 0.7640616160152816 0.0198800815667959 0
          0 0 0 0.429206185293287 -0.016373053554981167 0
          0.1637922537766392 -0.04060057307136738 0 0 0 0
          0.6969465794831262 -0.16460200349458531 0 0.5243282549166919 -0.1681873391872291 0
          0.2623090453947541 0.012524726224184109 0 0 0 0
          0.5354420500864966 0.03697759562633557 0 0.7340224297082356 0.059329695393585895 0
          0.8307148313089086 0.0721105809605691 0 0.6277318688479143 0.07753324648312816 0
          0 0 0 0.33219873232684993 -0.20800131851491435 0
          0.17129983908073254 0.04287071499750828 0 0 0 0
          0.4439936107383293 0.005223158791581352 0 0.48944512262080814 -0.30796420474976877 0
          0 0 0 0.23978209314971266 -0.25574183238122233 0
          0.5509452778437642 0.17801648034032413 0 0.6449748036444738 -0.13230279176926818 0
          0.7324003098196779 0.17501380263411345 0 0 0 0
          0 0 0 0.5250905684849204 0 0
          0.3499879283424687 0.2193120920141519 0 0.5379340674312166 0.02544100852981108 0
          0 0 0 0 0 0
          0 0 0 0.3532516347873632 -0.3236348281621985 0
          0 0 0 0.5453762625821821 0.06568931420331316 0
          0.2524742826664665 0.2700828268114848 0 0.5054390742644639 -0.001448179730192287 0
          0.28904580287845016 -0.2551292582659878 0 0.5136372534900824 0.32293575549979586 0
          0.05086983874598783 -0.05223987913110306 0 0.47212957333026623 -0.22961637037307647 0
          0.05395096741475456 0.06349970461882015 0 0.01329920811008457 0.006224031941430083 0
          0.30336395311183634 0.2731011194594615 0 0.48736636986982457 -0.06646706276049492 0
          0.3487653243356392 -0.12428865886370859 0 0.3670881676489254 0.3400588094292458 0
          0.6885732529652873 0.14124846376002842 0 0.2645570195365422 -0.12035457367836888 0
          0.4772638854245825 0 0 0.08345925187650347 0.011419340022058938 0
          0.4733860368060237 -0.12240875376774195 0 0.2718587119806387 0.14016409394629537 0
          0.35847718582339916 0.1332119508118195 0 0.5580118008186553 -0.17656261093169923 0
          0.2924264137012022 -0.06046301230933077 0 0.3907272294738745 0.017520331617114703 0
          0.19386757765994156 0.008227642742524723 0 0.5056696419445268 0.239345448266658 0
          0.2944648625610255 0.07366188632104442 0 0.4344876446923799 -0.13140175875741944 0
          0.2608246162272807 0.004777696775632378 0 0.499014848087467 0.1280869248089769 0
          0.4472202758559521 0.14014788325660854 0 0.6148769068751627 0.18404829746892595 0
          0.44508606566598785 -0.004968961907692568 0 0.4954307403719395 -0.03188363268889293 0
          0.51655032068819 -0.09055886677962705 0 0.5146286626609359 0.11362176475707694 0
          0.5200157798660846 -0.033940623148818086 0 0.4340212509172229 -0.00011491249248132482 0
          0.5290200966044827 0.09211350542085486 0 0.48804783146681247 0 0
          0.3714271161558409 0.02742690913604677 0 0.6152121503270552 0.06018841199133153 0
          0.6239964709324262 0 0 0.5983744402077991 -0.027933274481468512 0
          0.574660438843185 -0.01739889832617993 0 0.5507906986075656 -0.0016954952340922703 0
          0.5455815725053361 -0.026873893654325492 0 0.5823919256171646 -0.04838418638591728 0
          0.463824892882982 -0.019254457489521166 0 0.5084651828264787 0.09419399685193819 0
          0.5984922485079821 0.02755922048147601 0 0.5168610986050772 0 0
          0.6960153648621353 0.0683315183554143 0 0.6281647762940374 0.0476534488329833 0
          0.6745274950167773 0.010279508691743853 0 0.7033089496425151 0.005996178890502232 0
          0.39035091080960194 0.026477966229357972 0 0.7556072997756064 0.0071380354465435895 0
          0.9999999999643432 0 0 0.9999999999643432 0 0
          0.9999999999643432 0 0 0.7172814030474773 -0.024633718366840956 0
          0.5069185924949575 0.027919602588262808 0 0.9999999999643432 0 0
          0.9999999999643432 0 0 0.6376107860441181 0 0
          0.9999999999643432 0 0 0.9999999999643432 0 0
          0.9999999999643432 0 0 0.9999999999643432 0 0
          0.4043302058977824 0.008286852138635413 0 0.4069274126899197 -0.005226634406400789 0
          0.45269517622442806 -0.006217777769267977 0 0.4270511876961432 -0.0032685502866625763 0
          0.4426246862876271 -0.008480623062549712 0 0.46703012128918914 -0.006733678923085717 0
          0.4656302179562617 0.0028683760447819878 0 0.469387788055918 -0.004994367440627275 0
          0.47661408884464346 -0.0017124836914063231 0 0.4477404836498835 0.008641803863249132 0
          0.4617561449026421 0.009489000491581008 0 0.4774712953173927 -0.0019718617238177814 0
          0.47991873443302047 0.026314300643810115 0 0.467161565910501 0.03487724023665002 0
          0.455708583549372 0.021913061214792428 0 0.42926505901647344 0.01921643666892374 0
          0.445094669434808 0.025791443146749818 0 0.46846920999346287 0.02453373683930205 0
          0.47715710640149167 0.010242759037427964 0 0.4863516898129282 0.020412100899632142 0
          0.4808332246037917 0 0 0.4815733750249295 0.006260073005432549 0
          0.4623326589489675 0 0 0.45691378856883574 0.00028490696382617835 0
          <InformationKey name="L2_NORM_RANGE" location="vtkDataArray" length="2">
            <Value index="0">
              0
            </Value>
            <Value index="1">
              0.99999999996
            </Value>
          </InformationKey>
        </DataArray>
        <DataArray type="Float64" Name="Pressure" format="ascii" RangeMin="0" RangeMax="3.113387054881193">
          2.5494973000384706 2.549959235477319 2.6127334776948707 2.580926637968071 2.5811424057126673 2.603389683184987
          2.611543890812772 2.58139584102916 2.580282866092796 2.5792346297869813 2.6108229593567622 2.5701451739074783
          2.561547057919146 2.6079678375780495 2.6736569361455214 2.672732843860657 2.6081328749190145 2.6194075237156635
          2.6070508891766435 2.640323554459193 2.6481426487496664 2.65668172459949 2.677399148412016 2.607877117562562
          2.617674177429195 2.6485987858340843 2.599095667769233 2.635006989661364 2.6461646833701478 2.666820807784096
          2.657205426998514 2.605786238196264 2.6452703709565624 2.6787498239062253 2.68672067737251 2.65684713669846
          2.6752429880049644 2.6679209306302356 2.636240359870202 2.6455969346074375 2.655414901286587 2.6047682135168624
          2.7219694475690357 2.6669953673707822 2.6842122564844244 2.6925300543959465 2.6784420845989887 2.642450664646439
          2.703328996868298 2.6631398444101673 2.6726283132253736 2.714462718652256 2.7009656833592217 2.6947162065257535
          2.682593333426742 2.7090980898741828 2.6964352440103863 2.69413822870916 2.6495188165797083 2.7171322783094496
          2.7099625461535046 2.673697294993763 2.752820311285328 2.717284959009375 2.6891047463381366 2.7121436729649995
          2.698627413385439 2.7233840781081975 2.713241687909065 2.711540034623763 2.7086973899788798 2.7842582803351332
          2.7839543764315757 2.724548650104324 2.680045697983858 2.730949116971676 2.72473075476521 2.7298396819388926
          2.7056158989449686 2.7831350192066804 2.6984632900778305 2.724520935917781 2.7146567457534365 2.7236017125493595
          2.7352159306915063 2.7228714562709806 2.7362410768783665 2.7769098793451312 2.736500564451841 2.719831649336549
          2.712166558313456 2.734808375472804 2.6656946768563423 2.7406487073211143 2.7082883661585284 2.727111478159773
          2.735883672920987 2.734328972939544 2.7422073539776424 2.7358212535470323 2.7400709320301084 2.741827417221131
          2.7468953469868103 2.730325289030107 2.7249937358919176 2.743214250788473 2.747550004739067 2.736580330758148
          2.7105586882086796 2.7463583324306695 2.659182683026233 2.744255347762198 2.7475031217475427 2.750093525629612
          2.746634031972441 2.744635245237101 2.752859897934751 2.7283236459084907 2.7429095557225827 2.747306553297129
          2.7429247985471887 2.742715393586462 2.7412971950815486 2.732849651104448 2.744655353170849 2.7357386041425142
          2.759143484711631 2.7500754488930093 2.7385114785626925 2.8617935671489225 2.7186268917557346 2.7408163105977317
          2.7382714213872528 2.846925819354174 2.7095970653746417 2.733700352698357 2.7302391902100327 2.735640660545815
          2.719187413529511 2.750156043216324 2.8211809027268258 2.7264471736819225 2.7642611490518827 2.741671993998849
          2.700851934998052 2.734810484374647 2.7038079722133994 2.6591638809070197 2.7261662147449663 2.6900027802062456
          2.7236029414901006 2.7055656703291615 2.7145479601638733 2.7101776403600346 2.862332614341429 2.6940521269802438
          2.686400752648662 2.749396453807024 2.7061682178090867 2.6863779884333154 2.7596335508871332 2.694684395421036
          2.7161770617255954 2.7409227453484095 2.6862040743441846 2.696223717974755 2.711450907006305 2.8402862295474383
          2.742547053232616 2.680793423026394 2.7285438729682157 2.6705058612199797 2.766571259494975 2.6990678938100245
          2.819091782231577 2.7330399810129156 2.78844016538523 2.742256155026838 2.686445028009709 2.7701260113407784
          2.6716247400816306 2.7336537719470844 2.701696125426045 2.7577433748668416 2.8255226495050723 2.724979169139964
          2.8168677006993237 2.7054267470674978 2.8611451223339674 2.848815518770955 2.7101591884146288 2.8697556607256294
          2.7481709276694533 2.769023261491572 2.8042006972944082 2.832090698400753 2.839411505167999 2.9005592883656854
          2.8024038939457796 2.9981914866876074 2.7647215785126913 2.926940014803177 2.848839834777314 2.9920451759975144
          2.8384592430977937 2.929302778688702 2.8467982235050444 3.067578226645217 3.0048779160094816 2.910010001364987
          2.8880658854134205 2.8362667317801664 3.10622854378771 3.0669874932210224 3.0782332219923694 3.0145514604307135
          3.113387054881193 2.8408014753172326 2.98957434375197 2.6701691225167483 3.055041840724642 2.9162824290506455
          3.1057928723913166 2.983667379884421 3.1094059591488206 3.0802075234597095 3.0564157538638193 2.9028091380825627
          3.060048570573755 3.010060184539076 2.9216700053819435 3.095758546691191 2.763980578232193 3.0983357434981107
          3.018275869754532 3.1019361186739336 3.0658240053700054 2.9636656882285464 3.077708044678258 2.799280445914574
          3.081697660844999 2.975907150950875 3.083086948159442 3.038147494401144 3.0688766325680703 3.013561139678051
          3.0331575747505126 2.957940393459535 2.829520670256148 2.8616508019693714 3.0077692004719347 2.888472592710129
          2.917383442614622 3.040458468686476 3.0202882528141037 2.8292271171436805 2.645835309169505 2.940486669342816
          2.446403900221008 2.6516444511982504 2.9313967848447695 2.726045248688844 2.8767550772602073 2.6239488303781586
          2.8101465567752006 2.844104740308243 2.888104931487461 2.850736160759561 2.7535852353289556 1.980319014969058
          2.4817613283259354 2.118292467240247 2.6785636667832766 2.346264170255582 0 0
          0 2.220270135698728 2.5482057508094966 0 0 2.4690758357016422
          0 0 0 0 2.517894869121283 2.548734534353122
          2.478742116877057 2.4981874722451813 2.52902543372531 2.5201830167649013 2.445641717527399 2.46228915428771
          2.5035801908842816 2.5594825371615304 2.502526078425031 2.5605567684484756 2.5660975881863526 2.5732802277880023
          2.480644269220516 2.499119339004452 2.530848957265124 2.523353905518958 2.567690547650034 2.567065477375764
          2.555232686936353 2.5624922168334745 2.5449171602718224 2.5526847348568453
        </DataArray>
        <DataArray type="Float64" Name="Temperature" format="ascii" RangeMin="-10.663922931222043" RangeMax="217.44991902225883">
          4.003514580078461 3.360025526019212 13.5103949508898 5.9999088710600805 4.588049033228814 10.535636103186386
          12.08402578864715 3.9357458209972287 4.167771778908169 5.074449443901455 9.036787159401278 5.893023637215367
          6.30838428161782 5.276649276280958 24.765057022027662 18.473496500883233 4.460284642744651 7.2523164386512695
          4.81754070576184 12.485274977616127 14.303449400357694 16.117856424856505 22.07903790160923 7.0623113303271685
          6.245893334655663 11.162408337687221 7.514088005147889 4.97822127174938 6.292161282020332 13.716249380703584
          8.90383242018915 8.47602230867358 5.8034739966884725 16.322749011247005 18.391953173344714 5.473951966985148
          11.744785605305784 6.948761062463705 9.086968204700426 8.942086440118569 7.782923322215459 12.700264979160382
          24.894084919364502 6.437369701128546 9.391997586290305 14.9063070104292 5.958832491434957 10.028450340058077
          18.075959005286542 10.519154490389356 9.914735832104839 21.09873361330128 12.853301084483205 7.251110667158429
          8.413244558791272 16.465774552093983 6.477338985625998 6.901000506849722 11.728962514135757 19.905157279556615
          9.744686851180617 11.545717706640257 28.472136264368746 13.991196422786775 12.10882850756992 7.781569778512377
          11.180298297535632 18.361684224786398 6.927551156625691 7.41846757874427 8.94347051912627 44.28145561519508
          31.511618612700225 11.343725615338583 12.77087283641955 22.891964557782156 8.296181959002821 15.917071797834605
          13.639403298936148 38.4311604523916 13.4372283876918 7.172865228245473 12.324548850532974 7.953905492665179
          21.35828061602906 10.393187410114429 13.163217695763171 31.495666500215812 9.446019523399718 15.446324060782572
          14.983090998761094 7.339360146448882 27.729985992628595 18.80618497961003 14.465831358912533 14.057962085048066
          8.997543710127106 12.095313417872235 9.918922359620456 24.893559096613046 7.2307536137017365 9.550522864613733
          15.438344881060626 18.034221773872375 16.976495248827547 6.8682041792651285 19.3726678960063 16.605731178412263
          24.370597213027732 9.693614497781699 23.367120147272818 14.36517322301637 21.713003222257974 7.760130177631499
          9.685055759148531 13.174770972980717 24.04781461337524 21.111388035643383 9.749221896914303 8.018489070689506
          17.571574710430127 9.764651356731948 23.871594533019532 15.171258689580357 13.039452378307363 12.105655772159123
          26.122591869211398 8.17816520717477 9.046261981555116 71.59129385005708 17.147431510808786 19.822025372740487
          9.090141558159937 49.75427471481041 14.00263064596998 12.211735576427598 15.12373955526719 9.212624598750175
          18.832890419198435 8.157073797530362 61.90325814708274 11.17507491888394 23.32533227858545 21.55812349988241
          15.730604394580899 9.312867940983606 17.22247763229573 26.148128888286074 21.210091621454648 13.693010620864706
          11.330041129915777 14.304284683265681 17.243804832290724 19.32432012305842 45.130605362392835 15.504938789179628
          16.47217425460401 23.44963613785534 17.859298629200975 14.117956450578596 23.179400688314796 16.202711999672204
          18.941422560670585 20.06999199860207 17.12064338471515 17.770113905933478 17.727823351583304 38.54409926589901
          18.586466721213203 16.19508766758277 21.18776775621525 17.264740274526243 50.42883656385064 19.985717199546357
          25.81709871077557 18.00481312641659 21.993291739403944 18.42667816994271 18.796407277873588 19.303789613993494
          18.079006958129927 21.01990235821998 18.829523501957762 23.610442951882344 18.824450805390555 19.758010298306043
          19.079678224390353 19.33095687474736 23.081595174012705 20.856851776028332 19.8460945625745 19.397749036753055
          20.74650120486752 23.214422515861017 26.304736410559652 32.548219289623106 20.3227618275141 20.595229431798476
          20.60983005937886 19.755596419868226 41.258000274972275 24.157719091897505 21.093424647507405 21.322520690313254
          22.699527929242794 41.3033209533658 24.708496811759083 21.6580477391049 21.625265676721536 111.2319367394992
          22.65052906718661 62.48624972678298 22.151164883004178 23.07179915402822 23.465231105280814 25.898904917942634
          23.208416663349546 30.201618638613667 23.259514533828014 75.60249711568991 24.548037910355273 26.667079438380803
          24.24542899309446 38.50519729065499 25.194010435004593 25.218286494308924 26.593354037163948 59.74538187576791
          30.326656868796768 28.84000871169402 38.532156221747684 30.875688872754793 47.501278299393945 31.220622944790016
          39.19930556525565 32.99481687371005 34.08242752446298 71.82162176265749 36.455143873221076 85.76092166103709
          40.049798630751326 38.50264556323941 39.6287121547223 36.78896697747292 50.76535487092801 41.10247261278533
          42.36921323173326 57.951901157772475 67.62434341606163 74.48623052427187 44.03678847102473 29.720535065531514
          131.35044895421797 76.54660406524889 51.90668887716216 72.25825438067767 107.75257360340937 84.60492281214407
          94.65934923862889 77.01192186975308 117.11539889626279 87.54774822971652 40.78299897354127 217.44991902225883
          99.6472641898092 37.779516591295504 48.82826461867661 108.63918504020714 118.77779604396267 6.402018580059249
          67.21365093546542 54.309137633805115 95.0820744389655 32.95624767352331 0 0
          0 -10.663922931222043 171.96775660426547 0 0 116.52275660736984
          0 0 0 0 2.8413495671767 3.629388465306793
          3.123695492402169 2.8766274190151604 4.004098953375361 4.479663660131759 3.695019913911165 3.470625289784152
          4.95919494841749 13.534183510839927 7.363467462337005 8.619067242135161 8.89805474785476 7.8097115095323035
          4.013220559675692 3.29520171979207 4.896096696955219 6.170273756842365 11.494255837359294 10.015330788262307
          11.718427658741586 10.133589213016371 12.442824347980714 13.000841743561903
        </DataArray>
      </PointData>
      <CellData>
        <DataArray type="UInt8" Name="vtkGhostType" format="ascii" RangeMin="0" RangeMax="1">
          0 0 1 0 0 1
          1 1 1 0 0 1
          0 1 1 1 1 1
          1 1 1 0 0 0
          0 0 0 0 0 0
          0 0 0 0 0 0
          0 0 0 0 0 0
          0 0 0 0 0 0
          0 0 0 0 0 0
          0 0 0 0 0 0
          0 0 0 0 1 1
          1 1 0 0 0 0
          0 0 0 0 0 0
          0 0 0 0 0 0
          0 0 0 0 0 0
          0 0 0 0 0 0
          0 0 0 0 0 0
          0 0 0 0 0 0
          0 0 0 0 0 0
          0 0 0 0 0 0
          0 0 0 0 0 0
          0 0 0 0 0 0
          0 0 0 0 0 0
          0 0
        </DataArray>
      </CellData>
      <Points>
        <DataArray type="Float32" Name="Points" NumberOfComponents="3" format="ascii" RangeMin="0" RangeMax="1.920937301017636">
          1.4974470138549805 -0.05740142986178398 0 1.4958950281143188 0 0
          1.3696999549865723 -0.5396580100059509 0 1.4293919801712036 -0.11480289697647095 0
          1.427839994430542 -0.05740142986178398 0 1.3829339742660522 -0.29485228657722473 0
          1.3682019710540771 -0.38214409351348877 0 1.4262880086898804 0 0
          1.4278310537338257 0.05740255117416382 0 1.4293750524520874 0.11480510234832764 0
          1.3648350238800049 -0.18495939671993256 0 1.4474730491638184 0.22469249367713928 0
          1.4655719995498657 0.33457979559898376 0 1.3691669702529907 -0.05740142986178398 0
          1.25 -1.2000000476837158 0 1.25 -0.949999988079071 0
          1.367614984512329 0 0 1.3444969654083252 -0.10870400071144104 0
          1.3691580295562744 0.05740255117416382 0 1.3002779483795166 -0.25511598587036133 0
          1.285544991493225 -0.34240779280662537 0 1.27081298828125 -0.4296995997428894 0
          1.234292984008789 -0.6748082041740417 0 1.364791989326477 0.1849427968263626 0
          1.3444880247116089 0.10870510339736938 0 1.27993905544281 -0.178860604763031 0
          1.382891058921814 0.29483020305633545 0 1.3089410066604614 0 0
          1.284271001815796 -0.051302578300237656 0 1.2393720149993896 -0.21663780510425568 0
          1.2596009969711304 -0.10260520130395889 0 1.3681819438934326 0.382138192653656 0
          1.284271001815796 0.051302578300237656 0 1.214534044265747 -0.2855753004550934 0
          1.199800968170166 -0.37286698818206787 0 1.2596009969711304 0 0
          1.21903395652771 -0.14038239419460297 0 1.2349309921264648 -0.051302578300237656 0
          1.3002099990844727 0.2550804913043976 0 1.2799060344696045 0.17884290218353271 0
          1.2596009969711304 0.10260520130395889 0 1.3696190118789673 0.5403494238853455 0
          1.1354060173034668 -0.5648497939109802 0 1.2349309921264648 0.051302578300237656 0
          1.1978299617767334 -0.08577834814786911 0 1.1784659624099731 -0.17815950512886047 0
          1.2102609872817993 0 0 1.2855010032653809 0.3423886001110077 0
          1.1536279916763306 -0.24709700047969818 0 1.2393289804458618 0.21660220623016357 0
          1.2190239429473877 0.14036449790000916 0 1.128790020942688 -0.3160344958305359 0
          1.1572630405426025 -0.1235554963350296 0 1.1731599569320679 -0.034475769847631454 0
          1.197829008102417 0.08577045053243637 0 1.1382579803466797 -0.17358939349651337 0
          1.1688519716262817 0 0 1.1731590032577515 0.03446786850690842 0
          1.2707910537719727 0.42969658970832825 0 1.113420009613037 -0.24252690374851227 0
          1.136059045791626 -0.06895153224468231 0 1.2144869565963745 0.2855345904827118 0