<?xml version="1.0"?>
<VTKFile type="UnstructuredGrid" version="0.1" byte_order="LittleEndian" header_type="UInt32" compressor="vtkZLibDataCompressor">
  <UnstructuredGrid>
    <Piece NumberOfPoints="307" NumberOfCells="134">
      <PointData>
        <DataArray type="Float64" Name="Velocity" NumberOfComponents="3" format="ascii" RangeMin="0.42508164470783705" RangeMax="0.8835898785903108">
          0.7667171286516793 3.4254078346026995e-7 0 0.766729460073229 0 0
          0.7667292826852062 0.000009613453755110887 0 0.7667375329083767 0.00001519077391666767 0
          0.7667462952666374 0 0 0.7666937365080286 0.000013241615321291054 0
          0.7667571160877649 0.00002142220362878144 0 0.7666993320870571 0.00002732176664708782 0
          0.7667697968685572 0 0 0.7667335257623811 0.000028887432604742664 0
          0.7667742191168869 0.00002941790539105837 0 0.7667134770614206 0.000038168905511704306 0
          0.7667406609688355 0.000034117542339016265 0 0.7668009573324425 0 0
          0.7667551603617678 0.00005283868571913523 0 0.7667357322136248 0.00006983109404119282 0
          0.7668056768316751 0.00004084721997697942 0 0.7666613703298131 0.00002476802109587761 0
          0.7666511006751388 0.00003398430708487419 0 0.7667654429508145 0.00007893734197714812 0
          0.7668468156976426 0 0 0.7666421268825537 0.00005485256698011158 0
          0.7667641297006694 0.00007671246606373359 0 0.7668378588899074 0.0000616341681873352 0
          0.766631001670896 0.00006422793781054547 0 0.7667796110193352 0.00010626433643452256 0
          0.7669105881572967 0 0 0.7667034487482913 0.000019069729698266427 0
          0.7667054474775801 0.00003059730383219376 0 0.7666120536460563 0.0001003814111518916 0
          0.7668056214608521 0.0001365836397840471 0 0.7666958759041936 0.00005324592831050991 0
          0.7668030980980127 0.00016175136505172094 0 0.7668989868446658 0.00008226315306260614 0
          0.7666955701524151 0.00006274691686854659 0 0.7665790426009814 0.00012406465778840804 0
          0.7670027287692792 0 0 0.7667070202211874 0.000028052940571158273 0
          0.766859649697549 0.00015117114458967258 0 0.7666979074193261 0.000025232400029320397 0
          0.7668337426135003 0.000209575703749232 0 0.7666801628887625 0.00009619806494893104 0
          0.7669640626417321 0.0001094501041000121 0 0.7665318962868304 0.0001877147767056212 0
          0.7666812155922421 0.00005715590792446935 0 0.7671194743811035 0 0
          0.7666837926741648 0.00012093727675626252 0 0.7666725417289416 0.000056952604466909956 0
          0.7668726945614381 0.0003144166056664447 0 0.7669586203734519 0.0002731637995952964 0
          0.766640380354524 0.0000027460181782375823 0 0.7666231077781801 0.000014293585244312324 0
          0.7664659059429839 0.00023534096946769528 0 0.7670813183073708 0.00015805816806806338 0
          0.7666026313568602 0.000025994774610346862 0 0.7666623924042587 0.00012324413092550714 0
          0.7666530525986368 0.000178173238482454 0 0.7672923102399997 0 0
          0.7665735819043356 0.000020716427794642666 0 0.7669077687311635 0.0004150643622324242 0
          0.7670798025963755 0.0003057925976512385 0 0.766369501205666 0.0003452038318606982 0
          0.7666303380170297 0.0000947508658031615 0 0.7665383010444277 0.00004849991624121204 0
          0.7672113054760782 0.0002116480406434155 0 0.7667460418706004 1.6489106262583258e-9 0
          0.766748751215255 0 0 0.7666557028720168 0.00021524836537543804 0
          0.7667441975486753 0 0 0.7675128841595585 0 0
          0.7664782795504856 0.00004719464991139775 0 0.7667354013716757 0 0
          0.7665927207755476 0.00022774457965556337 0 0.7669698161711157 0.0006136244981951514 0
          0.7662166188024931 0.0004424721031629264 0 0.7672910243011665 0.0005475278766714207 0
          0.7667324333967134 0 0 0.7665948805546614 0.00030626099303041233 0
          0.7674398645199011 0.0003085511641395057 0 0.7664269744325322 0.00008498455669543642 0
          0.7667184349371234 0 0 0.7665587559232694 0.00016993226379561212 0
          0.7678357346273338 0 0 0.7670019039136581 0.000824357278201627 0
          0.766003702371775 0.0006314325147904927 0 0.7675490305949667 0.0006212476219128954 0
          0.7663121483126448 0.00008351721271730629 0 0.7667076600369452 0 0
          0.7665861197722413 0.000369782323945252 0 0.7676981959750244 0.0004163119328597091 0
          0.7665215391263465 0.0003964678646351446 0 0.7666870890494386 0 0
          0.7682503597706443 0 0 0.7662195469933033 0.00015354445918991426 0
          0.7656360172102874 0.0008143991025222718 0 0.767086741957799 0.0012004656809004447 0
          0.7664636653991294 0.00050698505825244 0 0.7679766663304346 0.0011158942940717948 0
          0.7664965835876553 0.0002965682273096967 0 0.7666709145143777 0 0
          0.7681118121745999 0.0006767407223197167 0 0.766024171765148 0.00015620582467138768 0
          0.7688908059909016 0 0 0.7651401007228488 0.001128890351502673 0
          0.7664243418627312 0.0005888108733200456 0 0.766917046616832 0.0016846522434355654 0
          0.7666164426894221 0 0 0.7664783839283559 0.0006740346335763319 0
          0.7684583731211924 0.001336478005650157 0 0.7658692211399944 0.00028301165625584345 0
          0.7686111306494118 0.0009498019223733602 0 0.766564758103118 0 0
          0.7661182187690102 0.0007295559282074269 0 0.7641786528132339 0.0014209678942756082 0
          0.7666302867346376 0.0005655332709019411 0 0.7697306304429985 0 0
          0.7669665986487378 0.002286382055419458 0 0.7690961516226145 0.002265832769689886 0
          0.7655490626409002 0.0002778447777936585 0 0.7692911521147623 0.0015496523689735038 0
          0.7664304520990778 0 0 0.7660281150294025 0.0008323852454499261 0
          0.7668411264902525 0.0011422419891281906 0 0.7629876088061519 0.0018705356015629145 0
          0.7660811249667607 0.003257423755159863 0 0.7653138090205484 0.0005403886487688392 0
          0.7707587773362344 0 0 0.7697189231286982 0.0027102238087205743 0
          0.7701495058510865 0.0015211120662368908 0 0.7663073720496748 0 0
          0.7673955808708245 0.0010124963379454263 0 0.7651498523486066 0.000690891829256283 0
          0.7605016397502529 0.002241576589782795 0 0.7659076385007917 0.004146832428274802 0
          0.76997208963877 0.003082634583414309 0 0.7648539667452555 0.0005629134571042499 0
          0.771656930310829 0 0 0.7659751421362502 0 0
          0.7721662761394776 0.0014277462914345244 0 0.7680975972860995 0.001616825297456041 0
          0.7648923330991703 0.0009363154132149733 0 0.7714206098951095 0.004643249187220294 0
          0.7576915584242654 0.003083977186316389 0 0.770397410420061 0.003879522234632166 0
          0.7646327753472415 0.0009577662683249636 0 0.762974042748956 0.006910238421411448 0
          0.7716090652468004 0.005391838275379548 0 0.7656332333937401 0 0
          0.773355000400768 0 0 0.7506433143554655 0.003172922676280493 0
          0.7657818214634116 0.002341247267233149 0 0.7706400879014467 0.0015214936793081846 0
          0.7746253219542775 0.0029026948642087726 0 0.7618410317854714 -0.0009881424889218822 0
          0.7631937910946089 -0.0002446914297327669 0 0.7727959089976444 0.007341760311067198 0
          0.7609830142164193 0.00781611445088 0 0.7717335127305693 0.005194628556640123 0
          0.7439571934363092 0.004259584132979975 0 0.7666521417756693 0 0
          0.7590182134189042 0.00036735776606330916 0 0.7624252213488819 0.0020766811358092145 0
          0.7764723695606659 0 0 0.7682337570415223 0.0015928595560088376 0
          0.7738372412304364 0.007363470429206082 0 0.7734386434328666 -0.00017801750033839752 0
          0.7584229195772455 0.009639595433865035 0 0.762815143358248 0.0007469462245665884 0
          0.7766803243802788 0.01100505602880097 0 0.7371348998313542 0.004196449077575817 0
          0.7780290532442398 0.0041746035716976404 0 0.7557365728792502 -0.0016042584708433618 0
          0.766635901360725 0 0 0.7737750632218594 0.007625571982188048 0
          0.7801404995667794 -0.0012655631406387952 0 0.7282471450558728 0.005191550918726358 0
          0.777145784934969 0.010522915676603708 0 0.7817505177651641 0 0
          0.7593307672646787 0.0016794896282337716 0 0.7506226993524127 0.013961016428272745 0
          0.769223849915351 0.003432447637507917 0 0.7620589715511683 0.000005993572250057553 0
          0.7809110735681617 0.014647056165636139 0 0.7476683138375251 -0.0045646921627384585 0
          0.7821285314502934 0.005469948537292335 0 0.7773941408589815 0.011121969833225987 0
          0.7142282091427025 0.004883539539773457 0 0.7665744073130333 0 0
          0.7460310504396752 0.016161308016681267 0 0.7818317226559484 0.015471765989433178 0
          0.7778024556974342 0.009520374944399324 0 0.7872897985537859 -0.004012809246759532 0
          0.743401983613806 -0.004568743200262259 0 0.7732327607134799 0.0015422360764760447 0
          0.7768620425734818 0.018965332097990034 0 0.6990847231452637 0.007386311010477431 0
          0.7881690890944001 0 0 0.7822154176266959 0.015120558863771597 0
          0.7543485005815506 0.003198143719167781 0 0.7611265545854863 -0.00037718852724394683 0
          0.7886482497127555 0.006834001081319454 0 0.7808000974958611 0.014163558473251354 0
          0.7862552716650439 -0.0022968271987852344 0 0.7243115863303814 0.022712783150968963 0
          0.7865179296588616 0.023219689255804057 0 0.7815271050858943 -0.007028760760234774 0
          0.7672745216169182 0 0 0.673466782793391 0.00565010182258065 0
          0.7187332677985971 -0.012731351072056743 0 0.7675233303206247 0.003609833935188429 0
          0.7832420112605165 0.012680355561574663 0 0.7683023193541164 0.0292164664079684 0
          0.788874232207664 0.021901975414148456 0 0.7093173973559067 0.021396354596657986 0
          0.6516801573087914 0.007460758998765676 0 0.7831353606879397 0.004047283186720561 0
          0.7007367598282442 -0.007702267135770245 0 0.7972646843248927 -0.008517693542522327 0
          0.7856514142627293 0.018016203323609346 0 0.7982431542222296 0 0
          0.7914860231324223 0.027297475634256215 0 0.7726109384889199 -0.019329193617074237 0
          0.7475390036795804 0.002048184576237854 0 0.6943797818334821 0.028156223844415327 0
          0.75974902415771 -0.0017099389407814931 0 0.7666161243837525 0.03516595325957589 0
          0.6301666414511214 0.006542668676550998 0 0.7703720487691547 0 0
          0.7972029919082056 0.008433365456582973 0 0.6832065842506377 -0.016356132747598295 0
          0.7951554954798088 0.023719917470166902 0 0.784834842921703 0.01840414766316854 0
          0.7595218499134554 0.0023406909709008995 0 0.7935643081690468 -0.003966937743329445 0
          0.769755454010234 -0.023090475235575888 0 0.8009498076778504 0.04080825000035695 0
          0.8073936653781416 -0.011112531364930369 0 0.6006668679706937 0.008894090041001872 0
          0.6622270894728745 0.03600707071157022 0 0.7921896927764295 0.01879207203362324 0
          0.7595175192045153 0.04678920156750999 0 0.6475434443025168 -0.021198944927859162 0
          0.8157014981033995 0.038150155783628 0 0.5612564803804267 0.005779862515468684 0
          0.8100579091059512 0 0 0.6424472403659307 0.041801194223229976 0
          0.7412122446901543 -0.000042515631036598154 0 0.7629407232786626 0.0035790735691864925 0
          0.8019972844117815 0.012337062876196063 0 0.7577005622293926 -0.033531818352383176 0
          0.7957836718211463 0.04923963893004924 0 0.8248038144029515 -0.026689009909245283 0
          0.8050514181076219 0.001938737575048271 0 0.7623674717186142 -0.004620707107886015 0
          0.6287506660921058 -0.029837100025846643 0 0.7747705322206587 0 0
          0.7837652725695073 0.018791001321084255 0 0.7256356774350445 0.05270787067145736 0
          0.5148042433692693 0.007888952966337941 0 0.8166761347237498 0.03820359801952256 0
          0.8221601317892219 0.04690051718768149 0 0.7203835288838475 -0.03953031865678114 0
          0.8157246219166923 -0.03214779061855573 0 0.846003177732884 -0.017132615899155934 0
          0.7951344223574621 0.07393716087823832 0 0.5523268824312506 -0.03455556911218588 0
          0.7325008771217361 -0.007309843747045825 0 0.7743510590288322 0.015835897965898252 0
          0.7632662344957862 -0.007305891092617617 0 0.7880822624095613 0 0
          0.8291652924126339 -0.02137877980662291 0 0.7156005442170476 0.009660606910554035 0
          0.753449233502479 -0.005451729115825644 0 0.8047075135281628 0 0
          0.6603450293567885 -0.06386322089684768 0 0.4250156927803487 0.007487693767782536 0
          0.5022317790055026 -0.02379036695593595 0 0.4636277159842595 0.00734730612959976 0
          0.8546549525826342 -0.03085465766545623 0 0.812843506544712 -0.06085617390190761 0
          0.6726609508927086 0.07529374098214989 0 0.5195766426744257 0.03788934022257124 0
          0.5675692230449659 0.04842706699221427 0 0.8468814051001107 0.06609222919440091 0
          0.7667088439017522 0.0829136090728737 0 0.8436950963988904 0.06198209012182576 0
          0.8490361012848161 0.03957222953277212 0 0.8509896889255618 0.05892099615259268 0
          0.8310889196550522 0.04914650758825541 0 0.8237483017015351 0.02642982323760937 0
          0.7937405865697593 0.006597793027490485 0 0.8404659841554318 0.02206639852224871 0
          0.788850689366967 0.013975384034590409 0 0.811535672854434 0.008179735091040193 0
          0.82054090815025 0 0 0.8196795010156342 -0.00015816278068717243 0
          0.8192032275985428 0 0 0.8835143045419243 -0.011556263108816536 0
          0.8642962523658719 -0.025487531029694466 0 0.8251209322556455 0.004487417243290084 0
          0.6612191342961191 0.009909831288126397 0 0.6915711380835535 0.013221719077647224 0
          0.8283934380827814 0.004577619515949044 0 0.7510338363570391 -0.011078771897510328 0
          0.8247370011711846 0 0 0.8218393801865633 0 0
          0.7558082984617052 0.004453601938893183 0
          <InformationKey name="L2_NORM_RANGE" location="vtkDataArray" length="2">
            <Value index="0">
              0.42508164471
            </Value>
            <Value index="1">
              0.88358987859
            </Value>
          </InformationKey>
        </DataArray>
        <DataArray type="Float64" Name="Pressure" format="ascii" RangeMin="0" RangeMax="1.335909331600673">
          0 0.0557271808964546 0 0.05572740692119754 0.11145443822576485 0
          0.13497172259356302 0.07924446631531104 0.16718068623560203 0 0.19069754046274034 0.15848959620633077
          0.05632462937889612 0.22290592812242316 0.13557335310390847 0.21847744070729314 0.25068540248074717 0
          0.05632404023424713 0.19189705970393287 0.27862990033768026 0.1126490536589203 0.2784683142900986 0.3064077848091899
          0.16897105088035677 0.2518902693891293 0.3343498883076052 0 0.05632767133586845 0.2252987949232478
          0.33514361662047437 0.13557825313108826 0.3082136200335281 0.36308226850119674 0.19190784876674943 0.28161563234426584
          0.3900684858723506 0 0.3918229263128264 0.07925303769464666 0.3648987316927119 0.2519033890995605
          0.4187974950784748 0.3379470748511242 0.15850510230862963 0.4457789870399494 0.3082354511762788 0.21850494535599493
          0.4212176933103576 0.44773667459141164 0 0.055731533986201925 0.39425958593222704 0.4747078051903012
          0.13498394273611336 0.2785024566999916 0.36492543666571375 0.5014878176625683 0.1907155718800925 0.47714681578261403
          0.5036549804351192 0.4505948393444702 0.3351996242802798 0.2507144158800639 0.530409164240006 0
          0.055735659629853496 0.4212628643734776 0.11146967367907008 0.5571802653516121 0.3064483859553105 0.16721018848458002
          0.39189382335367884 0.5334611569200342 0.5069018630846294 0.5593755339357402 0.22294057937073064 0.4772019719244221
          0.5861193938324988 0.36314425069990025 0.2786879259065505 0.44784391504120064 0.6128640729632889 0.5892168120972351
          0.5632415647240705 0.6151047660969587 0.4188831927013637 0.33441905723256227 0.5335481381830776 0.6417971084073927
          0.5037902151655056 0.3901790667209061 0.6685165061166718 0.4748322316428199 0.6195359681493019 0.6455177887346811
          0.5893151551923933 0.6697596596660594 0.5595754588989154 0.4459107411097017 0.696413835236366 0.5305809613949023
          0.7241311151304529 0.6758906970094513 0.6456779588434615 0.7002349369359084 0.5016903462703974 0.6153531368763501
          0.724443038319923 0.5863692142621988 0.7520439093971609 0.5574284143514369 0.700400100300419 0.7280693835974527
          0.670117458834789 0.7796881674693973 0.7524211091671296 0.7751491079839266 0.642141602940063 0.8027014419733286
          0.6132388289702391 0.7526639794013069 0.7248681650278606 0.7803557899575967 0.8032471445268922 0.6968894593025075
          0.8350934042833387 0.8259331434973514 0.8433621882999366 0.6689901867028418 0.7757024895806783 0.8034778847678169
          0.8261973608035148 0.8490436461468649 0.8667157452165104 0.7527125131588385 0.8904936297710698 0.7248079694939444
          0.8988052645124114 0.8265517722800254 0.8493827094286953 0.8876603484782625 0.8723790910647333 0.9072693458991208
          0.8035919269541418 0.9110751883553428 0.9283234614590136 0.7805009208537473 0.9456638628522936 0.9123839590299567
          0.8677211659749535 0.8884305013265956 0.9539276886399779 0.9114602444294125 0.8446180309110224 0.9496496306722424
          0.9511415580022565 0.9721579048163053 0.9524037814145899 0.8363451382326232 0.9515825222929173 0.9087567276737817
          1.0004718150072915 0.9296927139878667 0.9936612891256565 0.95060711119053 0.9857988316645325 0.9005076544014211
          1.000096217578385 0.9870716270903489 1.0184315526977492 0.9863077645491439 0.892271980438319 1.0368665532199428
          1.0013801030096126 1.0222638233965562 1.043667120714887 1.0547025984450256 0.9744217633095031 1.0366913538257105
          0.9956997026132223 0.9562821112364883 1.0506647079159208 1.037504997338219 1.0726556550450044 1.0684764205955566
          1.0521587495601987 0.9481279550081363 1.0664821910353988 1.076324205642705 1.088459272351663 1.052517999400575
          1.0674468267823756 1.046283320589197 1.090414992741123 1.0830846480369385 1.108430710454516 1.1008553479433942
          1.040151388202564 1.0219284950910996 1.1238157207990693 1.1200193144077426 1.0788053980540957 1.1073231910993784
          1.1154455170404771 1.0923140496205987 1.0037359356855364 1.1089306454248669 1.10839455025032 1.0719098189738474
          1.1393937846214248 1.1307266611924807 1.1362115970977302 1.1330096382333381 1.1344109515185428 1.1043910018234164
          1.1342194550009825 1.1186108846591367 1.1549788985547935 1.1609611567102822 1.1520329370889122 1.1330005992379697
          1.0934885682669213 1.154852956114613 1.077535198405803 1.1619565731817936 1.1564052126449498 1.0594349185112026
          1.1760102640165355 1.1563008417066531 1.1707261429643165 1.1793409321792623 1.1254954040380447 1.1408702811447544
          1.1646124544945653 1.1812638298479723 1.155583072294931 1.1792202551402589 1.1869234005458509 1.1934886559951847
          1.1924335578860827 1.1881291337504707 1.1959597639689803 1.1976938163854078 1.2135308654844907 1.2044161197471095
          1.1464739022881378 1.1622614595801408 1.216592092450176 1.195513562197564 1.2079676743624466 1.1861947859051334
          1.1756952144351451 1.1304018631501984 1.2068775776199163 1.1146918790514893 1.2168825328610255 1.216116106816469
          1.2175295682547125 1.217701128921817 1.2207253822592534 1.2196582288994746 1.2125567100337409 1.2017129813396714
          1.227604277947048 1.2314500011279443 1.1878954157952073 1.200058976102121 1.1847129648577435 1.1693530273787343
          1.2267110629412354 1.2268271623485094 1.2282785820752675 1.2241573800291425 1.2415977693756486 1.2431817388158515
          1.2432805106244813 1.2321202447024622 1.2279923261157732 1.2335684874935215 1.2383992171653002 1.2415416807926831
          1.2296896163986504 1.24313090792797 1.2426417915345676 1.2327429272685824 1.2480815840201211 1.2430215912960159
          1.235093025171359 1.2342555826020283 1.3087747979746664 1.2762876561476266 1.2620074419591976 1.2652326938553105
          1.3185268507919061 1.3161686082527868 1.266948875895812 1.2590868090241387 1.2446052906429956 1.2451105561019342
          1.3262644851552274 1.2742712643218426 1.2892270756592237 1.279581390305246 1.335909331600673 1.2803192451660632
          1.3348692095156494
        </DataArray>
        <DataArray type="Float64" Name="Temperature" format="ascii" RangeMin="-0.0017404356606957978" RangeMax="131.3122020641869">
          0.002304545735639203 0.003710523115722078 0.0004472071635984881 0.0023763831665722787 0.004721419946895209 0.004391415632147113
          0.005913998880975734 0.0008130609334656452 0.007041853073145401 0.0011544656722835846 0.008284670024148287 0.004482682627688595
          0.0030449624966972727 0.012643141745860554 0.006416657737325591 0.008981596804426237 0.014247238549314083 -0.0017404356606957978
          -0.0005399185080447893 0.007830798323326399 0.020503369278117852 -0.00026951272230141824 0.016316525898823816 0.02299767962181678
          0.0015524627027180965 0.012345679994571609 0.033415484368623405 0.0020333594823622493 0.0026060306322342078 0.004150498001652325
          0.027222798456011426 0.003387752966466948 0.02146343369478472 0.038501149629802285 0.0063465981635835444 0.0059154076794677045
          0.055711110395383456 -0.0006487382324185379 0.0467488593281573 0.004996260904665969 0.03271547633060096 0.008844100161896417
          0.062023840450802135 0.010042345023174214 0.007376881855289188 0.08979759139173335 0.016466455125011405 0.012269966069895024
          0.05430262396537531 0.07883018813964666 0.0012863573972345301 0.0006175085978647075 0.019184132892065973 0.10293972288231659
          0.0025620270026288712 0.019332146008182893 0.023838238278975972 0.1485225019666336 0.0068313172997028606 0.0848691732047317
          0.130034903354722 0.0315709142224984 0.03149392280226772 0.013698225341419179 0.1674604884303065 0.006001710991192739
          0.0064765943828547804 0.04112969872215447 0.010323828614926877 0.23846040151835252 0.02306529960235417 0.014676008346327455
          0.05104844166279575 0.1361974501367726 0.05865714628134231 0.2147724179904726 0.019852913288595214 0.06267869445212133
          0.27323568655765273 0.04144964061725818 0.030006756764950196 0.0828582731427579 0.3928205034484004 0.22652931386535907
          0.09893944285881971 0.34526093629914567 0.06919509456355595 0.045491409400623975 0.10411684721168417 0.44773925281917404
          0.13297359546424672 0.07094148597631496 0.6271721153322656 0.11767774436098795 0.16271425875341256 0.3579793103983034
          0.15974037539328992 0.5651033481970796 0.21641881385740624 0.11058509259103556 0.7131386187983838 0.19547245845732222
          1.0310148879956595 0.2728857637354203 0.26488056283477945 0.5646738999939177 0.17430850813163373 0.34409501681205285
          0.8872841681995363 0.3248675455897188 1.1624600560801341 0.276170540673348 0.3846278169487996 0.4346342102312252
          0.5345617916896069 1.639778463062663 0.8639047032354205 1.3613311185663208 0.5378934017856405 1.778871318842205
          0.4382525857245748 0.6013890849200989 0.8063920857418871 0.6838194127595474 1.2682251874434736 0.8425847662712553
          2.7373832120936847 2.0405609367054076 2.572637735751337 0.702236092041886 1.0847718634154568 0.8629086047983476
          0.9735076727219957 1.8249777088280712 2.9887845893611398 1.3997609128296329 4.321650575904238 1.1368660945014235
          4.104961119235029 1.496639471646949 1.2917429305506607 3.284743598453698 1.4436791338181914 4.201294902955552
          2.0935644051722297 2.84182979320032 4.848677099523547 1.80803723584041 6.94002339133614 1.8267913322496325
          2.7962257036836338 2.2655911811480927 6.572391459733254 2.0830407505796265 3.2058818813664227 5.1784491373796975
          3.871376853287221 7.322283878012789 2.497520239708529 2.943669649878465 2.856263878679146 4.75255923499818
          10.77723712478641 3.924126046905706 8.404034090971772 3.5242427017227382 5.180922160090995 5.044663721796411
          7.820003165494796 3.2689489743961917 11.01008608955177 3.7738864555027294 4.86165300397899 12.25221014703673
          5.353419515367154 4.276650644649395 12.522233496838666 17.4119039460766 8.282693245940266 7.577508489298562
          6.818356224756247 8.172449577740313 11.701729408604987 5.573256653587331 16.974484394883792 15.876576978941076
          5.167406936385984 7.684701328858254 9.555888029927925 15.161942498293008 18.348479467595382 7.887002870854726
          7.211452863777703 9.770615752170954 15.120992442681581 6.403984175203288 26.308125455306914 19.22339402860197
          14.000489636516333 13.979936907944113 25.700764805779297 23.855441384673398 9.801808373310145 11.543303587348829
          20.053106448804588 10.731805004489203 11.987659568659964 7.698143280315861 9.024575530024046 14.613655291400903
          26.92356878565883 19.067147803627325 25.18231838237575 13.518349299905111 9.150220631269304 13.894768397638467
          10.651158872632143 13.357912897948607 31.217419169537667 40.81434523918148 26.37831051481628 13.964116235954164
          22.67346852698211 16.068786314697764 22.027646557349847 23.722775408520825 10.418327025734575 18.87116111317201
          37.79649410565752 12.706656546555333 32.559585197800686 37.6551073979748 24.067172115828207 16.944152467369285
          17.914477784181276 32.79757679224731 17.267727579045147 11.646319919066531 19.33116815412806 41.00487857204063
          29.42386531068305 15.485335492759813 39.27092550433168 12.981826651277734 59.0019953352705 21.680536537440044
          35.76613180831339 30.89103934131572 47.85861696928676 22.390441131967272 38.07162767874541 21.922378156857757
          20.758314901835917 33.58581188670556 17.89909523500358 28.967523020710384 50.08290073101885 31.85050089596037
          14.027425507912886 48.25352476471434 46.015175054055035 25.668669071958043 26.05592362889654 24.890539555738826
          43.32078248622766 19.00086060869687 45.39095540478893 33.66307082159584 50.515122116533504 44.19909796643053
          34.803381815771445 54.57824462694311 67.8591477017184 65.10115150091173 28.54135880358887 17.32257764649883
          19.936223512573168 15.8843337302718 28.446564485538815 31.944002370064442 34.014013035486656 23.044153573548275
          22.13830445039546 55.192912106071574 45.94346269392582 50.33237120824171 61.12414830513177 58.22767146435848
          53.4043312962315 55.65152489066755 84.29419418567116 73.34537163111699 67.16883501923293 64.71411732583842
          111.20047244849117 82.69650765161809 85.6586357029362 36.430050816693175 31.570631479792873 44.452721461061415
          113.5868690627103 81.33257985183867 62.463036417381595 94.9927223395855 121.12186248033021 91.09755274426001
          131.3122020641869
        </DataArray>
      </PointData>
      <CellData>
        <DataArray type="UInt8" Name="vtkGhostType" format="ascii" RangeMin="0" RangeMax="0">
          0 0 0 0 0 0
          0 0 0 0 0 0
          0 0 0 0 0 0
          0 0 0 0 0 0
          0 0 0 0 0 0
          0 0 0 0 0 0
          0 0 0 0 0 0
          0 0 0 0 0 0
          0 0 0 0 0 0
          0 0 0 0 0 0
          0 0 0 0 0 0
          0 0 0 0 0 0
          0 0 0 0 0 0
          0 0 0 0 0 0
          0 0 0 0 0 0
          0 0 0 0 0 0
          0 0 0 0 0 0
          0 0 0 0 0 0
          0 0 0 0 0 0
          0 0 0 0 0 0
          0 0 0 0 0 0
          0 0 0 0 0 0
          0 0
        </DataArray>
      </CellData>
      <Points>
        <DataArray type="Float32" Name="Points" NumberOfComponents="3" format="ascii" RangeMin="1.2206555547371665" RangeMax="7.102112369882704">
          7 -1.2000000476837158 0 6.75 -1.2000000476837158 0
          7 -0.8999999761581421 0 6.75 -0.8999999761581421 0
          6.5 -1.2000000476837158 0 7 -0.6000000238418579 0
          6.394499778747559 -0.9138727188110352 0 6.644499778747559 -0.6138727068901062 0
          6.25 -1.2000000476837158 0 7 -0.30000001192092896 0
          6.144499778747559 -0.9138727188110352 0 6.289000034332275 -0.6277452707290649 0
          6.74733304977417 -0.30000001192092896 0 6 -1.2000000476837158 0
          6.3918328285217285 -0.31387269496917725 0 6.0198750495910645 -0.618924081325531 0
          5.875374794006348 -0.9050514101982117 0 7 0 0
          6.74733304977417 0 0 6.139166831970215 -0.31387269496917725 0
          5.75 -1.2000000476837158 0 6.494667053222656 0 0
          5.7507500648498535 -0.6101027727127075 0 5.625374794006348 -0.9050514101982117 0
          6.242000102996826 0 0 5.870041847229004 -0.30505138635635376 0
          5.5 -1.2000000476837158 0 7 0.30000001192092896 0
          6.74733304977417 0.30000001192092896 0 5.989333152770996 0 0
          5.4964599609375 -0.6214873194694519 0 6.3918328285217285 0.31387269496917725 0
          5.617374897003174 -0.30505138635635376 0 5.371085166931152 -0.9164357781410217 0
          6.139166831970215 0.31387269496917725 0 5.736666202545166 0 0
          5.25 -1.2000000476837158 0 7 0.6000000238418579 0
          5.24216890335083 -0.632871687412262 0 6.644499778747559 0.6138727068901062 0
          5.363083839416504 -0.3164358139038086 0 5.870041847229004 0.30505138635635376 0
          5.121085166931152 -0.9164357781410217 0 5.484000205993652 0 0
          6.289000034332275 0.6277452707290649 0 5 -1.2000000476837158 0
          5.617374897003174 0.30505138635635376 0 6.0198750495910645 0.618924081325531 0
          5.11041784286499 -0.3164358139038086 0 4.991260051727295 -0.6318150162696838 0