<?xml version="1.0"?>
<VTKFile type="UnstructuredGrid" version="0.1" byte_order="LittleEndian" header_type="UInt32" compressor="vtkZLibDataCompressor">
  <UnstructuredGrid>
    <Piece NumberOfPoints="307" NumberOfCells="134">
      <PointData>
        <DataArray type="Float64" Name="Velocity" NumberOfComponents="3" format="ascii" RangeMin="0.3715356987390459" RangeMax="0.5097487665729453">
          0.4635643071097345 5.0189204462927804e-8 0 0.46356642131262243 0 0
          0.463569515297929 0.000001958519496130471 0 0.46357263700946133 0.000004360037028616023 0
          0.4635703726494828 0 0 0.4635616063007239 0.000005088122344222488 0
          0.4635795999919851 0.000008167397563441044 0 0.46356460450615 0.000009274488708809816 0
          0.46357754373565235 0 0 0.4635610406851705 0.000006292323520456931 0
          0.4635873564432561 0.000009994406380103621 0 0.46357053777979634 0.00001669978876349797 0
          0.46356179231432193 0.000010439182634632713 0 0.4635862713533684 0 0
          0.4635656641192224 0.00001901256983450432 0 0.46357770372448004 0.000024228572694478302 0
          0.4635992251679677 0.000017402698071933832 0 0.4635546841913182 0.0000065643928933706935 0
          0.46355460405259347 0.000010930844928407508 0 0.4635683386111671 0.00002737331191264998 0
          0.46360095437895754 0 0 0.4635545793627927 0.000019025955801649607 0
          0.46358688774369994 0.00003692044124774283 0 0.46361548068147557 0.000021577315566242554 0
          0.463554448315928 0.000024692326107375336 0 0.46357375007275237 0.00003965311816525286 0
          0.46361911151751056 0 0 0.4635493520718861 0.000006168396130170524 0
          0.4635485566118438 0.000010425945795153202 0 0.4635544018602547 0.000038333685085897246 0
          0.46360296226644043 0.000048389752630749146 0 0.46354462572451427 0.000018708508806228898 0
          0.46357907915311514 0.000056728445973623214 0 0.46363783631834693 0.00003337172902182644 0
          0.4635418871554755 0.00002720044785785027 0 0.4635539523735531 0.00005007708923708446 0
          0.46364779598393235 0 0 0.46354762478702 0.000004976446906469495 0
          0.4636231804389533 0.00007206396153154838 0 0.4635444409158681 0.000009193770915614067 0
          0.46359052906111753 0.00007835910162877068 0 0.4635363653795799 0.00003874242321370412 0
          0.4636705523145018 0.00004070426489010398 0 0.4635534576541718 0.00007446671286104382 0
          0.4635385737139388 0.00001627698191237323 0 0.4636828483504932 0 0
          0.4635306717701882 0.00005563384553449439 0 0.4635313544062234 0.000023595153145305675 0
          0.46360077284815376 0.00011115809446056714 0 0.46365415866107523 0.00009524304326777953 0
          0.4635411983051231 0.000002084330784003329 0 0.46353818877882164 0.000004229940213628246 0
          0.46355177059864744 0.00009811420399775883 0 0.4637134260136601 0.00006569273688182122 0
          0.4635313918885548 0.00000800186186517393 0 0.46352234274500176 0.000035398307656861754 0
          0.4635187427139906 0.00007517395854404781 0 0.4637402319284571 0 0
          0.46352399141830875 0.000009757905960593232 0 0.46361923062143967 0.00015375415956586752 0
          0.4636920042202192 0.0001417693184321709 0 0.4635496573635456 0.00014305240641324798 0
          0.46350668661695293 0.000046400177632715316 0 0.4635126995119271 0.000016820624216344502 0
          0.46377684873126396 0.00008053349604467575 0 0.4635446698020173 1.0078116671093016e-7 0
          0.4635423890277155 0 0 0.4635068989599257 0.00010686108726980991 0
          0.4635384311698835 0 0 0.4638104953204139 0 0
          0.4634974255645026 0.00002059620073543805 0 0.46353128617226924 0 0
          0.46348735696788385 0.00006710815149511075 0 0.4636380258557361 0.00021858614686005545 0
          0.4635434030933024 0.00019081884924916975 0 0.46375241465945416 0.0001913787860853313 0
          0.463522672383193 0 0 0.46348585210087984 0.00014314726733662201 0
          0.46386005889213555 0.00013380277232341613 0 0.4634764111937116 0.000031350358475823586 0
          0.4635084012954014 0 0 0.463457956411046 0.00008787772758654369 0
          0.46392784140831117 0 0 0.4636676356786274 0.00030505311711139036 0
          0.46353502656386253 0.0002749474315519767 0 0.4638251560604031 0.00028524227335604066 0
          0.4634464359029651 0.000037782111285041835 0 0.46349102041750695 0 0
          0.46346124164346175 0.00020275821409958847 0 0.4639838245850392 0.00016457534127287135 0
          0.4634226315620848 0.00012608593169992138 0 0.4634639146046329 0 0
          0.4640715618706401 0 0 0.4634074376731436 0.00005892615882405447 0
          0.4635121639339014 0.00036939187671444356 0 0.4636987477758447 0.00043405607643930534 0
          0.46342098643547314 0.0002691594810884211 0 0.4639206201635564 0.00040536114887034717 0
          0.4633683856991864 0.00016588437904254013 0 0.46343122590624974 0 0
          0.4641356427065364 0.00030188981455158515 0 0.46335163454736344 0.00007119747242800766 0
          0.4643248428636675 0 0 0.46348124129350776 0.0005279979952970362 0
          0.46336925808301754 0.0003785186154086746 0 0.46371427286654787 0.0006189327887672319 0
          0.4633796238689483 0 0 0.4633038459995784 0.0002344407914673534 0
          0.46402471377920124 0.0006135632947015143 0 0.4632800377940882 0.00011059788950359423 0
          0.4643705024748527 0.00038410681722388535 0 0.46331732642025447 0 0
          0.46330343889682574 0.0005009156872300458 0 0.46340340437057687 0.000696739541256789 0
          0.4632222426930096 0.00031940537299012005 0 0.46464078669708525 0 0
          0.4637441492746806 0.0008519411119106667 0 0.464136920677684 0.0008776364317587268 0
          0.46317890828745717 0.0001336357792991221 0 0.4646210411542991 0.0006924387484835402 0
          0.4632205659504298 0 0 0.46320192087326123 0.0006809694498992098 0
          0.4631304552263493 0.0004501434919782484 0 0.4633023797154569 0.0009628242017251671 0
          0.463670109581418 0.0012278874647490567 0 0.4630597710014231 0.0002206182766127901 0
          0.4650610157105436 0 0 0.46424495631290197 0.0013106788125965148 0
          0.46507189512669916 0.0006099073324760791 0 0.4631040834130642 0 0
          0.46303093228310804 0.00060811295825574 0 0.46307544716388693 0.0008619589220326523 0
          0.4630661080210213 0.0012259845149984428 0 0.4636276593103818 0.0015504227461475713 0
          0.4647330667304128 0.001453957602963487 0 0.46288816975252933 0.0002707412809311418 0
          0.4655859100336975 0 0 0.4629234145653078 0 0
          0.4658497450314277 0.0007153937345291582 0 0.46292470788352735 0.0008052951819745155 0
          0.46287332234093675 0.0011499619746894612 0 0.4643071576880097 0.001995160660077146 0
          0.46281085010252526 0.0015944966649710586 0 0.4652653197815905 0.0016914836146924223 0
          0.4627155786207525 0.0004232928734107319 0 0.4632496740134233 0.0025165332806678484 0
          0.46511366469789805 0.002457100828938029 0 0.46270472468168095 0 0
          0.46641463023852076 0 0 0.462075552884039 0.0020078097715665183 0
          0.4626067749046082 0.0009052801842832589 0 0.46273190745148995 0.001159417931045888 0
          0.4668697297455637 0.0012046921608507878 0 0.4625002525820196 0.0014102046766570854 0
          0.46236785372344313 0.0002475125996217638 0 0.4643402955748219 0.0032956307687745817 0
          0.4627517722882117 0.003002667421059796 0 0.4662309165761287 0.0025124390442606255 0
          0.46130740058356107 0.002465943694404273 0 0.46251936827791584 0 0
          0.46184186522338494 0.0018345518330227964 0 0.4620807634912852 0.0008539896339669911 0
          0.46772169505085975 0 0 0.46244480138566874 0.0011416141331644983 0
          0.46606762174008864 0.003747907187514038 0 0.4625228471680186 0.0013101377656511075 0
          0.46209827184231916 0.003924049253636028 0 0.46209384353460103 0.00047659167338669157 0
          0.4646658894400199 0.004672414760371952 0 0.46040050661438786 0.002994996032712258 0
          0.46855231268998926 0.0018797873306144804 0 0.46104879010397876 0.0019614946921107865 0
          0.4621021104229627 0 0 0.46772970670330954 0.0038389252522260495 0
          0.4626221810972694 0.0015426985709671751 0 0.4590737390681387 0.0036290294496153035 0
          0.467177224986433 0.005501215437784851 0 0.4698260664076072 0 0
          0.4613810529530596 0.001030473893638556 0 0.46044317162855003 0.005842322955522339 0
          0.46214036835612665 0.0015560407155826253 0 0.4616925512248789 0.0004170456140299565 0
          0.4650680851182766 0.006675102533569016 0 0.45923283460446546 0.0018290701565078732 0
          0.47061240424406703 0.002437780744199388 0 0.468564387056543 0.005852387249277938 0
          0.45637988818965514 0.004183025622429297 0 0.46160732742958 0 0
          0.4592386005619156 0.006762016087512731 0 0.46682739479487345 0.007630471842998341 0
          0.470151955880225 0.0047819314409294515 0 0.46275983980857416 0.00135075616600801 0
          0.4578635741744176 0.002217111180091588 0 0.4621392042654566 0.0015022782406124398 0
          0.4633079523230837 0.009050411815655671 0 0.4534233982788722 0.004931484059327987 0
          0.47247486605083266 0 0 0.46865410560516957 0.008329125195815764 0
          0.4604523389938275 0.0013706075187695625 0 0.46104670109115303 0.0005479425935164031 0
          0.47353523053335156 0.0028018218354706284 0 0.4714722528242358 0.007484906331144055 0
          0.46286409428817354 0.001465653000150908 0 0.45480294343239713 0.009564113026117706 0
          0.4674295767129919 0.011157525248752525 0 0.4609847602097325 0.0009772377348962844 0
          0.4611647954111694 0 0 0.4482026206130231 0.005502721753908618 0
          0.4536035496578669 0.0013703725737354271 0 0.4615755991712278 0.0017480968273091292 0
          0.4733903737152561 0.006063772164120375 0 0.4604662472352443 0.013358389345496833 0
          0.4710092259199254 0.011337593748697576 0 0.4503601529998083 0.01003291165536243 0
          0.44320999500473446 0.006161269668885634 0 0.4626547128697145 0.002109357897568053 0
          0.44906026287106654 0.0022216818708285855 0 0.4639341330396113 0.00011551341267078611 0
          0.47407985801210856 0.00983121579906691 0 0.4761156901733489 0 0
          0.46884810464407967 0.01410060328774772 0 0.458235499106171 -0.0012718130287222489 0
          0.4592665051304606 0.00158690826415065 0 0.4454690531078834 0.01300288049766183 0
          0.46035655670491205 0.0005789937739752634 0 0.45891483752758566 0.016373732209895797 0
          0.4377625931434877 0.0068061976503700165 0 0.4607171223787178 0 0
          0.4776425437083788 0.003642327961418928 0 0.4440617216314646 0.0004907855151538637 0
          0.4736055137250038 0.013883427396823893 0 0.4758982504361688 0.009120265824246382 0
          0.4606512075332209 0.002058182333626029 0 0.4642563621634557 0.0009170561458099975 0
          0.4569389538856913 -0.0024994574494727295 0 0.4713811662443539 0.01997418473418365 0
          0.46516481252744013 0.0002894380373976628 0 0.42991664446515765 0.008044376846549437 0
          0.4360490900131037 0.017085220673401617 0 0.47704196991098624 0.011207498456863765 0
          0.455708583549372 0.021913061214792428 0 0.43383757851562943 -0.0011617738452501926 0
          0.47915623997235524 0.0198653187286319 0 0.41814704973258177 0.007889835643058405 0
          0.4808332246037917 0 0 0.42926505901647344 0.01921643666892374 0
          0.45777849740074683 0.0017787528871953293 0 0.46125581175482633 0.002337284024245732 0
          0.4815733750249295 0.006260073005432549 0 0.45269517622442806 -0.006217777769267977 0
          0.46846920999346287 0.02453373683930205 0 0.469387788055918 -0.004994367440627275 0
          0.4656302179562617 0.0028683760447819878 0 0.4596644328975013 0.0004086369642825885 0
          0.4270511876961432 -0.0032685502866625763 0 0.4602221859920051 0 0
          0.47715710640149167 0.010242759037427964 0 0.445094669434808 0.025791443146749818 0
          0.4043302058977824 0.008286852138635413 0 0.4863516898129282 0.020412100899632142 0
          0.47991873443302047 0.026314300643810115 0 0.4426246862876271 -0.008480623062549712 0
          0.46703012128918914 -0.006733678923085717 0 0.47661408884464346 -0.0017124836914063231 0
          0.467161565910501 0.03487724023665002 0 0.4069274126899197 -0.005226634406400789 0
          0.45527964648941255 0.001208584484521031 0 0.4617561449026421 0.009489000491581008 0
          0.45881847207091253 -0.0004100267706961058 0 0.460770064843532 0 0
          0.4774712953173927 -0.0019718617238177814 0 0.4477404836498835 0.008641803863249132 0
          0.45691378856883574 0.00028490696382617835 0 0.4623326589489675 0 0
          0.4260802637709214 -0.01694931831335103 0 0.3714201821036458 0.009264111592897785 0
          0.3900026846369021 -0.0033518086256344648 0 0.3869441305264741 0.00898886695175091 0
          0.4791876514771297 -0.007533101434506803 0 0.46603875918256826 -0.016432852854532328 0
          0.4287347500252265 0.0354284159220635 0 0.39154817778823936 0.021867004499987304 0
          0.4084549118387057 0.023176332606061015 0 0.48454523775299674 0.03848684757893825 0
          0.4575045240626141 0.040824726331494005 0 0.4847983023440545 0.03325392010971782 0
          0.500154210493573 0.027344553509023865 0 0.49317401615983597 0.03484268861557837 0
          0.4882624268280757 0.02783342499006008 0 0.4926724384214826 0.01556495342161423 0
          0.48121826166803705 0.005900459218676072 0 0.5095655662083736 0.013665239016523249 0
          0.47971359625194687 0.007432691549692286 0 0.4856821983410671 0.005728095612086914 0
          0.4938484770802779 0 0 0.4924834230763116 0.002576540356002044 0
          0.4877378982439696 0 0 0.4985463519292902 -0.0009201306567362153 0
          0.4868219799256504 -0.005292241812179389 0 0.4797904042836864 0.009076545084150303 0
          0.4140077474698158 0.023077800393778457 0 0.4345153471839734 0.01800720853276148 0
          0.4902774153847401 0.017821900838442137 0 0.45050251951326764 -0.0004445542826413543 0
          0.4772638854245825 0 0 0.47158919058953486 0 0
          0.4439936107383293 0.005223158791581352 0
          <InformationKey name="L2_NORM_RANGE" location="vtkDataArray" length="2">
            <Value index="0">
              0.37153569874
            </Value>
            <Value index="1">
              0.50974876657
            </Value>
          </InformationKey>
        </DataArray>
        <DataArray type="Float64" Name="Pressure" format="ascii" RangeMin="0" RangeMax="2.7842582803351332">
          0 0.11588160721077566 0 0.1158815163141066 0.23176360614478736 0
          0.2806656280433003 0.16478267551588419 0.347645904647264 0 0.39654842518340533 0.3295662371943594
          0.11711626632608765 0.4635296355639377 0.2818981871240919 0.45431316606630384 0.5212972771853756 0
          0.11711528417681526 0.39901445511493844 0.5794143119778927 0.23423009505355383 0.5790615507764675 0.6371829425114601
          0.351345356232799 0.5237605037885275 0.6953017681446078 0 0.11711430051426298 0.4684606536567812
          0.696935028981251 0.2818924953578748 0.6408783817861134 0.7550595502796199 0.3990058548916893 0.5855759162118868
          0.8111913530368747 0 0.8148119532778074 0.1647774006710868 0.7587509867795943 0.5237475007538506
          0.8709511175483691 0.7026908088849407 0.32955398922771983 0.9270862869472044 0.6408602282498452 0.45429465700211225
          0.875870824408388 0.9311232999922102 0 0.11587664432901174 0.8198060818009038 0.9872687984995686
          0.2806526790577531 0.5790340020115108 0.758723820548252 1.0429858486160162 0.3965280659873588 0.9921794534209536
          1.0474402113408787 0.9369214375338951 0.6968956862303743 0.5212669303224489 1.1031717615546812 0
          0.1158765170095223 0.8758336921917733 0.23175271654784196 1.1588953618786428 0.6371395473736277 0.3476284884126588
          0.8147550681013553 1.1093043869891637 1.0540366990147285 1.1633972844280094 0.46350299700588793 0.9921269573654964
          1.2191402247414005 0.7549982478397652 0.5793764530114318 0.9310446559983002 1.2748142004513765 1.2252544467493354
          1.1711517562213447 1.2793629007605507 0.8708651983822946 0.6952473825730304 1.1092326474688732 1.3350650236872765
          1.0473298798010056 0.811116031196445 1.390751830393786 0.9871497185850465 1.2882663619727417 1.3423873031776177
          1.22515538959096 1.393146604145536 1.1632460666781084 0.9269798343777433 1.4488718599331551 1.1030057981593264
          1.5067080466349214 1.405381280226096 1.3422518382648914 1.4561544712175882 1.0428388582532455 1.2791537319787918
          1.506940481391556 1.2189114855733927 1.5648368214713715 1.1586890626802047 1.4559873734082796 1.5139648118450022
          1.392873727572102 1.6226975618349253 1.564764988575797 1.6125638707222134 1.3347468942972511 1.6705125244793289
          1.2745293994965579 1.5645433719179052 1.5065834995901992 1.6225478673137435 1.6703608046260459 1.4484449325106368
          1.7387279785096226 1.7181950143210742 1.755830947801822 1.3903534179094532 1.6121270003674726 1.6701134982081036
          1.7179207419205549 1.7657615964973485 1.803545633472797 1.5642439570298892 1.8548340505082075 1.5061575867759924
          1.871939176537058 1.717660848948894 1.7654467189726417 1.8468512634754104 1.8132973833315262 1.8889403284027773
          1.669744340268342 1.894365853787358 1.9322637334388104 1.6219304639415826 1.9710310588304338 1.8963815021691732
          1.802704778650191 1.8461973758030936 1.9881283387495368 1.8940479099696967 1.75480573499499 1.9755120572735365
          1.9774840170132952 2.0257730646872227 1.9794467349039586 1.7376680796050359 1.9770835529623814 1.8877039195315182
          2.087361689533429 1.931184918981205 2.069067567240018 1.974733748379137 2.049388102301982 1.8705022321347167
          2.080558110961502 2.051301510309686 2.1252017886739094 2.0488943169852742 1.8533637542641153 2.1627933262121135
          2.0795415286154895 2.1231777702971635 2.174271886182102 2.20387020388471 2.023938936006813 2.1543563799591716
          2.0674531260765954 1.9861217660704091 2.185612640078134 2.153737215998502 2.2417699315313735 2.2290800859580076
          2.184913129361503 1.9689867978120754 2.2161293136773192 2.2404291459413974 2.2745733140709374 2.1842870204909497
          2.215396902859271 2.1721286112941933 2.268006122525734 2.2466912412986075 2.3207047886252403 2.2952816536597695
          2.160057696078281 2.1222454730473235 2.3538986776630546 2.340959425746275 2.2383949150338567 2.2984891667295977
          2.3228723366472046 2.2665825255401084 2.084529830889335 2.2994629898236187 2.2978502331060078 2.226212741979691
          2.386727705886131 2.3503618511679196 2.37267594967045 2.3512388651893805 2.3521057785684376 2.292427581603625
          2.350495948147398 2.3206263201663595 2.4186774256085317 2.4378065427950157 2.400204628022521 2.348887726954535
          2.2707781078259255 2.396134752227888 2.2376535118747087 2.4155702649925606 2.396946069074185 2.1999470489506217
          2.4711062495835816 2.395304189649409 2.450058065056172 2.4773399743408917 2.3368963382081747 2.369186264165501
          2.413874011489244 2.465467858373262 2.397389723625373 2.441825152914929 2.4612178534636784 2.5087227435725286
          2.480644269220516 2.4602771173737756 2.508112451663347 2.4797495104856924 2.555232686936353 2.499119339004452
          2.3814406234316126 2.4137539642639947 2.5624922168334745 2.478742116877057 2.523353905518958 2.46228915428771
          2.445641717527399 2.3482921129631267 2.4981874722451813 2.315250305513169 2.567690547650034 2.530848957265124
          2.517894869121283 2.567065477375764 2.5660975881863526 2.52902543372531 2.5201830167649013 2.5035801908842816
          2.5732802277880023 2.548734534353122 2.4707311389092483 2.502526078425031 2.463241739943468 2.43026808223686
          2.5605567684484756 2.5594825371615304 2.5526847348568453 2.5449171602718224 2.5792346297869813 2.58139584102916
          2.580282866092796 2.549959235477319 2.561547057919146 2.5701451739074783 2.580926637968071 2.5811424057126673
          2.5494973000384706 2.640323554459193 2.6108229593567622 2.603389683184987 2.65668172459949 2.6481426487496664
          2.611543890812772 2.6127334776948707 2.7831350192066804 2.7219694475690357 2.677399148412016 2.672732843860657
          2.7842582803351332 2.7839543764315757 2.6736569361455214 2.6495188165797083 2.605786238196264 2.6047682135168624
          2.766571259494975 2.6656946768563423 2.7105586882086796 2.659182683026233 2.763980578232193 2.6591638809070197
          2.7647215785126913
        </DataArray>
        <DataArray type="Float64" Name="Temperature" format="ascii" RangeMin="-0.0006519443555169212" RangeMax="50.42883656385064">
          -0.0006519443555169212 0.00004803895290879084 0.000024282885216307146 0.00018513794812142722 -0.00006774258928369972 0.00044554044860057554
          0.0005619452151743156 -0.00011222115741858217 0.00001270389759101901 -0.00012150774740202058 0.0005742820273136018 0.00027988187135162074
          0.00013841962483702563 0.0002171124527835473 0.0004698584507500241 0.00029125367994577346 0.00079405352666866 -0.00005071586626930768
          0.00014081778225129242 0.00042490097084862065 0.0003061603268710075 0.00022843376646946965 0.00043427055130207615 0.0010261750040431855
          0.0003433325181830528 0.0006548816040175833 0.00048335724521765804 0.00007574148456964796 0.00010223626312970082 0.0005249156268409506
          0.000666534798258394 0.00020213327446246432 0.000863758125962279 0.0012595758805776288 0.00042354506675881413 0.000616125701856525
          0.0008435688149037052 -0.00027008594274487277 0.0010567717020661966 0.00036052044698956583 0.0010728745279820291 0.000531718510945814
          0.001747385766834783 0.0008065730600827548 0.0004994637566059238 0.0012170050740218387 0.0006938859127994372 0.0006705770568480652
          0.0014949608775110107 0.0017070857730653868 0.000004891445748671452 0.00009191029839137016 0.001017373876901805 0.002482198449332684
          0.0000828875207886457 0.0008911057759089897 0.0009550714043605728 0.002382677250498753 0.0003430549301754564 0.0019537088961367947
          0.0027281580896330307 0.0013520709519809946 0.001132786805103151 0.0005089222529990997 0.003772568843717362 0.0005204124347506049
          0.00018254483568605942 0.001228067072318295 0.0004887681030165701 0.003998030129269006 0.0006938434414046051 0.0006761041065019362
          0.0015372129564267673 0.0029809146788563404 0.0018335484572805324 0.004482634138486325 0.0007588436843147933 0.0019077727011784693
          0.006889409466736768 0.0010293161701707032 0.0009782853978197769 0.0020859563516965295 0.007632158598704245 0.004830006557349236
          0.0033665533274801628 0.0074429685826805725 0.001510822794172584 0.0012937051441271115 0.0027305682019120683 0.01127788164266128
          0.0031364874874879765 0.001675215332173868 0.014430855633411739 0.002392571809544925 0.0044147287383755765 0.008404459735802651
          0.004491098131258658 0.014038317788878235 0.004990738749270779 0.0024573243178296978 0.02109423764212545 0.004035933002875602
          0.028762505974468 0.00887827224732101 0.007537689045191878 0.014129852694885224 0.003540366370412529 0.008539121727794955
          0.024237705235252625 0.007099344728662994 0.038338945795847436 0.0058494522256474024 0.012671135041363165 0.013676449349204214
          0.014622482571074751 0.0540653033710795 0.02575455936216073 0.043361919476552935 0.013206101817104642 0.06854609260610772
          0.009577135108021545 0.02119960315136189 0.02656103748201829 0.024633619512515154 0.043428146840807966 0.023438214364765876
          0.10714802582465041 0.0798775027984026 0.11140092668725829 0.017311359144036163 0.041094773138276225 0.035355678726425976
          0.04024552924843157 0.07071744767498367 0.1372490424697213 0.04603102451859985 0.20171520808358337 0.031741280087134414
          0.2171232675998099 0.0686108584299057 0.055831427182029734 0.14261914035207393 0.07167783477982372 0.2246379124698044
          0.08091870636746025 0.14179041522673724 0.26712818557765444 0.059100942871538165 0.3986329169953642 0.10052687687197394
          0.14531020815039614 0.11532125796352376 0.42777442541904726 0.11591305750655478 0.135567439646261 0.2778147142875697
          0.21109912902432384 0.5099081480946388 0.16329475219722822 0.12100351741284905 0.17171758231446024 0.2727062321430514
          0.7571394031687114 0.2519919337565635 0.5984728191697021 0.21444682332747064 0.31376377849356896 0.2543665549154067
          0.49605278436274347 0.24939421645277893 0.904851177400254 0.2544743795870827 0.23770270755147174 1.1022874755787773
          0.37735990058176444 0.37362501594538744 1.0746451522629517 1.5937717600735837 0.6116599256213593 0.5561627243570684
          0.5714436154329786 0.5104455799905946 0.9069314679094053 0.449716130151433 1.7507183531061414 1.5948543643139934
          0.5023934947617262 0.45774512716974664 0.7852475392978047 1.3914894181272628 2.1071410710987015 0.6725117137541354
          0.6466999854503204 0.9797668859535941 1.3327959984323206 0.7019780306485106 2.9973114221964567 2.0745077721820673
          1.3164238025657569 1.0962076536056824 3.295115952105001 3.0678935355079537 1.0460176501946161 1.165719825354741
          2.108634917058726 1.014760652044284 0.858346272227919 0.9210197880438404 0.9906352748277292 1.6716419315499274
          3.9243699387350524 1.964037307398098 3.1905769752417608 1.497446586162491 1.230943398940392 1.8039748680949124
          1.2853154906276207 1.5788235352156161 4.807101944599066 6.275435936908945 3.286817630038786 1.5128162091324344
          2.6183841482952737 1.9222690433754153 2.157213732715879 2.802122933611511 1.5665502962639788 1.7254319438643644
          6.340901343567322 1.6502592806652627 4.848854671731439 6.9876812187833 3.400758560511188 2.5734361825436562
          2.2111960111056317 4.731700891183666 2.3745629585217807 1.9650599880027997 2.6997907788976674 7.594255548961397
          4.013220559675692 2.3073679919392798 6.689508200192799 2.37153713614907 11.718427658741586 3.29520171979207
          5.019422555960918 5.2949841775200746 10.133589213016371 3.123695492402169 6.170273756842365 3.470625289784152
          3.695019913911165 4.0381607246010365 2.8766274190151604 3.240475095847955 11.494255837359294 4.896096696955219
          2.8413495671767 10.015330788262307 8.89805474785476 4.004098953375361 4.479663660131759 4.95919494841749
          7.8097115095323035 3.629388465306793 8.545598443292201 7.363467462337005 7.732473428241669 6.614565663637698
          8.619067242135161 13.534183510839927 13.000841743561903 12.442824347980714 5.074449443901455 3.9357458209972287
          4.167771778908169 3.360025526019212 6.30838428161782 5.893023637215367 5.9999088710600805 4.588049033228814
          4.003514580078461 12.485274977616127 9.036787159401278 10.535636103186386 16.117856424856505 14.303449400357694
          12.08402578864715 13.5103949508898 38.4311604523916 24.894084919364502 22.07903790160923 18.473496500883233
          44.28145561519508 31.511618612700225 24.765057022027662 11.728962514135757 8.47602230867358 12.700264979160382
          50.42883656385064 27.729985992628595 24.370597213027732 23.367120147272818 47.501278299393945 26.148128888286074
          41.258000274972275
        </DataArray>
      </PointData>
      <CellData>
        <DataArray type="UInt8" Name="vtkGhostType" format="ascii" RangeMin="0" RangeMax="0">
          0 0 0 0 0 0
          0 0 0 0 0 0
          0 0 0 0 0 0
          0 0 0 0 0 0
          0 0 0 0 0 0
          0 0 0 0 0 0
          0 0 0 0 0 0
          0 0 0 0 0 0
          0 0 0 0 0 0
          0 0 0 0 0 0
          0 0 0 0 0 0
          0 0 0 0 0 0
          0 0 0 0 0 0
          0 0 0 0 0 0
          0 0 0 0 0 0
          0 0 0 0 0 0
          0 0 0 0 0 0
          0 0 0 0 0 0
          0 0 0 0 0 0
          0 0 0 0 0 0
          0 0 0 0 0 0
          0 0 0 0 0 0
          0 0
        </DataArray>
      </CellData>
      <Points>
        <DataArray type="Float32" Name="Points" NumberOfComponents="3" format="ascii" RangeMin="1.2206555547371665" RangeMax="7.102112369882704">
          7 -1.2000000476837158 0 6.75 -1.2000000476837158 0
          7 -0.8999999761581421 0 6.75 -0.8999999761581421 0
          6.5 -1.2000000476837158 0 7 -0.6000000238418579 0
          6.394499778747559 -0.9138727188110352 0 6.644499778747559 -0.6138727068901062 0
          6.25 -1.2000000476837158 0 7 -0.30000001192092896 0
          6.144499778747559 -0.9138727188110352 0 6.289000034332275 -0.6277452707290649 0
          6.74733304977417 -0.30000001192092896 0 6 -1.2000000476837158 0
          6.3918328285217285 -0.31387269496917725 0 6.0198750495910645 -0.618924081325531 0
          5.875374794006348 -0.9050514101982117 0 7 0 0
          6.74733304977417 0 0 6.139166831970215 -0.31387269496917725 0
          5.75 -1.2000000476837158 0 6.494667053222656 0 0
          5.7507500648498535 -0.6101027727127075 0 5.625374794006348 -0.9050514101982117 0
          6.242000102996826 0 0 5.870041847229004 -0.30505138635635376 0
          5.5 -1.2000000476837158 0 7 0.30000001192092896 0
          6.74733304977417 0.30000001192092896 0 5.989333152770996 0 0
          5.4964599609375 -0.6214873194694519 0 6.3918328285217285 0.31387269496917725 0
          5.617374897003174 -0.30505138635635376 0 5.371085166931152 -0.9164357781410217 0
          6.139166831970215 0.31387269496917725 0 5.736666202545166 0 0
          5.25 -1.2000000476837158 0 7 0.6000000238418579 0
          5.24216890335083 -0.632871687412262 0 6.644499778747559 0.6138727068901062 0