<?xml version="1.0"?>
<VTKFile type="UnstructuredGrid" version="0.1" byte_order="LittleEndian" header_type="UInt32" compressor="vtkZLibDataCompressor">
  <UnstructuredGrid>
    <Piece NumberOfPoints="32" NumberOfCells="40">
      <PointData>
        <DataArray type="Float64" Name="nsi_BC" NumberOfComponents="3" format="ascii" RangeMin="0" RangeMax="0">
          0 0 0 0 0 0
          0 0 0 0 0 0
          0 0 0 0 0 0
          0 0 0 0 0 0
          0 0 0 0 0 0
          0 0 0 0 0 0
          0 0 0 0 0 0
          0 0 0 0 0 0
          0 0 0 0 0 0
          0 0 0 0 0 0
          0 0 0 0 0 0
          0 0 0 0 0 0
          0 0 0 0 0 0
          0 0 0 0 0 0
          0 0 0 0 0 0
          0 0 0 0 0 0
          <InformationKey name="L2_NORM_RANGE" location="vtkDataArray" length="2">
            <Value index="0">
              0
            </Value>
            <Value index="1">
              0
            </Value>
          </InformationKey>
        </DataArray>
        <DataArray type="Float64" Name="nsi_FIXNO" NumberOfComponents="3" format="ascii" RangeMin="1.4142135623730951" RangeMax="1.4142135623730951">
          -1 -1 0 -1 -1 0
          -1 -1 0 -1 -1 0
          -1 -1 0 -1 -1 0
          -1 -1 0 -1 -1 0
          -1 -1 0 -1 -1 0
          1 1 0 -1 -1 0
          -1 -1 0 -1 -1 0
          1 1 0 -1 -1 0
          -1 -1 0 -1 -1 0
          -1 -1 0 -1 -1 0
          -1 -1 0 -1 -1 0
          -1 -1 0 1 1 0
          -1 -1 0 -1 -1 0
          -1 -1 0 -1 -1 0
          -1 -1 0 -1 -1 0
          -1 -1 0 -1 -1 0
          <InformationKey name="L2_NORM_RANGE" location="vtkDataArray" length="2">
            <Value index="0">
              1.4142135624
            </Value>
            <Value index="1">
              1.4142135624
            </Value>
          </InformationKey>
        </DataArray>
        <DataArray type="Float64" Name="Velocity" NumberOfComponents="3" format="ascii" RangeMin="0" RangeMax="0.3150894230525271">
          0.00782412763187275 -0.0003433297286674934 0 0.008330746724026408 -0.00019550792618799022 0
          0.005458903036639413 0.0006812399856113733 0 0.008664941989811646 -0.00021623969254136314 0
          0.007638081372141319 0.0002768604903840522 0 0.008582276743048825 -0.0004920866646308224 0
          0.01785464958643525 -0.002744971988443168 0 0.008429747735748307 0.0005313410254525497 0
          0.006202427799173336 0.0020097223554827355 0 0.005458903036639413 0.0006812399856113733 0
          0 0 0 0.03819495999698093 -0.0007858039998166794 0
          0.025392169567857722 -0.0050618968267862946 0 0.034077630500115925 -0.0018436917407418942 0
          0 0 0 -0.07375123986917048 0.01738595195962226 0
          -0.0037952872152131334 0.004760224879379641 0 0.025392169567857722 -0.0050618968267862946 0
          0.00782412763187275 -0.0003433297286674934 0 0.00759918112887817 0.00006236876180108043 0
          0.007256218934757461 0.00048124341269438004 0 0.0071160958775082096 0.000041316041475843365 0
          0.007138322353133097 0.00008636891893650249 0 0 0 0
          -0.04712923451337387 0.03080393268465365 0 0.05453946908947444 -0.013087951618738117 0
          -0.044399338661482435 0.02488048256003428 0 0.3093649945769478 -0.059788332055505905 0
          0.2482425333191892 -0.046183520080625984 0 0.007138322353133097 0.00008636891893650249 0
          -0.0037952872152131334 0.004760224879379641 0 0.2482425333191892 -0.046183520080625984 0
          <InformationKey name="L2_NORM_RANGE" location="vtkDataArray" length="2">
            <Value index="0">
              0
            </Value>
            <Value index="1">
              0.31508942305
            </Value>
          </InformationKey>
        </DataArray>
        <DataArray type="Float64" Name="Pressure" format="ascii" RangeMin="0.14639570013507286" RangeMax="1.0637154468473984">
          0.2272084474345386 0.2647023392094851 0.30952622765800736 0.31062538298886 0.3467716666126132 0.2750493873452679
          0.4160510959575799 0.4280668103422774 0.39574566290931606 0.30952622765800736 0.531226810309814 0.5086958811327238
          0.41484191571234347 0.5138842568886467 0.6461036451583829 0.6639714864025191 0.596165257623582 0.41484191571234347
          0.2272084474345386 0.18602942172691245 0.2258987748628955 0.1798292108476732 0.14639570013507286 0.6486444684449129
          0.8203471849551597 0.5329584929955972 0.611117498681927 1.0637154468473984 0.9026862557769801 0.14639570013507286
          0.596165257623582 0.9026862557769801
        </DataArray>
      </PointData>
      <CellData>
        <DataArray type="UInt8" Name="vtkGhostType" format="ascii" RangeMin="0" RangeMax="1">
          0 0 1 1 1 1
          1 0 0 1 1 0
          0 0 0 0 0 0
          0 0 0 0 0 0
          0 0 0 1 0 0
          0 0 0 0 0 0
          0 0 1 1
        </DataArray>
      </CellData>
      <Points>
        <DataArray type="Float32" Name="Points" NumberOfComponents="3" format="ascii" RangeMin="2" RangeMax="14.422205101855956">
          10 8 0 9.0526123046875 5.597301006317139 0
          8 8 0 8 3.464102029800415 0
          7.214476108551025 5.006220817565918 0 8.865592002868652 1.8541419506072998 0
          5.868243217468262 6.172163009643555 0 5.61288595199585 4.4169921875 0
          6.193554878234863 2.464600086212158 0 8 0 0
          4.5 4 0 4.723260879516602 3.0721371173858643 0
          6 0 0 4.8942999839782715 1.5862879753112793 0
          3.75 3.5669870376586914 0 3.5546820163726807 2.3947041034698486 0
          4 0 0 6 8 0
          10 0 0 11 1.7320510149002075 0
          10 3.464102029800415 0 11.101200103759766 5.649384021759033 0
          12 8 0 3.75 4.433012962341309 0
          2.864197015762329 3.831125020980835 0 4.574699878692627 4.995409965515137 0
          3.80739688873291 6.614357948303223 0 1.6611889600753784 2.800034999847412 0
          2 0 0 12 0 0
          4 8 0 2 8 0
          <InformationKey name="L2_NORM_RANGE" location="vtkDataArray" length="2">
            <Value index="0">
              2
            </Value>
            <Value index="1">
              14.422205102
            </Value>
          </InformationKey>
        </DataArray>
      </Points>
      <Cells>
        <DataArray type="Int64" Name="connectivity" format="ascii" RangeMin="0" RangeMax="31">
          6 4 2 2 17 6
          5 18 19 20 21 1
          1 21 0 20 1 3
          19 20 5 3 1 4
          4 1 2 5 20 3
          22 0 21 0 2 1
          10 14 11 14 23 24
          23 10 25 11 14 15
          25 10 7 10 11 7
          11 15 13 25 7 6
          6 7 4 11 13 8
          25 6 26 8 13 12
          26 6 17 4 7 3
          11 8 7 9 18 5
          9 5 8 3 7 8
          5 3 8 12 9 8
          14 24 15 13 15 16
          24 27 15 13 16 12
          28 16 15 15 27 28
          30 26 17 30 31 26
        </DataArray>
        <DataArray type="Int64" Name="offsets" format="ascii" RangeMin="3" RangeMax="120">
          3 6 9 12 15 18
          21 24 27 30 33 36
          39 42 45 48 51 54
          57 60 63 66 69 72
          75 78 81 84 87 90
          93 96 99 102 105 108
          111 114 117 120
        </DataArray>
        <DataArray type="UInt8" Name="types" format="ascii" RangeMin="5" RangeMax="5">
          5 5 5 5 5 5
          5 5 5 5 5 5
          5 5 5 5 5 5
          5 5 5 5 5 5
          5 5 5 5 5 5
          5 5 5 5 5 5
          5 5 5 5
        </DataArray>
      </Cells>
    </Piece>
  </UnstructuredGrid>
</VTKFile>
