<?xml version="1.0"?>
<VTKFile type="UnstructuredGrid" version="0.1" byte_order="LittleEndian" header_type="UInt32" compressor="vtkZLibDataCompressor">
  <UnstructuredGrid>
    <Piece NumberOfPoints="58" NumberOfCells="82">
      <PointData>
        <DataArray type="Float64" Name="Velocity" NumberOfComponents="3" format="ascii" RangeMin="33.699020947934265" RangeMax="61.845498720155206">
          34.684 0 0 34.684 -4.592321761009201e-19 0
          34.684 1.071683430100626e-18 0 34.684 0 0
          34.684 2.0044639287914854e-18 0 34.684 3.387258507704877e-16 0
          34.684 -1.9262522411161434e-16 0 34.684 0 0
          34.684 9.732727020938518e-17 0 34.684 1.4681118092023287e-16 0
          34.684 6.670280779454309e-17 0 34.684 -3.253009473950882e-16 0
          34.684 0 0 34.684 6.378267355050692e-16 0
          34.684 0 0 34.684 -6.884720270150519e-16 0
          34.684 4.3049498722927956e-16 0 34.68351362297072 0 0
          34.684 3.1407632221639074e-16 0 34.684 0 0
          34.68342595354417 0.0001143490871005232 0 34.684 -6.597197693220311e-16 0
          34.68430700308482 0 0 34.682107922271236 0.00036708725084127466 0
          34.68381401416936 0.00009551477885236897 0 34.68400018181531 0 0
          34.687921018487124 0.005840163599073103 0 34.703697456101246 0.002752470702745277 0
          34.65219934713877 -0.018575590848537046 0 34.692993576616225 -0.00522597893956107 0
          34.68399441969897 0 0 34.81916507202026 -0.11337155760468488 0
          34.680839342445644 0.0030054773349696387 0 34.664754199118775 0.035561215304654906 0
          34.676034284106336 -0.00932716417054556 0 34.68388588689531 0 0
          34.69069950006505 0.015242221398811541 0 34.6823130253565 0 0
          34.684 0 0 34.684 0 0
          34.684 0 0 34.684 -3.354096626818608e-17 0
          34.684 -1.1705104730809143e-19 0 34.684 1.1845369502838427e-17 0
          34.684 -6.46460092227696e-17 0 34.684 0 0
          59.88118229861657 -15.46317297531683 0 33.77086585493803 0.8693654608702275 0
          33.69771642478302 0.2965140877279797 0 34.664151412412274 -0.05848914774316457 0
          34.762002583427815 0.22128759347191881 0 34.66530653094655 0.002270366657736835 0
          34.68093051596988 -0.008610543344326989 0 34.68261759422608 0 0
          34.684 0 0 34.717742833453336 0.023367842381878022 0
          34.684 0 0 34.693352049665876 -0.04352862934763046 0
          <InformationKey name="L2_NORM_RANGE" location="vtkDataArray" length="2">
            <Value index="0">
              33.699020948
            </Value>
            <Value index="1">
              61.84549872
            </Value>
          </InformationKey>
        </DataArray>
        <DataArray type="Float64" Name="Pressure" format="ascii" RangeMin="102837.72929016085" RangeMax="111419.77521181958">
          103064.028 103064.028 103064.028 103064.028 103064.028 103064.028
          103064.028 103064.028 103064.028 103064.028 103064.028 103064.028
          103064.028 103064.028 103064.028 103064.028 103064.028 103063.85661492539
          103064.028 103064.028 103063.95874599786 103064.028 103064.05594280153 103064.58292254462
          103064.02712480557 103064.02809283444 103068.09303497501 103067.89877428119 103075.36769398206 103067.67054600951
          103064.02586441155 102939.92818394987 103065.38793791425 103086.40892675816 103073.21175163511 103064.26400045241
          103069.25414003905 103063.45313239 103064.028 103064.028 103043.87999999999 103064.028
          103064.028 103064.028 103064.028 103064.028 111419.77521181958 103838.4386980033
          103674.87266216555 102880.05533959297 102837.72929016085 103095.53942109611 103066.99339856254 103064.04959139251
          103064.028 103122.39834943172 103064.028 103079.90888162113
        </DataArray>
        <DataArray type="Float64" Name="Temperature" format="ascii" RangeMin="299.76841543822434" RangeMax="313.0433985602631">
          299.99999999999994 299.99999999999994 299.99999999999994 299.99999999999994 299.99999999999994 299.99999999999994
          299.99999999999994 299.99999999999994 299.99999999999994 299.99999999999994 299.99999999999994 299.99999999999994
          299.99999999999994 299.99999999999994 299.99999999999994 299.99999999999994 299.99999999999994 299.9998554802034
          299.99999999999994 299.99999999999994 299.9999410098843 299.99999999999994 300.0000237503038 300.0004656937192
          299.99999902033716 300.00000007809246 300.00347901512566 300.0034982941787 300.0101715496402 300.00322446812413
          299.99999820577045 299.84478076967156 300.00114540026686 300.0193793944265 300.0077431205773 300.00019828103285
          300.0044051074757 299.99957104427665 300 300 300 299.99999999999994
          299.99999999999994 299.99999999999994 299.99999999999994 299.99999999999994 313.0433985602631 300.5748464570526
          300.4113559137951 299.80185588930914 299.76841543822434 300.0270178470356 300.0024985715909 300.0000179042324
          299.99999999999994 300.0489474855196 300 300.0132948857284
        </DataArray>
        <DataArray type="Float64" Name="Density" format="ascii" RangeMin="1.174853607921" RangeMax="1.2189190840571644">
          1.17653 1.17653 1.17653 1.17653 1.17653 1.17653
          1.17653 1.17653 1.17653 1.17653 1.17653 1.17653
          1.17653 1.17653 1.17653 1.17653 1.17653 1.1765286103216281
          1.17653 1.17653 1.1765294407745588 1.17653 1.176530225838585 1.1765345083831413
          1.176529993851205 1.1765300007534933 1.1765627602433832 1.1765604670722418 1.176619555080732 1.176558935652837
          1.176529982657686 1.1757216507989425 1.1765410323707055 1.1767094769745536 1.1766044687131894 1.1765319164558796
          1.17657238270687 1.1765251198416402 1.17653 1.17653 1.1763 1.17653
          1.17653 1.17653 1.17653 1.17653 1.2189190840571644 1.18310329564563
          1.181882531352855 1.1752060560042905 1.174853607921 1.1767837388754023 1.1765540525666613 1.1765301762608513
          1.17653 1.1770042901883582 1.17653 1.1766591434401366
        </DataArray>
        <DataArray type="Float64" Name="Momentum" NumberOfComponents="3" format="ascii" RangeMin="39.82828418205743" RangeMax="75.38465865303013">
          40.80676652 0 0 40.80676652 -5.403004321480156e-19 0
          40.80676652 1.2608677060162896e-18 0 40.80676652 0 0
          40.80676652 2.3583119461410466e-18 0 40.80676652 3.985211252070019e-16 0
          40.80676652 -2.2662935492403764e-16 0 40.80676652 0 0
          40.80676652 1.1450845321944794e-16 0 40.80676652 1.7272775868808158e-16 0
          40.80676652 7.847785445451379e-17 0 40.80676652 -3.827263236387432e-16 0
          40.80676652 0 0 40.80676652 7.504222891237791e-16 0
          40.80676652 0 0 40.80676652 -8.10007993944019e-16 0
          40.80676652 5.064902673248643e-16 0 40.806146083905 0 0
          40.80676652 3.6952021537725024e-16 0 40.80676652 0 0
          40.80607174126914 0.00013453506749945988 0 40.80676652 -7.761801002004493e-16 0
          40.8071355513942 0 0 40.80469679402044 0.000431890818202258 0
          40.806547488827015 0.00011237600217587688 0 40.80676676004533 0 0
          40.81251610061568 0.006871319004398382 0 40.830998488084255 0.0032384482156246445 0
          40.77245537839924 -0.021856403439567372 0 40.818351597114294 -0.006148672218874114 0
          40.80675935310771 0 0 40.937646237916546 -0.13329339486062752 0
          40.80343052344358 0.0035360674064519354 0 40.790344783096515 0.041845219061719965 0
          40.79997689593127 -0.010974383043485454 0 40.80669873264598 0 0
          40.81611896855956 0.017933576748945336 0 40.80461248854284 0 0
          40.80676652 0 0 40.80676652 0 0
          40.798789199999995 0 0 40.80676652 -3.946195304350897e-17 0
          40.80676652 -1.3771406868938881e-19 0 40.80676652 1.3936432581174495e-17 0
          40.80676652 -7.605796923086512e-17 0 40.80676652 0 0
          72.9903158796898 -18.84835663969069 0 39.95442268978366 1.0285491418760482 0
          39.826742388933226 0.3504448205857272 0 40.73752066611659 -0.06873680063829668 0
          40.84026415369929 0.2599805275786393 0 40.79356902874919 0.0026717305641096034 0
          40.80398934534715 -0.010130769666568812 0 40.805146191322514 0 0
          40.80676652 0 0 40.8629322606307 0.027504050735915775 0
          40.80676652 0 0 40.82224990582696 -0.051218359723306045 0
          <InformationKey name="L2_NORM_RANGE" location="vtkDataArray" length="2">
            <Value index="0">
              39.828284182
            </Value>
            <Value index="1">
              75.384658653
            </Value>
          </InformationKey>
        </DataArray>
        <DataArray type="Float64" Name="Energy" format="ascii" RangeMin="253577.98862162384" RangeMax="276301.64406295295">
          254132.23294498984 254132.23294498984 254132.23294498984 254132.23294498984 254132.23294498984 254132.23294498984
          254132.23294498984 254132.23294498984 254132.23294498984 254132.23294498984 254132.23294498984 254132.23294498984
          254132.23294498984 254132.23294498984 254132.23294498984 254132.23294498984 254132.23294498984 254131.79084233675
          254132.23294498984 254132.23294498984 254132.0388949039 254132.23294498984 254132.31431736005 254133.52295037764
          254132.22319981758 254132.23318113334 254142.40821880245 254142.57317642466 254158.87304895406 254141.57409230195
          254132.2274556374 253832.127339164 254135.454571542 254186.58893461715 254154.53471463398 254132.8097436143
          254145.38257284166 254130.7476272743 254132.23294498984 254132.23294498984 254082.5526023064 254132.23294498984
          254132.23294498984 254132.23294498984 254132.23294498984 254132.23294498984 276301.64406295295 256003.85846486353
          255597.65754160512 253678.25867171987 253577.98862162384 254209.1063533016 254139.41383395792 254132.22973177882
          254132.23294498984 254277.42380027368 254132.23294498984 254171.74302353576
        </DataArray>
      </PointData>
      <CellData>
        <DataArray type="UInt8" Name="vtkGhostType" format="ascii" RangeMin="0" RangeMax="1">
          1 1 1 0 1 0
          1 0 0 0 0 1
          1 0 0 0 0 0
          0 0 0 0 0 0
          0 0 0 0 0 0
          0 0 0 0 0 0
          0 0 0 0 0 0
          0 0 0 0 0 0
          0 0 0 1 1 0
          0 0 0 1 0 0
          0 0 0 0 0 0
          0 0 0 0 0 0
          0 0 0 0 0 0
          0 0 0 0
        </DataArray>
      </CellData>
      <Points>
        <DataArray type="Float32" Name="Points" NumberOfComponents="3" format="ascii" RangeMin="0.30000001192092896" RangeMax="4.65725242116432">
          4 1.2000000476837158 0 4 0.5320507884025574 0
          3.75 0.09903810918331146 0 3.5 1.2000000476837158 0
          3.5 0.5320507884025574 0 3.5 -0.33397459983825684 0
          3.25 0.09903810918331146 0 3 1.2000000476837158 0
          2.9339659214019775 0.3125396966934204 0 2.9850969314575195 -0.18481269478797913 0
          2.75 0.7669873237609863 0 3.0359580516815186 -0.6821928024291992 0
          2.5 1.2000000476837158 0 2.528865098953247 0.019508730620145798 0
          3 -1.2000000476837158 0 2.5798211097717285 -0.47746700048446655 0
          2.25 0.7669873237609863 0 2 1.2000000476837158 0
          2.1248021125793457 -0.274284690618515 0 2.5 -1.2000000476837158 0
          1.8583029508590698 0.4420956075191498 0 2.1729509830474854 -0.7651854157447815 0
          1.5 1.2000000476837158 0 1.6643450260162354 -0.16851860284805298 0
          1.7341229915618896 -0.5399479269981384 0 2 -1.2000000476837158 0
          1.410377025604248 0.5858561992645264 0 1.4437849521636963 0.2196556031703949 0
          1.3130509853363037 -0.04950660839676857 0 1.3759469985961914 -0.348176509141922 0
          1.5 -1.2000000476837158 0 1.1399699449539185 -0.19158749282360077 0
          1.2639700174331665 -0.7296581864356995 0 1.0851390361785889 -0.4247578978538513 0
          0.8886095285415649 -0.6650667190551758 0 1 -1.2000000476837158 0
          0.4590522050857544 -0.7891657948493958 0 0.5 -1.2000000476837158 0
          0 -0.6000000238418579 0 0 -0.8999999761581421 0
          0 -1.2000000476837158 0 3.75 -0.7669873237609863 0
          4 -0.33397459983825684 0 4.25 0.09903810918331146 0
          4.5 0.5320507884025574 0 4.5 1.2000000476837158 0
          0.9649400115013123 -0.0952281504869461 0 0.9571449756622314 -0.27218320965766907 0
          1.1142899990081787 -1.1752379625029619e-10 0 1.1399699449539185 0.19158749282360077 0
          0.795934796333313 -0.3902161121368408 0 1.0117520093917847 0.5012874007225037 0
          1.086230993270874 0.8328040242195129 0 1 1.2000000476837158 0
          3.5 -1.2000000476837158 0 0.5882480144500732 -0.5012874007225037 0
          0 -0.30000001192092896 0 0.30146610736846924 -0.47640809416770935 0
          <InformationKey name="L2_NORM_RANGE" location="vtkDataArray" length="2">
            <Value index="0">
              0.30000001192
            </Value>
            <Value index="1">
              4.6572524212
            </Value>
          </InformationKey>
        </DataArray>
      </Points>
      <Cells>
        <DataArray type="Int64" Name="connectivity" format="ascii" RangeMin="0" RangeMax="57">
          41 42 5 5 42 2
          2 42 43 5 2 6
          2 43 1 6 2 4
          1 43 44 2 1 4
          4 1 0 0 3 4
          3 7 4 45 0 1
          1 44 45 46 47 31
          48 46 31 48 31 28
          49 48 28 31 47 33
          47 50 33 28 31 29
          31 33 29 29 33 32
          28 29 23 50 34 33
          49 28 27 27 28 23
          49 26 51 32 33 34
          29 32 24 52 51 26
          23 29 24 23 24 18
          53 52 22 24 32 30
          26 49 27 26 27 20
          52 26 22 27 23 20
          18 24 21 23 18 20
          26 20 17 21 24 25
          21 25 19 18 21 15
          15 21 19 18 15 13
          13 15 9 18 13 20
          9 15 11 13 9 8
          17 22 26 41 5 11
          54 41 11 6 4 8
          6 8 9 6 9 5
          35 30 32 14 54 11
          7 12 10 10 12 16
          7 10 4 16 12 17
          16 17 20 10 16 13
          11 15 19 19 14 11
          13 8 10 10 8 4
          30 25 24 9 11 5
          16 20 13 32 34 35
          50 55 34 34 55 36
          38 39 36 56 38 57
          39 40 37 55 57 36
          34 36 35 57 38 36
          37 35 36 37 36 39
        </DataArray>
        <DataArray type="Int64" Name="offsets" format="ascii" RangeMin="3" RangeMax="246">
          3 6 9 12 15 18
          21 24 27 30 33 36
          39 42 45 48 51 54
          57 60 63 66 69 72
          75 78 81 84 87 90
          93 96 99 102 105 108
          111 114 117 120 123 126
          129 132 135 138 141 144
          147 150 153 156 159 162
          165 168 171 174 177 180
          183 186 189 192 195 198
          201 204 207 210 213 216
          219 222 225 228 231 234
          237 240 243 246
        </DataArray>
        <DataArray type="UInt8" Name="types" format="ascii" RangeMin="5" RangeMax="5">
          5 5 5 5 5 5
          5 5 5 5 5 5
          5 5 5 5 5 5
          5 5 5 5 5 5
          5 5 5 5 5 5
          5 5 5 5 5 5
          5 5 5 5 5 5
          5 5 5 5 5 5
          5 5 5 5 5 5
          5 5 5 5 5 5
          5 5 5 5 5 5
          5 5 5 5 5 5
          5 5 5 5 5 5
          5 5 5 5
        </DataArray>
      </Cells>
    </Piece>
  </UnstructuredGrid>
</VTKFile>
