<?xml version="1.0"?>
<VTKFile type="UnstructuredGrid" version="0.1" byte_order="LittleEndian" header_type="UInt32" compressor="vtkZLibDataCompressor">
  <UnstructuredGrid>
    <Piece NumberOfPoints="46" NumberOfCells="66">
      <PointData>
        <DataArray type="Float64" Name="Velocity" NumberOfComponents="3" format="ascii" RangeMin="34.68399934463678" RangeMax="34.6840000328442">
          34.684 0 0 34.684 -2.8378774796149715e-15 0
          34.684 0 0 34.684 -7.413305327484543e-16 0
          34.684 -5.920932645608828e-16 0 34.684 -4.380440045188567e-16 0
          34.684 0 0 34.684 -1.3243414167792202e-16 0
          34.684 1.2297890423008962e-17 0 34.684 5.582172984385396e-16 0
          34.684 -2.222726562107478e-15 0 34.684 0 0
          34.684 7.284373126703872e-17 0 34.684 1.3007391399737306e-15 0
          34.684 -1.696489630565704e-15 0 34.684 2.3292798065793444e-16 0
          34.684 -1.6173339230017937e-17 0 34.684 -9.576211356601235e-16 0
          34.684 0 0 34.684 -6.703119684732215e-16 0
          34.684 -2.560337927398789e-17 0 34.684 1.6591127180137506e-15 0
          34.684 3.707220389701036e-19 0 34.684 0 0
          34.684 0 0 34.684 2.39476622373755e-15 0
          34.684 -3.868859824195147e-17 0 34.684 0 0
          34.684 -7.79806206763889e-17 0 34.684 0 0
          34.684 1.4482117670598616e-15 0 34.684 1.1531176257204722e-17 0
          34.684 4.928955540782096e-17 0 34.684 0 0
          34.684000002157944 -5.58059834592694e-10 0 34.68399999999886 6.129398533334429e-14 0
          34.684 0 0 34.684000016672286 -8.100117017976172e-9 0
          34.68399999999612 0 0 34.684000017265426 0 0
          34.6839998369741 6.332119749415272e-8 0 34.684000015334085 -8.862191653476813e-9 0
          34.68400001371095 -5.340486577461634e-9 0 34.6840000328442 0 0
          34.68399934463678 3.4221177767774916e-7 0 34.68399986245716 0 0
          <InformationKey name="L2_NORM_RANGE" location="vtkDataArray" length="2">
            <Value index="0">
              34.683999345
            </Value>
            <Value index="1">
              34.684000033
            </Value>
          </InformationKey>
        </DataArray>
        <DataArray type="Float64" Name="Pressure" format="ascii" RangeMin="103064.02756902722" RangeMax="103064.02801193218">
          103064.028 103064.028 103064.028 103064.028 103064.028 103064.028
          103064.028 103064.028 103064.028 103064.028 103064.028 103064.028
          103064.028 103064.028 103064.028 103064.028 103064.028 103064.028
          103064.028 103064.028 103064.028 103064.028 103064.028 103064.028
          103064.028 103064.028 103064.028 103064.028 103064.028 103064.028
          103064.028 103064.028 103064.028 103064.028 103064.02800107247 103064.02799999925
          103064.028 103064.02800711806 103064.0279999972 103064.02800911646 103064.02790158175 103064.02800513925
          103064.02800425724 103064.02801193218 103064.02756902722 103064.02785735257
        </DataArray>
        <DataArray type="Float64" Name="Temperature" format="ascii" RangeMin="299.99999963737355" RangeMax="300.0000000100401">
          299.99999999999994 299.99999999999994 299.99999999999994 299.99999999999994 299.99999999999994 299.99999999999994
          299.99999999999994 299.99999999999994 299.99999999999994 299.99999999999994 299.99999999999994 299.99999999999994
          299.99999999999994 299.99999999999994 299.99999999999994 299.99999999999994 299.99999999999994 299.99999999999994
          299.99999999999994 299.99999999999994 299.99999999999994 299.99999999999994 299.99999999999994 299.99999999999994
          299.99999999999994 299.99999999999994 299.99999999999994 299.99999999999994 299.99999999999994 299.99999999999994
          299.99999999999994 299.99999999999994 299.99999999999994 299.99999999999994 300.0000000009022 299.9999999999993
          299.99999999999994 300.00000000598914 299.99999999999767 300.0000000076707 299.9999999171905 300.0000000043232
          300.00000000358114 300.0000000100401 299.99999963737355 299.9999998799749
        </DataArray>
        <DataArray type="Float64" Name="Density" format="ascii" RangeMin="1.176529996502356" RangeMax="1.1765300000968373">
          1.17653 1.17653 1.17653 1.17653 1.17653 1.17653
          1.17653 1.17653 1.17653 1.17653 1.17653 1.17653
          1.17653 1.17653 1.17653 1.17653 1.17653 1.17653
          1.17653 1.17653 1.17653 1.17653 1.17653 1.17653
          1.17653 1.17653 1.17653 1.17653 1.17653 1.17653
          1.17653 1.17653 1.17653 1.17653 1.1765300000087044 1.176529999999994
          1.17653 1.1765300000577683 1.1765299999999772 1.1765300000739864 1.1765299992012637 1.1765300000417125
          1.1765300000345544 1.1765300000968373 1.176529996502356 1.1765299988423152
        </DataArray>
        <DataArray type="Float64" Name="Momentum" NumberOfComponents="3" format="ascii" RangeMin="40.806765627633226" RangeMax="40.806766562000895">
          40.80676652 0 0 40.80676652 -3.3388479910914026e-15 0
          40.80676652 0 0 40.80676652 -8.72197611694539e-16 0
          40.80676652 -6.966154885538155e-16 0 40.80676652 -5.153719126365705e-16 0
          40.80676652 0 0 40.80676652 -1.5581274070832561e-16 0
          40.80676652 1.4468837019382735e-17 0 40.80676652 6.56759398131895e-16 0
          40.80676652 -2.6151044821163113e-15 0 40.80676652 0 0
          40.80676652 8.570283514760906e-17 0 40.80676652 1.5303586203532935e-15 0
          40.80676652 -1.9959709450494677e-15 0 40.80676652 2.740467570834796e-16 0
          40.80676652 -1.9028418804293006e-17 0 40.80676652 -1.126669994738205e-15 0
          40.80676652 0 0 40.80676652 -7.886421402677994e-16 0
          40.80676652 -3.0123143817224974e-17 0 40.80676652 1.951995886124718e-15 0
          40.80676652 4.36165600509496e-19 0 40.80676652 0 0
          40.80676652 0 0 40.80676652 2.8175143052139398e-15 0
          40.80676652 -4.5518296489603166e-17 0 40.80676652 0 0
          40.80676652 -9.174653964439184e-17 0 40.80676652 0 0
          40.80676652 1.703864590298939e-15 0 40.80676652 1.3566774801889072e-17 0
          40.80676652 5.79906406239636e-17 0 40.80676652 0 0
          40.80676652284079 -6.565741371981999e-10 0 40.806766519998455 7.21142125642392e-14 0
          40.80676652 0 0 40.80676654161908 -9.530030675627436e-9 0
          40.806766519994646 0 0 40.80676654287944 0 0
          40.806766300491766 7.449928843721857e-8 0 40.80676653948777 -1.0426634346434739e-8 0
          40.80676653732983 -6.283242673165474e-9 0 40.806766562000895 0 0
          40.806765627633226 4.026224215942672e-7 0 40.80676631802359 0 0
          <InformationKey name="L2_NORM_RANGE" location="vtkDataArray" length="2">
            <Value index="0">
              40.806765628
            </Value>
            <Value index="1">
              40.806766562
            </Value>
          </InformationKey>
        </DataArray>
        <DataArray type="Float64" Name="Energy" format="ascii" RangeMin="254132.2318564221" RangeMax="254132.23297572846">
          254132.23294498984 254132.23294498984 254132.23294498984 254132.23294498984 254132.23294498984 254132.23294498984
          254132.23294498984 254132.23294498984 254132.23294498984 254132.23294498984 254132.23294498984 254132.23294498984
          254132.23294498984 254132.23294498984 254132.23294498984 254132.23294498984 254132.23294498984 254132.23294498984
          254132.23294498984 254132.23294498984 254132.23294498984 254132.23294498984 254132.23294498984 254132.23294498984
          254132.23294498984 254132.23294498984 254132.23294498984 254132.23294498984 254132.23294498984 254132.23294498984
          254132.23294498984 254132.23294498984 254132.23294498984 254132.23294498984 254132.23294772024 254132.23294498798
          254132.23294498984 254132.23296320756 254132.23294498277 254132.23296815538 254132.2326958558 254132.23295827757
          254132.2329560383 254132.23297572846 254132.2318564221 254132.2325879245
        </DataArray>
      </PointData>
      <CellData>
        <DataArray type="UInt8" Name="vtkGhostType" format="ascii" RangeMin="0" RangeMax="0">
          0 0 0 0 0 0
          0 0 0 0 0 0
          0 0 0 0 0 0
          0 0 0 0 0 0
          0 0 0 0 0 0
          0 0 0 0 0 0
          0 0 0 0 0 0
          0 0 0 0 0 0
          0 0 0 0 0 0
          0 0 0 0 0 0
          0 0 0 0 0 0
        </DataArray>
      </CellData>
      <Points>
        <DataArray type="Float32" Name="Points" NumberOfComponents="3" format="ascii" RangeMin="3.1116600571489244" RangeMax="7.102112369882704">
          7 1.2000000476837158 0 7 0.7200000286102295 0
          6.5 1.2000000476837158 0 6.566987037658691 0.47999998927116394 0
          7 0.23999999463558197 0 6.140567779541016 0.7387298941612244 0
          6 1.2000000476837158 0 6.566987037658691 -1.5543120227169823e-15 0
          6.133975028991699 0.23999999463558197 0 7 -0.23999999463558197 0
          5.707554817199707 0.4987299144268036 0 5.5 1.2000000476837158 0
          6.133975028991699 -0.23999999463558197 0 6.566987037658691 -0.47999998927116394 0
          5.700962066650391 -1.7763570511584873e-15 0 5.278289794921875 0.7549629807472229 0
          7 -0.7200000286102295 0 5.271283149719238 0.25508859753608704 0
          5 1.2000000476837158 0 6.140567779541016 -0.7387298941612244 0
          5.707554817199707 -0.4987299144268036 0 5.271283149719238 -0.25508859753608704 0
          7 -1.2000000476837158 0 6.5 -1.2000000476837158 0
          4.5 1.2000000476837158 0 4.75 0.09903810918331146 0
          4.5 0.5320507884025574 0 6 -1.2000000476837158 0
          5.278289794921875 -0.7549629807472229 0 5.5 -1.2000000476837158 0
          4.5 -0.33397459983825684 0 4.25 0.09903810918331146 0
          4.75 -0.7669873237609863 0 5 -1.2000000476837158 0
          4 -0.33397459983825684 0 4.25 -0.7669873237609863 0
          4.5 -1.2000000476837158 0 3.75 -0.7669873237609863 0
          4 -1.2000000476837158 0 3.5 -1.2000000476837158 0
          3.5 -0.33397459983825684 0 3.75 0.09903810918331146 0
          4 0.5320507884025574 0 4 1.2000000476837158 0
          3.0359580516815186 -0.6821928024291992 0 3 -1.2000000476837158 0
          <InformationKey name="L2_NORM_RANGE" location="vtkDataArray" length="2">
            <Value index="0">
              3.1116600571
            </Value>
            <Value index="1">
              7.1021123699
            </Value>
          </InformationKey>
        </DataArray>
      </Points>
      <Cells>
        <DataArray type="Int64" Name="connectivity" format="ascii" RangeMin="0" RangeMax="45">
          22 16 23 9 4 7
          1 0 2 16 9 13
          4 1 3 7 4 3
          7 3 8 13 9 7
          13 7 12 3 1 2
          8 3 5 12 7 8
          12 8 14 14 8 10
          12 14 20 16 13 23
          13 12 19 5 3 2
          10 8 5 10 5 11
          20 14 21 19 12 20
          19 20 29 14 10 17
          13 19 23 21 14 17
          20 21 28 17 10 15
          38 36 35 6 11 5
          6 5 2 15 10 11
          15 11 18 35 36 32
          32 36 33 35 32 30
          30 32 21 35 30 34
          34 30 31 35 34 37
          31 30 25 37 34 40
          35 37 38 25 30 21
          40 34 41 41 34 31
          41 31 42 42 31 26
          26 31 25 26 25 15
          27 23 19 27 19 29
          28 21 32 33 29 28
          28 29 20 18 24 26
          17 15 25 32 33 28
          24 43 42 42 26 24
          21 17 25 15 18 26
          37 40 44 38 37 39
          39 37 44 45 39 44
        </DataArray>
        <DataArray type="Int64" Name="offsets" format="ascii" RangeMin="3" RangeMax="198">
          3 6 9 12 15 18
          21 24 27 30 33 36
          39 42 45 48 51 54
          57 60 63 66 69 72
          75 78 81 84 87 90
          93 96 99 102 105 108
          111 114 117 120 123 126
          129 132 135 138 141 144
          147 150 153 156 159 162
          165 168 171 174 177 180
          183 186 189 192 195 198
        </DataArray>
        <DataArray type="UInt8" Name="types" format="ascii" RangeMin="5" RangeMax="5">
          5 5 5 5 5 5
          5 5 5 5 5 5
          5 5 5 5 5 5
          5 5 5 5 5 5
          5 5 5 5 5 5
          5 5 5 5 5 5
          5 5 5 5 5 5
          5 5 5 5 5 5
          5 5 5 5 5 5
          5 5 5 5 5 5
          5 5 5 5 5 5
        </DataArray>
      </Cells>
    </Piece>
  </UnstructuredGrid>
</VTKFile>
