<?xml version="1.0"?>
<VTKFile type="UnstructuredGrid" version="0.1" byte_order="LittleEndian" header_type="UInt32" compressor="vtkZLibDataCompressor">
  <UnstructuredGrid>
    <Piece NumberOfPoints="13" NumberOfCells="11">
      <PointData>
        <DataArray type="Float64" Name="Disp" NumberOfComponents="3" format="ascii" RangeMin="0" RangeMax="0.08382484975401358">
          0 0 0 0 0 0
          0.001302213314555595 -0.0024851976958175973 0 -0.0014395097378616566 -0.002426653770949881 0
          0.0022881221388230304 -0.011059779875912895 0 -0.0031990622967788475 -0.010787263701928014 0
          0.0024794712922061547 -0.024451395738770157 0 -0.00513587636183403 -0.023877163972612324 0
          0.0018419734346771855 -0.04165159883469693 0 -0.007436341761303022 -0.04079445635278034 0
          0.0004490971438669094 -0.061708757443385755 0 -0.010056274067856495 -0.06059838807698245 0
          -0.0015763825768178755 -0.08381002597693463 0
          <InformationKey name="L2_NORM_RANGE" location="vtkDataArray" length="2">
            <Value index="0">
              0
            </Value>
            <Value index="1">
              0.083824849754
            </Value>
          </InformationKey>
        </DataArray>
        <DataArray type="Float64" Name="Nodal Stress" NumberOfComponents="6" format="ascii" RangeMin="32417.492407513557" RangeMax="152723.68220849903">
          147244.00188128234 -5002.659440595529 0 -40233.07614176358 0 0
          -80487.16206227051 -14762.175029390388 0 1124.9761258534647 0 0
          107753.88593235263 6555.116326094514 0 -16489.194854266018 0 0
          -99277.89704621253 -3467.646610272434 0 8727.601546438369 0 0
          84516.24775259063 8203.95605664431 0 -22348.828424855637 0 0
          -89282.2678770683 -5537.921172015155 0 9948.491706680019 0 0
          72807.36267041136 9456.249021422629 0 -21812.581318592653 0 0
          -74789.87596736364 -4304.649358847716 0 11496.258872189328 0 0
          56571.50774611918 9950.72131713316 0 -20683.643232869177 0 0
          -60654.48785265873 -3738.3295461605007 0 10522.289291081124 0 0
          41943.91464693476 9550.49642379614 0 -17759.648030302775 0 0
          -46004.566317631274 -2488.7831181520846 0 8552.337216322429 0 0
          27986.85116429975 8333.905170066793 0 -14077.499796301428 0 0
          <InformationKey name="L2_NORM_RANGE" location="vtkDataArray" length="2">
            <Value index="0">
              32417.492408
            </Value>
            <Value index="1">
              152723.68221
            </Value>
          </InformationKey>
        </DataArray>
        <DataArray type="Float64" Name="Nodal Strain" NumberOfComponents="6" format="ascii" RangeMin="0" RangeMax="0">
          0 0 0 0 0 0
          0 0 0 0 0 0
          0 0 0 0 0 0
          0 0 0 0 0 0
          0 0 0 0 0 0
          0 0 0 0 0 0
          0 0 0 0 0 0
          0 0 0 0 0 0
          0 0 0 0 0 0
          0 0 0 0 0 0
          0 0 0 0 0 0
          0 0 0 0 0 0
          0 0 0 0 0 0
          <InformationKey name="L2_NORM_RANGE" location="vtkDataArray" length="2">
            <Value index="0">
              0
            </Value>
            <Value index="1">
              0
            </Value>
          </InformationKey>
        </DataArray>
        <DataArray type="Float64" Name="Sld_traction" NumberOfComponents="3" format="ascii" RangeMin="8953.000305287691" RangeMax="68258.94071206251">
          -65973.32728893986 17515.794973659813 0 24838.305169064 21940.446010076168 0
          -26656.392396702988 18688.434126663386 0 -19403.94725119086 16333.469282003054 0
          -23059.243291451312 15266.501451114658 0 -14692.776252421358 14015.721342215718 0
          -20173.504507510883 15007.915602223906 0 -11371.835982815395 11841.922608486797 0
          -17982.486523269043 13855.9753749187 0 -8332.72925194593 9448.60977947689 0
          -15493.473705662636 12215.372903902722 0 -5803.668089938244 6817.158584653437 0
          -12900.632155743515 10011.539049467468 0
          <InformationKey name="L2_NORM_RANGE" location="vtkDataArray" length="2">
            <Value index="0">
              8953.0003053
            </Value>
            <Value index="1">
              68258.940712
            </Value>
          </InformationKey>
        </DataArray>
        <DataArray type="Float64" Name="Velocity" NumberOfComponents="3" format="ascii" RangeMin="0" RangeMax="1.0048111593909874">
          0 0 0 0 0 0
          0.041488624691838116 -0.09696652320866517 0 -0.057302876312452566 -0.09272700147149804 0
          0.047592444420362146 -0.37999759805228894 0 -0.10239175368339137 -0.3638568438608347 0
          0.0014937217692305715 -0.6794933045211753 0 -0.12989844249700822 -0.6584558576132498 0
          -0.060940762059836895 -0.9017213869973766 0 -0.14219564067108204 -0.8855809199993843 0
          -0.11336314322299684 -0.9983958452413866 0 -0.1295185538496284 -0.9939738437889574 0
          -0.1378081597532842 -0.9589703633778655 0
          <InformationKey name="L2_NORM_RANGE" location="vtkDataArray" length="2">
            <Value index="0">
              0
            </Value>
            <Value index="1">
              1.0048111594
            </Value>
          </InformationKey>
        </DataArray>
        <DataArray type="Float64" Name="Acceleration" NumberOfComponents="3" format="ascii" RangeMin="0" RangeMax="536.3236366290542">
          0 0 0 0 0 0
          3.965353338153818 -16.247193058099583 0 -10.761435242155585 -15.107941969218246 0
          -0.30989219011144087 -49.271061870185804 0 -6.14434564381645 -47.47367052426125 0
          -14.953454198826876 -28.79305749779087 0 14.531725580224702 -32.13544489359265 0
          -18.28825528331572 73.4632723740724 0 53.25822426398281 60.600736054286244 0
          0.030342735119006647 263.8739917447383 0 113.53481286650094 239.3561929849966 0
          44.69098669269215 534.4583790300676 0
          <InformationKey name="L2_NORM_RANGE" location="vtkDataArray" length="2">
            <Value index="0">
              0
            </Value>
            <Value index="1">
              536.32363663
            </Value>
          </InformationKey>
        </DataArray>
        <DataArray type="Float64" Name="Sigma" NumberOfComponents="6" format="ascii" RangeMin="64164.52459513017" RangeMax="224420.5657956736">
          148393.61871061428 -148393.6187106162 0 -79518.9172712214 0 0
          -143528.63325108786 143528.63325108745 0 29577.010393639284 0 0
          151234.7184736129 -151234.71847361294 0 -31471.480418250845 0 0
          -143628.27894297856 143628.27894297976 0 34710.415196263195 0 0
          120646.59535853332 -120646.59535853495 0 -56281.10164039424 0 0
          -118217.85287360585 118217.85287360744 0 43877.44433654151 0 0
          101970.79697033775 -101970.79697033826 0 -54793.558397027555 0 0
          -98444.63872384609 98444.63872384555 0 45031.80754853456 0 0
          78102.583498474 -78102.58349847478 0 -53171.477700838426 0 0
          -76441.98693787219 76441.98693787417 0 40975.3910406629 0 0
          57137.89995875029 -57137.89995874985 0 -45414.226038985704 0 0
          -56229.290455385686 56229.29045538658 0 33367.85445934151 0 0
          37792.0327966119 -37792.03279661155 0 -35505.08035082743 0 0
          <InformationKey name="L2_NORM_RANGE" location="vtkDataArray" length="2">
            <Value index="0">
              64164.524595
            </Value>
            <Value index="1">
              224420.5658
            </Value>
          </InformationKey>
        </DataArray>
        <DataArray type="Float64" Name="Press" format="ascii" RangeMin="-182813.76955514651" RangeMax="179191.3739217628">
          144052.54025737973 -182813.76955514651 179191.3739217628 -156270.49815281943 139153.44396184722 -138593.4048872766
          126702.66187093842 -117065.257138689 102127.05937353616 -94034.01572737074 79654.45076498875 -70364.14160816722
          56438.3453509771
        </DataArray>
        <DataArray type="Float64" Name="Dev strain" NumberOfComponents="6" format="ascii" RangeMin="0" RangeMax="0">
          0 0 0 0 0 0
          0 0 0 0 0 0
          0 0 0 0 0 0
          0 0 0 0 0 0
          0 0 0 0 0 0
          0 0 0 0 0 0
          0 0 0 0 0 0
          0 0 0 0 0 0
          0 0 0 0 0 0
          0 0 0 0 0 0
          0 0 0 0 0 0
          0 0 0 0 0 0
          0 0 0 0 0 0
          <InformationKey name="L2_NORM_RANGE" location="vtkDataArray" length="2">
            <Value index="0">
              0
            </Value>
            <Value index="1">
              0
            </Value>
          </InformationKey>
        </DataArray>
        <DataArray type="Float64" Name="J2 Stresses" format="ascii" RangeMin="1743390425.5798545" RangeMax="23601480625.028297">
          23601480625.028297 20819168448.881584 23119553591.722042 20930285742.896477 15347491572.069967 14456768268.422283
          11148626945.218014 10198312816.24059 6806815059.358852 6263123034.743785 3780352593.376153 3440086532.9211273
          1743390425.5798545
        </DataArray>
      </PointData>
      <CellData>
        <DataArray type="UInt8" Name="vtkGhostType" format="ascii" RangeMin="0" RangeMax="0">
          0 0 0 0 0 0
          0 0 0 0 0
        </DataArray>
        <DataArray type="Float64" Name="Gauss Stress" NumberOfComponents="6" format="ascii" RangeMin="39295.36593595941" RangeMax="102633.99144816709">
          -98605.02916888558 -7990.233355249623 0 10938.648390550547 0 0
          98843.28285237853 -5223.186436381881 0 -27137.79576527766 0 0
          -98969.99851209999 -4836.974206732191 0 7435.585964136826 0 0
          96775.78487331947 11273.76161387415 0 -17680.722287460634 0 0
          -81215.89826071382 -4754.768509304164 0 11371.897829349515 0 0
          77220.74680025812 7621.053830081095 0 -22399.07190029344 0 0
          -68585.41855192263 -4062.72377642621 0 10945.240296119688 0 0
          64464.40195025044 10045.240786939368 0 -20977.742849777136 0 0
          -53425.69466835228 -3070.109712012767 0 9643.006487006236 0 0
          48848.66364350212 9649.66596393458 0 -19203.437566387078 0 0
          34809.765602591724 9009.337402607936 0 -15850.483976823878 0 0
          <InformationKey name="L2_NORM_RANGE" location="vtkDataArray" length="2">
            <Value index="0">
              39295.365936
            </Value>
            <Value index="1">
              102633.99145
            </Value>
          </InformationKey>
        </DataArray>
        <DataArray type="Float64" Name="Gauss Strain" NumberOfComponents="6" format="ascii" RangeMin="0" RangeMax="0">
          0 0 0 0 0 0
          0 0 0 0 0 0
          0 0 0 0 0 0
          0 0 0 0 0 0
          0 0 0 0 0 0
          0 0 0 0 0 0
          0 0 0 0 0 0
          0 0 0 0 0 0
          0 0 0 0 0 0
          0 0 0 0 0 0
          0 0 0 0 0 0
          <InformationKey name="L2_NORM_RANGE" location="vtkDataArray" length="2">
            <Value index="0">
              0
            </Value>
            <Value index="1">
              0
            </Value>
          </InformationKey>
        </DataArray>
      </CellData>
      <Points>
        <DataArray type="Float32" Name="Points" NumberOfComponents="3" format="ascii" RangeMin="0" RangeMax="0.6020797527609908">
          0 0.05000000074505806 0 0 0 0
          0.10000000149011612 0.05000000074505806 0 0.10000000149011612 0 0
          0.20000000298023224 0.05000000074505806 0 0.20000000298023224 0 0
          0.30000001192092896 0.05000000074505806 0 0.30000001192092896 0 0
          0.4000000059604645 0.05000000074505806 0 0.4000000059604645 0 0
          0.5 0.05000000074505806 0 0.5 0 0
          0.6000000238418579 0.05000000074505806 0
          <InformationKey name="L2_NORM_RANGE" location="vtkDataArray" length="2">
            <Value index="0">
              0
            </Value>
            <Value index="1">
              0.60207975276
            </Value>
          </InformationKey>
        </DataArray>
      </Points>
      <Cells>
        <DataArray type="Int64" Name="connectivity" format="ascii" RangeMin="0" RangeMax="12">
          3 2 1 2 0 1
          5 4 3 4 2 3
          7 6 5 6 4 5
          9 8 7 8 6 7
          11 10 9 10 8 9
          12 10 11
        </DataArray>
        <DataArray type="Int64" Name="offsets" format="ascii" RangeMin="3" RangeMax="33">
          3 6 9 12 15 18
          21 24 27 30 33
        </DataArray>
        <DataArray type="UInt8" Name="types" format="ascii" RangeMin="5" RangeMax="5">
          5 5 5 5 5 5
          5 5 5 5 5
        </DataArray>
      </Cells>
    </Piece>
  </UnstructuredGrid>
</VTKFile>
