<?xml version="1.0"?>
<VTKFile type="UnstructuredGrid" version="0.1" byte_order="LittleEndian" header_type="UInt32" compressor="vtkZLibDataCompressor">
  <UnstructuredGrid>
    <Piece NumberOfPoints="13" NumberOfCells="11">
      <PointData>
        <DataArray type="Float64" Name="Disp" NumberOfComponents="3" format="ascii" RangeMin="0" RangeMax="0.05968978261187418">
          0 0 0 0 0 0
          0.0010178786450589514 -0.00201208332329634 0 -0.0011963297433616087 -0.001972850455122593 0
          0.0018274657556294207 -0.008832225626867229 0 -0.0024161727941608814 -0.00866800541465906 0
          0.0020092579089991736 -0.018877318183203276 0 -0.0035730915086100473 -0.018567101412462036 0
          0.0017301902657494439 -0.03119407682818949 0 -0.004793239797880099 -0.03077113309336799 0
          0.0010817493458318457 -0.04499640443021314 0 -0.006036026356287635 -0.04448831533787791 0
          0.00017334887655494715 -0.05968953089461999 0
          <InformationKey name="L2_NORM_RANGE" location="vtkDataArray" length="2">
            <Value index="0">
              0
            </Value>
            <Value index="1">
              0.059689782612
            </Value>
          </InformationKey>
        </DataArray>
        <DataArray type="Float64" Name="Nodal Stress" NumberOfComponents="6" format="ascii" RangeMin="13788.680052945696" RangeMax="116147.60634123882">
          111581.82202685539 -377.81562129249494 0 -32243.149773600882 0 0
          -57586.4484800332 -7314.915911809524 0 -2056.9159948028364 0 0
          77542.18793926295 5761.038557882966 0 -13029.723964552786 0 0
          -71065.72597101108 -1356.9453241252781 0 4239.763312231091 0 0
          57297.64097762112 6236.331093958776 0 -16216.640821320929 0 0
          -59158.28193542113 -2131.7581429382085 0 3885.7646455170866 0 0
          44679.875429124906 6254.070167441033 0 -13914.39055498456 0 0
          -44539.06062047963 -1069.6468957096408 0 3986.920004889091 0 0
          30900.471696323188 5534.528392025719 0 -11622.587446132751 0 0
          -31818.599529842544 -614.2994389230186 0 2863.3147731621025 0 0
          20324.613666916237 4475.999034518882 0 -8680.964775694636 0 0
          -20833.680055784884 -93.26592514230788 0 1777.4926863335065 0 0
          11989.869294886292 3242.261714102193 0 -5988.194291379707 0 0
          <InformationKey name="L2_NORM_RANGE" location="vtkDataArray" length="2">
            <Value index="0">
              13788.680053
            </Value>
            <Value index="1">
              116147.60634
            </Value>
          </InformationKey>
        </DataArray>
        <DataArray type="Float64" Name="Nodal Strain" NumberOfComponents="6" format="ascii" RangeMin="0" RangeMax="0">
          0 0 0 0 0 0
          0 0 0 0 0 0
          0 0 0 0 0 0
          0 0 0 0 0 0
          0 0 0 0 0 0
          0 0 0 0 0 0
          0 0 0 0 0 0
          0 0 0 0 0 0
          0 0 0 0 0 0
          0 0 0 0 0 0
          0 0 0 0 0 0
          0 0 0 0 0 0
          0 0 0 0 0 0
          <InformationKey name="L2_NORM_RANGE" location="vtkDataArray" length="2">
            <Value index="0">
              0
            </Value>
            <Value index="1">
              0
            </Value>
          </InformationKey>
        </DataArray>
        <DataArray type="Float64" Name="Sld_traction" NumberOfComponents="3" format="ascii" RangeMin="3602.2733255021108" RangeMax="54906.31005060278">
          -52577.11094195129 15822.46151427362 0 18769.839219658363 14588.105176503383 0
          -21861.10087254896 13896.464985493409 0 -12601.256721963386 9923.128642669682 0
          -19746.60778709389 11369.775245472812 0 -9317.072219754791 7936.408008073066 0
          -16547.006745518996 10279.196461120291 0 -6550.860656072935 5956.42307443259 0
          -13356.598482922187 8371.459128750697 0 -4277.192431437133 4099.811825770437 0
          -10069.51221093412 6373.2293636779295 0 -2581.9597520524007 2511.94286368252 0
          -7089.328004169085 4403.718465018165 0
          <InformationKey name="L2_NORM_RANGE" location="vtkDataArray" length="2">
            <Value index="0">
              3602.2733255
            </Value>
            <Value index="1">
              54906.310051
            </Value>
          </InformationKey>
        </DataArray>
        <DataArray type="Float64" Name="Velocity" NumberOfComponents="3" format="ascii" RangeMin="0" RangeMax="5.820965952718188">
          0 0 0 0 0 0
          0.09235525798199268 -0.17749334298179775 0 -0.09973005777523047 -0.17069247863442616 0
          0.14053465304339452 -0.7772546922911734 0 -0.2420783457263277 -0.74643639589336 0
          0.12091613768920673 -1.7161828528097596 0 -0.40925571558793483 -1.656101468499541 0
          0.027184346722917807 -2.911390330780126 0 -0.6136526820832893 -2.8269024337508544 0
          -0.12475048148322643 -4.294235179351972 0 -0.8469085341120723 -4.190226159608105 0
          -0.32094466077760153 -5.8121114190475325 0
          <InformationKey name="L2_NORM_RANGE" location="vtkDataArray" length="2">
            <Value index="0">
              0
            </Value>
            <Value index="1">
              5.8209659527
            </Value>
          </InformationKey>
        </DataArray>
        <DataArray type="Float64" Name="Acceleration" NumberOfComponents="3" format="ascii" RangeMin="0" RangeMax="968.0525121049334">
          0 0 0 0 0 0
          -35.54218904688685 82.9255929899125 0 51.573916659073916 80.94187465653499 0
          -50.60228065537535 333.5335029989965 0 84.20700569814699 325.84996825645703 0
          -28.427816356668473 604.895789639535 0 95.56115771382838 597.086555284337 0
          1.516286403000322 823.9613929352126 0 89.51925355417552 821.1958316588461 0
          24.774312638144693 949.7154036220309 0 62.36249724709023 954.9972785088612 0
          31.310097539804474 967.5460423074037 0
          <InformationKey name="L2_NORM_RANGE" location="vtkDataArray" length="2">
            <Value index="0">
              0
            </Value>
            <Value index="1">
              968.0525121
            </Value>
          </InformationKey>
        </DataArray>
        <DataArray type="Float64" Name="Sigma" NumberOfComponents="6" format="ascii" RangeMin="26708.242945626786" RangeMax="168927.36713949786">
          111111.9370254515 -111111.93702545171 0 -62005.88899118258 0 0
          -107468.73914221367 107468.73914221325 0 17201.686512511842 0 0
          109164.14038760647 -109164.14038760557 0 -22162.507624550217 0 0
          -103013.43997191737 103013.43997191754 0 21995.46146001861 0 0
          82585.06331499178 -82585.06331499251 0 -38743.333522668494 0 0
          -78877.94335553757 78877.94335553783 0 24248.375364059644 0 0
          63267.08719672814 -63267.08719672959 0 -31861.93482964123 0 0
          -59192.27372213312 59192.273722133476 0 20924.13342876396 0 0
          43381.674310697694 -43381.67431069506 0 -26929.71638659873 0 0
          -40888.50740875296 40888.50740874932 0 15981.076403388188 0 0
          28238.85333154021 -28238.853331544546 0 -19582.73395348363 0 0
          -26320.80857732351 26320.80857732341 0 10756.720175341106 0 0
          16459.569733850843 -16459.569733850138 0 -13095.624062855833 0 0
          <InformationKey name="L2_NORM_RANGE" location="vtkDataArray" length="2">
            <Value index="0">
              26708.242946
            </Value>
            <Value index="1">
              168927.36714
            </Value>
          </InformationKey>
        </DataArray>
        <DataArray type="Float64" Name="Press" format="ascii" RangeMin="-129995.93557250104" RangeMax="128502.31142911165">
          111950.81847725758 -129995.93557250104 128502.31142911165 -111036.96761579467 95622.5300142637 -89714.84134170307
          77924.47861777912 -67344.3243564362 55244.8380571306 -47169.79750270224 37570.86264029754 -30321.201143144597
          22826.452309362507
        </DataArray>
        <DataArray type="Float64" Name="Dev strain" NumberOfComponents="6" format="ascii" RangeMin="0" RangeMax="0">
          0 0 0 0 0 0
          0 0 0 0 0 0
          0 0 0 0 0 0
          0 0 0 0 0 0
          0 0 0 0 0 0
          0 0 0 0 0 0
          0 0 0 0 0 0
          0 0 0 0 0 0
          0 0 0 0 0 0
          0 0 0 0 0 0
          0 0 0 0 0 0
          0 0 0 0 0 0
          0 0 0 0 0 0
          <InformationKey name="L2_NORM_RANGE" location="vtkDataArray" length="2">
            <Value index="0">
              0
            </Value>
            <Value index="1">
              0
            </Value>
          </InformationKey>
        </DataArray>
        <DataArray type="Float64" Name="J2 Stresses" format="ascii" RangeMin="313791278.22239935" RangeMax="13307045116.944637">
          13307045116.944637 11623504397.535805 12039603732.617018 10732718896.057632 7195554155.853443 6368725874.948498
          4256520045.1305695 3613180108.332131 2063272072.1649947 1735718738.8682294 893303704.7535923 721711721.396752
          313791278.22239935
        </DataArray>
      </PointData>
      <CellData>
        <DataArray type="UInt8" Name="vtkGhostType" format="ascii" RangeMin="0" RangeMax="0">
          0 0 0 0 0 0
          0 0 0 0 0
        </DataArray>
        <DataArray type="Float64" Name="Gauss Stress" NumberOfComponents="6" format="ascii" RangeMin="18151.14590071322" RangeMax="77701.07603843369">
          -71282.87682856954 -3737.517677552945 0 5678.213449326749 0 0
          74421.51086823751 -783.3813123252748 0 -22322.236701073653 0 0
          -68145.19965189908 -1940.9863102570612 0 2500.1677671365906 0 0
          67274.5458527539 8117.370032300052 0 -12970.126562400039 0 0
          -51312.605653767576 -1443.8523998061419 0 4436.857987727459 0 0
          50268.79148217407 5619.3200447184945 0 -15452.29766275003 0 0
          -38656.13020739876 -856.7256606067049 0 3325.1644818511404 0 0
          37760.493367922085 6122.8348443941195 0 -12622.50592915867 0 0
          -26296.86622002852 -316.55778367370476 0 2385.0208750818883 0 0
          25459.30780940362 4971.294320411871 0 -10177.124645564723 0 0
          16151.24276486101 3899.4997728147264 0 -7307.212613666117 0 0
          <InformationKey name="L2_NORM_RANGE" location="vtkDataArray" length="2">
            <Value index="0">
              18151.145901
            </Value>
            <Value index="1">
              77701.076038
            </Value>
          </InformationKey>
        </DataArray>
        <DataArray type="Float64" Name="Gauss Strain" NumberOfComponents="6" format="ascii" RangeMin="0" RangeMax="0">
          0 0 0 0 0 0
          0 0 0 0 0 0
          0 0 0 0 0 0
          0 0 0 0 0 0
          0 0 0 0 0 0
          0 0 0 0 0 0
          0 0 0 0 0 0
          0 0 0 0 0 0
          0 0 0 0 0 0
          0 0 0 0 0 0
          0 0 0 0 0 0
          <InformationKey name="L2_NORM_RANGE" location="vtkDataArray" length="2">
            <Value index="0">
              0
            </Value>
            <Value index="1">
              0
            </Value>
          </InformationKey>
        </DataArray>
      </CellData>
      <Points>
        <DataArray type="Float32" Name="Points" NumberOfComponents="3" format="ascii" RangeMin="0" RangeMax="0.6020797527609908">
          0 0.05000000074505806 0 0 0 0
          0.10000000149011612 0.05000000074505806 0 0.10000000149011612 0 0
          0.20000000298023224 0.05000000074505806 0 0.20000000298023224 0 0
          0.30000001192092896 0.05000000074505806 0 0.30000001192092896 0 0
          0.4000000059604645 0.05000000074505806 0 0.4000000059604645 0 0
          0.5 0.05000000074505806 0 0.5 0 0
          0.6000000238418579 0.05000000074505806 0
          <InformationKey name="L2_NORM_RANGE" location="vtkDataArray" length="2">
            <Value index="0">
              0
            </Value>
            <Value index="1">
              0.60207975276
            </Value>
          </InformationKey>
        </DataArray>
      </Points>
      <Cells>
        <DataArray type="Int64" Name="connectivity" format="ascii" RangeMin="0" RangeMax="12">
          3 2 1 2 0 1
          5 4 3 4 2 3
          7 6 5 6 4 5
          9 8 7 8 6 7
          11 10 9 10 8 9
          12 10 11
        </DataArray>
        <DataArray type="Int64" Name="offsets" format="ascii" RangeMin="3" RangeMax="33">
          3 6 9 12 15 18
          21 24 27 30 33
        </DataArray>
        <DataArray type="UInt8" Name="types" format="ascii" RangeMin="5" RangeMax="5">
          5 5 5 5 5 5
          5 5 5 5 5
        </DataArray>
      </Cells>
    </Piece>
  </UnstructuredGrid>
</VTKFile>
