<?xml version="1.0"?>
<VTKFile type="UnstructuredGrid" version="0.1" byte_order="LittleEndian" header_type="UInt32" compressor="vtkZLibDataCompressor">
  <UnstructuredGrid>
    <Piece NumberOfPoints="13" NumberOfCells="11">
      <PointData>
        <DataArray type="Float64" Name="Disp" NumberOfComponents="3" format="ascii" RangeMin="0.009675963401643084" RangeMax="0.07959364341167649">
          -0.002454019662980705 -0.01655735780183018 0 0.0017305576135820653 -0.026013147055968758 0
          -0.0034146069382097466 -0.025749431423224237 0 0.0015677479938971859 -0.03736982417627528 0
          -0.004535728394078334 -0.03699749709553629 0 0.001104611643519304 -0.050491517469523114 0
          -0.005798153631672447 -0.050012631775344825 0 0.0003168379510350051 -0.06493985496628235 0
          -0.006994490369072523 -0.06441360548874991 0 -0.0008098332043887187 -0.07958952344200951 0
          -0.008066825812129459 -0.07904185112396106 0 0.0016261653099308641 -0.016723477241565927 0
          -0.0016633832843252895 -0.009531916061283986 0
          <InformationKey name="L2_NORM_RANGE" location="vtkDataArray" length="2">
            <Value index="0">
              0.0096759634016
            </Value>
            <Value index="1">
              0.079593643412
            </Value>
          </InformationKey>
        </DataArray>
        <DataArray type="Float64" Name="Nodal Stress" NumberOfComponents="6" format="ascii" RangeMin="7040.433862212014" RangeMax="38363.17280953355">
          -36016.6926914609 -2611.739070198644 0 5052.711279271822 0 0
          35383.08687932074 2977.470635768463 0 -7343.009416944346 0 0
          -34243.75868032513 -2096.30124339843 0 4537.356562296881 0 0
          29678.61822521241 3616.404410256467 0 -8258.432656185432 0 0
          -29011.98937658661 -1174.6933112960567 0 3465.3375909436218 0 0
          21078.651423522915 4018.124248407786 0 -8211.933097975558 0 0
          -21181.89071606858 211.56248447514838 0 1622.241249420874 0 0
          11390.402346541445 4041.124643866587 0 -6483.940606478864 0 0
          -14563.326673330785 622.204227703608 0 -557.1791428884421 0 0
          4811.09347081902 1903.0091627747854 0 -7462.940581103601 0 0
          -6942.083225274041 -713.2653333900037 0 -930.8286768973065 0 0
          37871.9648399876 2222.1663605599338 0 -5701.691313888639 0 0
          -35200.26747305774 -2828.6533235224733 0 5007.2212570303545 0 0
          <InformationKey name="L2_NORM_RANGE" location="vtkDataArray" length="2">
            <Value index="0">
              7040.4338622
            </Value>
            <Value index="1">
              38363.17281
            </Value>
          </InformationKey>
        </DataArray>
        <DataArray type="Float64" Name="Nodal Strain" NumberOfComponents="6" format="ascii" RangeMin="0" RangeMax="0">
          0 0 0 0 0 0
          0 0 0 0 0 0
          0 0 0 0 0 0
          0 0 0 0 0 0
          0 0 0 0 0 0
          0 0 0 0 0 0
          0 0 0 0 0 0
          0 0 0 0 0 0
          0 0 0 0 0 0
          0 0 0 0 0 0
          0 0 0 0 0 0
          0 0 0 0 0 0
          0 0 0 0 0 0
          <InformationKey name="L2_NORM_RANGE" location="vtkDataArray" length="2">
            <Value index="0">
              0
            </Value>
            <Value index="1">
              0
            </Value>
          </InformationKey>
        </DataArray>
        <DataArray type="Float64" Name="Sld_traction" NumberOfComponents="3" format="ascii" RangeMin="366.4605773763978" RangeMax="11282.162376172897">
          -7708.324734375301 6429.836493060519 0 -8501.728327786215 6273.3547723648435 0
          -6520.57715682531 5700.125415480684 0 -9361.389864541892 6296.949077639394 0
          -4981.002587361396 4243.139285212318 0 -9280.826760737657 5906.1161073650665 0
          -2354.7340826633954 2332.5690352716224 0 -8050.94171251982 5044.366182708923 0
          -902.8838842192672 1019.6551181382089 0 -2581.71138326107 -1487.641829994761 0
          345.00408905956334 -123.55376685161687 0 -7323.888154816939 5806.892108721518 0
          -8245.253294246486 6579.294132998348 0
          <InformationKey name="L2_NORM_RANGE" location="vtkDataArray" length="2">
            <Value index="0">
              366.46057738
            </Value>
            <Value index="1">
              11282.162376
            </Value>
          </InformationKey>
        </DataArray>
        <DataArray type="Float64" Name="Velocity" NumberOfComponents="3" format="ascii" RangeMin="5.351778357474449" RangeMax="12.778559920950013">
          -0.6163197236243145 -6.896602513303366 0 -0.0522028134726652 -8.341748473700525 0
          -0.6954863594524292 -8.273116666877776 0 -0.22549062809948506 -9.552841006977083 0
          -0.798515503186737 -9.479803909483062 0 -0.3919445994775229 -10.652255826770155 0
          -0.9253778704421944 -10.575430260662214 0 -0.5532332213926588 -11.702571661341821 0
          -1.078182264256887 -11.6227594259881 0 -0.7072738182065644 -12.758971643490298 0
          -1.2386548874673227 -12.679422866720135 0 0.12075008188441971 -6.958201555883784 0
          -0.5561627120079107 -5.322801388865069 0
          <InformationKey name="L2_NORM_RANGE" location="vtkDataArray" length="2">
            <Value index="0">
              5.3517783575
            </Value>
            <Value index="1">
              12.778559921
            </Value>
          </InformationKey>
        </DataArray>
        <DataArray type="Float64" Name="Acceleration" NumberOfComponents="3" format="ascii" RangeMin="425.29685606071047" RangeMax="1248.4366825649943">
          -178.0976593712487 -1113.2816648950688 0 -147.7028094375621 -1239.6685163615875 0
          -158.6458495816562 -1230.3859182525648 0 -192.19066500929898 -1169.6280075175564 0
          -120.0010570128211 -1171.4015073327755 0 -203.27828599016493 -954.7345961383435 0
          -76.13854189684889 -965.935955866018 0 -181.25322730551102 -672.4850626864063 0
          -44.17146873963384 -686.4578234086439 0 -144.9676186944987 -411.4749995368402 0
          -18.917518439500782 -424.8759151460763 0 -84.50317013332926 -1130.983554325114 0
          -169.5941120390524 -857.0459848692667 0
          <InformationKey name="L2_NORM_RANGE" location="vtkDataArray" length="2">
            <Value index="0">
              425.29685606
            </Value>
            <Value index="1">
              1248.4366826
            </Value>
          </InformationKey>
        </DataArray>
        <DataArray type="Float64" Name="Sigma" NumberOfComponents="6" format="ascii" RangeMin="3265.1802456267305" RangeMax="76314.67038700053">
          -51161.87909400518 51161.87909400566 0 16910.584419254115 0 0
          49475.48100430665 -49475.48100430752 0 -19765.15975163211 0 0
          -47601.14480356278 47601.14480356463 0 17227.35483942095 0 0
          41763.208027807545 -41763.20802780785 0 -20963.180080442435 0 0
          -39194.83302822446 39194.83302822288 0 15873.860268965645 0 0
          29396.854134081736 -29396.8541340794 0 -19537.438337918138 0 0
          -26988.111164288144 26988.111164289276 0 10308.795920491108 0 0
          16269.910622781159 -16269.910622786681 0 -12571.857657372422 0 0
          -18763.409748647908 18763.409748646583 0 6057.977173963444 0 0
          8495.912735002794 -8495.91273499467 0 -15530.395505680739 0 0
          -1095.0693850620446 1095.0693850575183 0 2874.5518120640336 0 0
          52672.0475962007 -52672.04759620212 0 -16590.350217024432 0 0
          -50870.48847227158 50870.48847227291 0 14897.865659979892 0 0
          <InformationKey name="L2_NORM_RANGE" location="vtkDataArray" length="2">
            <Value index="0">
              3265.1802456
            </Value>
            <Value index="1">
              76314.670387
            </Value>
          </InformationKey>
        </DataArray>
        <DataArray type="Float64" Name="Press" format="ascii" RangeMin="-59076.41620207673" RangeMax="59894.07565237498">
          -59076.41620207673 57890.811885278505 -55257.92096872916 50811.61202805076 -45528.143082698 37973.56328394366
          -30761.268956622658 24126.21597546215 -20166.89105060166 11609.950617029745 -3376.8783418775247 59894.07565237498
          -58452.65490015161
        </DataArray>
        <DataArray type="Float64" Name="Dev strain" NumberOfComponents="6" format="ascii" RangeMin="0" RangeMax="0">
          0 0 0 0 0 0
          0 0 0 0 0 0
          0 0 0 0 0 0
          0 0 0 0 0 0
          0 0 0 0 0 0
          0 0 0 0 0 0
          0 0 0 0 0 0
          0 0 0 0 0 0
          0 0 0 0 0 0
          0 0 0 0 0 0
          0 0 0 0 0 0
          0 0 0 0 0 0
          0 0 0 0 0 0
          <InformationKey name="L2_NORM_RANGE" location="vtkDataArray" length="2">
            <Value index="0">
              0
            </Value>
            <Value index="1">
              0
            </Value>
          </InformationKey>
        </DataArray>
        <DataArray type="Float64" Name="J2 Stresses" format="ascii" RangeMin="3264938.988155362" RangeMax="2843154528.0573874">
          2689029838.779809 2545488605.609436 2340064425.3006706 1854029274.5452056 1599229796.0699944 959602907.1823981
          754925962.5485885 304222892.91268545 361240317.255696 132478829.34143077 3264938.988155362 2843154528.0573874
          2643293197.7132854
        </DataArray>
      </PointData>
      <CellData>
        <DataArray type="UInt8" Name="vtkGhostType" format="ascii" RangeMin="0" RangeMax="1">
          1 1 0 0 0 0
          0 0 0 0 0
        </DataArray>
        <DataArray type="Float64" Name="Gauss Stress" NumberOfComponents="6" format="ascii" RangeMin="8073.13607020053" RangeMax="37223.868170155474">
          -35665.105139976484 -2758.2251599256383 0 5072.699954069862 0 0
          36564.70694735965 2574.273943024261 0 -6481.6418498008115 0 0
          -35243.68939292957 -2385.327464088205 0 4790.926502347654 0 0
          -31669.07394245204 -1647.2274064655794 0 4046.0116759813873 0 0
          32360.682391050534 3268.986238683124 0 -7833.661664217868 0 0
          -25033.97960460262 -509.91956564808197 0 2215.072617179539 0 0
          25074.08712098709 3763.9343652106827 0 -8208.919383131644 0 0
          -18761.18477397236 893.2220861290041 0 1264.9718123607113 0 0
          16672.387965119302 4219.952236735449 0 -7266.8333582664845 0 0
          -7765.461724718865 -190.41745891333608 0 -2199.28883988442 0 0
          7190.563050342094 3188.953977585156 0 -7348.0919963632405 0 0
          <InformationKey name="L2_NORM_RANGE" location="vtkDataArray" length="2">
            <Value index="0">
              8073.1360702
            </Value>
            <Value index="1">
              37223.86817
            </Value>
          </InformationKey>
        </DataArray>
        <DataArray type="Float64" Name="Gauss Strain" NumberOfComponents="6" format="ascii" RangeMin="0" RangeMax="0">
          0 0 0 0 0 0
          0 0 0 0 0 0
          0 0 0 0 0 0
          0 0 0 0 0 0
          0 0 0 0 0 0
          0 0 0 0 0 0
          0 0 0 0 0 0
          0 0 0 0 0 0
          0 0 0 0 0 0
          0 0 0 0 0 0
          0 0 0 0 0 0
          <InformationKey name="L2_NORM_RANGE" location="vtkDataArray" length="2">
            <Value index="0">
              0
            </Value>
            <Value index="1">
              0
            </Value>
          </InformationKey>
        </DataArray>
      </CellData>
      <Points>
        <DataArray type="Float32" Name="Points" NumberOfComponents="3" format="ascii" RangeMin="0.4000000059604645" RangeMax="1.0012492197622458">
          0.5 0 0 0.6000000238418579 0.05000000074505806 0
          0.6000000238418579 0 0 0.699999988079071 0.05000000074505806 0
          0.699999988079071 0 0 0.800000011920929 0.05000000074505806 0
          0.800000011920929 0 0 0.8999999761581421 0.05000000074505806 0
          0.8999999761581421 0 0 1 0.05000000074505806 0
          1 0 0 0.5 0.05000000074505806 0
          0.4000000059604645 0 0
          <InformationKey name="L2_NORM_RANGE" location="vtkDataArray" length="2">
            <Value index="0">
              0.40000000596
            </Value>
            <Value index="1">
              1.0012492198
            </Value>
          </InformationKey>
        </DataArray>
      </Points>
      <Cells>
        <DataArray type="Int64" Name="connectivity" format="ascii" RangeMin="0" RangeMax="12">
          0 11 12 1 11 0
          2 1 0 4 3 2
          3 1 2 6 5 4
          5 3 4 8 7 6
          7 5 6 10 9 8
          9 7 8
        </DataArray>
        <DataArray type="Int64" Name="offsets" format="ascii" RangeMin="3" RangeMax="33">
          3 6 9 12 15 18
          21 24 27 30 33
        </DataArray>
        <DataArray type="UInt8" Name="types" format="ascii" RangeMin="5" RangeMax="5">
          5 5 5 5 5 5
          5 5 5 5 5
        </DataArray>
      </Cells>
    </Piece>
  </UnstructuredGrid>
</VTKFile>
