<?xml version="1.0"?>
<VTKFile type="UnstructuredGrid" version="0.1" byte_order="LittleEndian" header_type="UInt32" compressor="vtkZLibDataCompressor">
  <UnstructuredGrid>
    <Piece NumberOfPoints="13" NumberOfCells="11">
      <PointData>
        <DataArray type="Float64" Name="Disp" NumberOfComponents="3" format="ascii" RangeMin="0.022335553625174694" RangeMax="0.0947959808983751">
          0.001507196421379614 0.03282131103855405 0 -0.004919167854974933 0.044072471906737576 0
          0.0010563867935863905 0.04443533012217888 0 -0.0058023679874550866 0.05633081049376763 0
          0.0004325937469066559 0.05672470083573422 0 -0.006659611109539133 0.06895738622574014 0
          -0.0003081189821405459 0.06936503434907663 0 -0.0074800908111944025 0.08170079489683098 0
          -0.0011252914831813847 0.08210769717692278 0 -0.008261698670714836 0.09437517778222433 0
          -0.0019409259927980422 0.09477610880794578 0 -0.004030368553158425 0.0325089144574027 0
          0.00173630370956956 0.02226796365120056 0
          <InformationKey name="L2_NORM_RANGE" location="vtkDataArray" length="2">
            <Value index="0">
              0.022335553625
            </Value>
            <Value index="1">
              0.094795980898
            </Value>
          </InformationKey>
        </DataArray>
        <DataArray type="Float64" Name="Nodal Stress" NumberOfComponents="6" format="ascii" RangeMin="778.3609783914078" RangeMax="23676.119240288004">
          16934.027466080825 334.21817056391336 0 2239.1619355612256 0 0
          -10759.397747833362 -781.496987556805 0 2346.622176080705 0 0
          11318.44199320965 204.23380795648382 0 1961.277537998823 0 0
          -6420.152838859483 -501.2005950447052 0 1874.8540036466782 0 0
          6755.191878583864 85.59042549013326 0 1522.7276349393917 0 0
          -3244.2565822003558 -316.6882628992126 0 1350.969318969706 0 0
          3508.346223665772 48.83230033593303 0 1081.942075030894 0 0
          -1315.4153927990876 -165.1915091545738 0 689.2225256771345 0 0
          1443.9454095997512 16.630873693585418 0 451.61163230130035 0 0
          -706.7045033861798 -53.110416850759755 0 321.85997141313044 0 0
          1205.4762446530776 310.3304981827869 0 496.8846221220388 0 0
          -16171.765530678485 -1174.7809474702522 0 2786.7279530120713 0 0
          23558.684896209783 462.48918622389044 0 2309.3488246817215 0 0
          <InformationKey name="L2_NORM_RANGE" location="vtkDataArray" length="2">
            <Value index="0">
              778.36097839
            </Value>
            <Value index="1">
              23676.11924
            </Value>
          </InformationKey>
        </DataArray>
        <DataArray type="Float64" Name="Nodal Strain" NumberOfComponents="6" format="ascii" RangeMin="0" RangeMax="0">
          0 0 0 0 0 0
          0 0 0 0 0 0
          0 0 0 0 0 0
          0 0 0 0 0 0
          0 0 0 0 0 0
          0 0 0 0 0 0
          0 0 0 0 0 0
          0 0 0 0 0 0
          0 0 0 0 0 0
          0 0 0 0 0 0
          0 0 0 0 0 0
          0 0 0 0 0 0
          0 0 0 0 0 0
          <InformationKey name="L2_NORM_RANGE" location="vtkDataArray" length="2">
            <Value index="0">
              0
            </Value>
            <Value index="1">
              0
            </Value>
          </InformationKey>
        </DataArray>
        <DataArray type="Float64" Name="Sld_traction" NumberOfComponents="3" format="ascii" RangeMin="75.61146325476766" RangeMax="9584.97092352814">
          3310.048552037361 -1411.5072234361016 0 6787.692166576882 -2136.845903163045 0
          1929.287262132764 -820.4968695334051 0 4701.7692024969865 -1394.4716153880897 0
          848.8349929004551 -404.5393979709377 0 2827.466755415569 -863.0149881866404 0
          91.33990360912063 -176.3353925282886 0 1317.2856667238232 -434.03552657499296 0
          -25.545420505482106 -126.65215067681316 0 136.2499769294941 -73.35790484654356 0
          -24.44254853588681 -71.55176585240854 0 9074.766717045668 -3085.494552916938 0
          4934.539168907926 -2167.6223503024335 0
          <InformationKey name="L2_NORM_RANGE" location="vtkDataArray" length="2">
            <Value index="0">
              75.611463255
            </Value>
            <Value index="1">
              9584.9709235
            </Value>
          </InformationKey>
        </DataArray>
        <DataArray type="Float64" Name="Velocity" NumberOfComponents="3" format="ascii" RangeMin="5.149773682838382" RangeMax="12.42401360034694">
          -0.10691666602689531 6.837348678016225 0 -1.0148189287121077 8.22761881736626 0
          -0.33945873297715723 8.31070297408828 0 -1.1093329016568263 9.461294609556948 0
          -0.5508582902261163 9.53276049815971 0 -1.199898438070076 10.486844414247244 0
          -0.7227402582963236 10.548857782326678 0 -1.3046326234110448 11.400536705843013 0
          -0.8483792412720963 11.459784757717543 0 -1.4350973140882237 12.325123287337696 0
          -0.9658500517926677 12.386413832060427 0 -0.9003574717966802 6.746688604826062 0
          0.10987245816520141 5.148601463251116 0
          <InformationKey name="L2_NORM_RANGE" location="vtkDataArray" length="2">
            <Value index="0">
              5.1497736828
            </Value>
            <Value index="1">
              12.4240136
            </Value>
          </InformationKey>
        </DataArray>
        <DataArray type="Float64" Name="Acceleration" NumberOfComponents="3" format="ascii" RangeMin="274.1522091152787" RangeMax="690.8813338264197">
          -119.049626808516 -342.95677106473886 0 -91.60243738827148 -426.0744426573183 0
          -128.69888775529853 -423.6741448049579 0 -95.15242813489886 -494.25162160431137 0
          -128.53586901896824 -495.70351320887494 0 -91.78162886499331 -556.6939262039741 0
          -122.50910520741945 -560.1833744323085 0 -84.50632003057808 -616.5086089373872 0
          -115.00335268960589 -620.3837742036703 0 -76.35226975211253 -678.7491035340063 0
          -107.78610830000184 -682.4215502805528 0 -78.27247210934433 -350.5147310531738 0
          -98.25349823218016 -255.94078191629887 0
          <InformationKey name="L2_NORM_RANGE" location="vtkDataArray" length="2">
            <Value index="0">
              274.15220912
            </Value>
            <Value index="1">
              690.88133383
            </Value>
          </InformationKey>
        </DataArray>
        <DataArray type="Float64" Name="Sigma" NumberOfComponents="6" format="ascii" RangeMin="1160.4672834437624" RangeMax="45011.643150190466">
          22600.66704263409 -22600.66704263311 0 1992.627925689149 0 0
          -16666.48725360641 16666.487253606603 0 2549.4579465646675 0 0
          14825.890434203717 -14825.890434203282 0 1835.9915865216985 0 0
          -10092.794676408937 10092.794676409054 0 2013.0898653435233 0 0
          8585.088419953032 -8585.088419953638 0 1402.3537846256643 0 0
          -5148.507311515692 5148.507311515462 0 1394.6789269248304 0 0
          4144.167880407286 -4144.1678804044195 0 1206.8306226260906 0 0
          -2048.7366621151014 2048.73666210828 0 612.5312699888581 0 0
          1698.2463447764799 -1698.2463447746047 0 325.0177848113907 0 0
          -1145.0679269386321 1145.067926942705 0 137.45029789925186 0 0
          618.5565375503353 -618.5565375553718 0 762.5352028887561 0 0
          -24727.583000530285 24727.583000529798 0 3194.8181751558845 0 0
          31808.09366860435 -31808.093668602305 0 1593.2273594192366 0 0
          <InformationKey name="L2_NORM_RANGE" location="vtkDataArray" length="2">
            <Value index="0">
              1160.4672834
            </Value>
            <Value index="1">
              45011.64315
            </Value>
          </InformationKey>
        </DataArray>
        <DataArray type="Float64" Name="Press" format="ascii" RangeMin="-27446.1278969424" RangeMax="34048.314650246575">
          24233.696139752785 -18476.698174776502 15842.685618935633 -11199.621176314682 9130.773729764815 -5840.012798502588
          4475.295333549606 -2347.62624044123 1732.3508906582267 -1372.968665325163 1336.1156301703636 -27446.1278969424
          34048.314650246575
        </DataArray>
        <DataArray type="Float64" Name="Dev strain" NumberOfComponents="6" format="ascii" RangeMin="0" RangeMax="0">
          0 0 0 0 0 0
          0 0 0 0 0 0
          0 0 0 0 0 0
          0 0 0 0 0 0
          0 0 0 0 0 0
          0 0 0 0 0 0
          0 0 0 0 0 0
          0 0 0 0 0 0
          0 0 0 0 0 0
          0 0 0 0 0 0
          0 0 0 0 0 0
          0 0 0 0 0 0
          0 0 0 0 0 0
          <InformationKey name="L2_NORM_RANGE" location="vtkDataArray" length="2">
            <Value index="0">
              0
            </Value>
            <Value index="1">
              0
            </Value>
          </InformationKey>
        </DataArray>
        <DataArray type="Float64" Name="J2 Stresses" format="ascii" RangeMin="527977.1740605239" RangeMax="1012389416.1853434">
          511782792.28454363 279396731.3299537 220649743.44345137 102877637.08163697 74195392.21273035 26993409.86403141
          17538237.45891456 4291120.5498590935 2910449.7876544152 1315903.7034063488 527977.1740605239 614005076.8411789
          1012389416.1853434
        </DataArray>
      </PointData>
      <CellData>
        <DataArray type="UInt8" Name="vtkGhostType" format="ascii" RangeMin="0" RangeMax="1">
          1 1 0 0 0 0
          0 0 0 0 0
        </DataArray>
        <DataArray type="Float64" Name="Gauss Stress" NumberOfComponents="6" format="ascii" RangeMin="1053.880902881283" RangeMax="20302.23168015626">
          20172.35353458838 384.9017274504488 0 2260.224486754756 0 0
          -13494.177714489573 -965.2422401542748 0 2578.9680158032334 0 0
          14119.91793571444 279.8711202273753 0 2126.025819591838 0 0
          9030.674116711192 151.88466487929992 0 1750.4784121636285 0 0
          -8589.008409322394 -633.4140787810585 0 2132.8464661432963 0 0
          5115.60175121882 61.76909198974553 0 1334.621111392195 0 0
          -4855.024604341353 -417.54889236052657 0 1603.3741922980057 0 0
          2551.232515611756 22.114140231952888 0 714.7932258087798 0 0
          -2255.1399328725743 -219.7558707249633 0 1071.3469398465932 0 0
          955.7442702972036 174.58763337205207 0 408.33442853313295 0 0
          -1161.2674197951403 -164.22859027726187 0 358.33311756650016 0 0
          <InformationKey name="L2_NORM_RANGE" location="vtkDataArray" length="2">
            <Value index="0">
              1053.8809029
            </Value>
            <Value index="1">
              20302.23168
            </Value>
          </InformationKey>
        </DataArray>
        <DataArray type="Float64" Name="Gauss Strain" NumberOfComponents="6" format="ascii" RangeMin="0" RangeMax="0">
          0 0 0 0 0 0
          0 0 0 0 0 0
          0 0 0 0 0 0
          0 0 0 0 0 0
          0 0 0 0 0 0
          0 0 0 0 0 0
          0 0 0 0 0 0
          0 0 0 0 0 0
          0 0 0 0 0 0
          0 0 0 0 0 0
          0 0 0 0 0 0
          <InformationKey name="L2_NORM_RANGE" location="vtkDataArray" length="2">
            <Value index="0">
              0
            </Value>
            <Value index="1">
              0
            </Value>
          </InformationKey>
        </DataArray>
      </CellData>
      <Points>
        <DataArray type="Float32" Name="Points" NumberOfComponents="3" format="ascii" RangeMin="0.4000000059604645" RangeMax="1.0012492197622458">
          0.5 0 0 0.6000000238418579 0.05000000074505806 0
          0.6000000238418579 0 0 0.699999988079071 0.05000000074505806 0
          0.699999988079071 0 0 0.800000011920929 0.05000000074505806 0
          0.800000011920929 0 0 0.8999999761581421 0.05000000074505806 0
          0.8999999761581421 0 0 1 0.05000000074505806 0
          1 0 0 0.5 0.05000000074505806 0
          0.4000000059604645 0 0
          <InformationKey name="L2_NORM_RANGE" location="vtkDataArray" length="2">
            <Value index="0">
              0.40000000596
            </Value>
            <Value index="1">
              1.0012492198
            </Value>
          </InformationKey>
        </DataArray>
      </Points>
      <Cells>
        <DataArray type="Int64" Name="connectivity" format="ascii" RangeMin="0" RangeMax="12">
          0 11 12 1 11 0
          2 1 0 4 3 2
          3 1 2 6 5 4
          5 3 4 8 7 6
          7 5 6 10 9 8
          9 7 8
        </DataArray>
        <DataArray type="Int64" Name="offsets" format="ascii" RangeMin="3" RangeMax="33">
          3 6 9 12 15 18
          21 24 27 30 33
        </DataArray>
        <DataArray type="UInt8" Name="types" format="ascii" RangeMin="5" RangeMax="5">
          5 5 5 5 5 5
          5 5 5 5 5
        </DataArray>
      </Cells>
    </Piece>
  </UnstructuredGrid>
</VTKFile>
