<?xml version="1.0"?>
<VTKFile type="UnstructuredGrid" version="0.1" byte_order="LittleEndian" header_type="UInt32" compressor="vtkZLibDataCompressor">
  <UnstructuredGrid>
    <Piece NumberOfPoints="13" NumberOfCells="11">
      <PointData>
        <DataArray type="Float64" Name="Disp" NumberOfComponents="3" format="ascii" RangeMin="0.01526973947317025" RangeMax="0.0900925456081467">
          -0.0032281470603741334 -0.02387483917529357 0 0.0015456070493059984 -0.03490999327635142 0
          -0.004265656500115778 -0.03457275274654637 0 0.0011485930526084537 -0.047418622418167654 0
          -0.0054294435335804385 -0.0469856340938515 0 0.000464886784524467 -0.061239624975697904 0
          -0.006640258405107384 -0.06073527942025185 0 -0.0004959333560916278 -0.07575076473523347 0
          -0.007721557246395273 -0.07523112685939866 0 -0.0016124366461264254 -0.09007811511248569 0
          -0.008729277021073914 -0.08956439023706021 0 0.0016702375631672223 -0.024114833021686273 0
          -0.0023467320486789136 -0.015088332985131158 0
          <InformationKey name="L2_NORM_RANGE" location="vtkDataArray" length="2">
            <Value index="0">
              0.015269739473
            </Value>
            <Value index="1">
              0.090092545608
            </Value>
          </InformationKey>
        </DataArray>
        <DataArray type="Float64" Name="Nodal Stress" NumberOfComponents="6" format="ascii" RangeMin="1442.1070043477055" RangeMax="35066.10151799604">
          -32637.684804445944 -2059.0402624685694 0 4381.790096930401 0 0
          29135.483014695983 3262.7087762542883 0 -7570.256826590318 0 0
          -28582.87174262002 -1323.579970875256 0 3449.509110124775 0 0
          21534.36892930386 3630.270969425908 0 -7635.55895132515 0 0
          -21829.817864448243 -193.43597330180262 0 1953.6471860558675 0 0
          12345.793629441177 3647.179062663192 0 -6617.149459360201 0 0
          -13803.681733398824 761.6864207154306 0 203.04905099904616 0 0
          4790.555824246557 2574.5624939566524 0 -4211.149172633884 0 0
          -7108.901405737517 562.3270595543474 0 -350.1633587032966 0 0
          1477.9970444689814 1518.8976467961681 0 -2740.3342026716246 0 0
          -1390.294389704481 160.99752358667828 0 347.61173648758484 0 0
          34127.62397568696 2771.352097185791 0 -6808.826646921453 0 0
          -34676.57574574471 -2435.1948852684773 0 4608.296441288899 0 0
          <InformationKey name="L2_NORM_RANGE" location="vtkDataArray" length="2">
            <Value index="0">
              1442.1070043
            </Value>
            <Value index="1">
              35066.101518
            </Value>
          </InformationKey>
        </DataArray>
        <DataArray type="Float64" Name="Nodal Strain" NumberOfComponents="6" format="ascii" RangeMin="0" RangeMax="0">
          0 0 0 0 0 0
          0 0 0 0 0 0
          0 0 0 0 0 0
          0 0 0 0 0 0
          0 0 0 0 0 0
          0 0 0 0 0 0
          0 0 0 0 0 0
          0 0 0 0 0 0
          0 0 0 0 0 0
          0 0 0 0 0 0
          0 0 0 0 0 0
          0 0 0 0 0 0
          0 0 0 0 0 0
          <InformationKey name="L2_NORM_RANGE" location="vtkDataArray" length="2">
            <Value index="0">
              0
            </Value>
            <Value index="1">
              0
            </Value>
          </InformationKey>
        </DataArray>
        <DataArray type="Float64" Name="Sld_traction" NumberOfComponents="3" format="ascii" RangeMin="218.7496364330471" RangeMax="10507.80117273981">
          -6393.338525106522 5526.494489356314 0 -8649.26592715782 5966.915820349648 0
          -4938.401302779419 4353.119695769728 0 -8867.426462829557 5598.6496288764365 0
          -3095.6951294373725 2602.8205724326153 0 -7914.82018091564 4756.773036234469 0
          -832.4575072949632 935.3326861201457 0 -5399.740654557823 3198.3921640683493 0
          -388.2735196886706 450.2487681441509 0 -1232.896391808045 471.722355960332 0
          208.06640211410988 67.52611162268876 0 -8132.963566197948 5993.931660834798 0
          -7307.570373802824 6130.776111191446 0
          <InformationKey name="L2_NORM_RANGE" location="vtkDataArray" length="2">
            <Value index="0">
              218.74963643
            </Value>
            <Value index="1">
              10507.801173
            </Value>
          </InformationKey>
        </DataArray>
        <DataArray type="Float64" Name="Velocity" NumberOfComponents="3" format="ascii" RangeMin="6.0031688060928525" RangeMax="11.069928360024651">
          -0.8808606039265838 -7.847835614547451 0 -0.28186752546950056 -9.50053781324944 0
          -0.9523971262491295 -9.422627653994605 0 -0.5548251825877077 -10.592548224289063 0
          -0.9590424407481177 -10.53796527883954 0 -0.804722875403102 -11.038483601997509 0
          -0.8121127247995763 -11.040099040239479 0 -0.9806480245415843 -10.54455299029991 0
          -0.5589716197970471 -10.596242374191792 0 -0.88321180710787 -9.473826162219702 0
          -0.37851493611164555 -9.566313469611572 0 -0.011474117848300769 -7.93130373688168 0
          -0.7768315517570619 -5.952694218136944 0
          <InformationKey name="L2_NORM_RANGE" location="vtkDataArray" length="2">
            <Value index="0">
              6.0031688061
            </Value>
            <Value index="1">
              11.06992836
            </Value>
          </InformationKey>
        </DataArray>
        <DataArray type="Float64" Name="Acceleration" NumberOfComponents="3" format="ascii" RangeMin="338.27424914743466" RangeMax="4544.760921758684">
          -315.6153475382282 -841.7577203200563 0 -265.49550160680496 -1110.1954933642864 0
          -311.1264049072056 -1100.4093128887398 0 -387.32862637849394 -991.9144698305718 0
          -190.39927263073332 -1016.6661776642941 0 -495.5605190346282 -191.70335880925631 0
          166.54619401451419 -294.43476848962746 0 -519.0761714679475 1783.323784781409 0
          702.2307738682712 1610.4761106787118 0 -190.65924706228463 4540.759946028251 0
          1152.4073570457358 4313.767507241966 0 -153.35565729612426 -866.3084484731226 0
          -254.3721046914261 -467.2310699642128 0
          <InformationKey name="L2_NORM_RANGE" location="vtkDataArray" length="2">
            <Value index="0">
              338.27424915
            </Value>
            <Value index="1">
              4544.7609218
            </Value>
          </InformationKey>
        </DataArray>
        <DataArray type="Float64" Name="Sigma" NumberOfComponents="6" format="ascii" RangeMin="3159.844777263162" RangeMax="71169.0384879135">
          -45481.53015518319 45481.530155182736 0 16248.946052459045 0 0
          40887.139369100034 -40887.13936909935 0 -19374.77346191611 0 0
          -38822.42867325579 38822.42867325601 0 14892.695817071777 0 0
          30544.668662828608 -30544.668662827764 0 -18391.32399212468 0 0
          -28398.323345085028 28398.323345083434 0 11499.570804407611 0 0
          17404.280446655495 -17404.28044665768 0 -14543.83674035566 0 0
          -16715.15132770807 16715.15132771089 0 5533.528873586361 0 0
          7316.193841928561 -7316.193841931268 0 -7750.063633302817 0 0
          -8204.318533005633 8204.318533001446 0 2354.9345295610283 0 0
          1823.000352489148 -1823.0003524818424 0 -5258.46920190303 0 0
          1639.3671769665953 -1639.3671769691293 0 2146.9908091461702 0 0
          47497.428092864124 -47497.42809286493 0 -18288.004587690044 0 0
          -49078.94004020796 49078.940040208174 0 15733.636844462717 0 0
          <InformationKey name="L2_NORM_RANGE" location="vtkDataArray" length="2">
            <Value index="0">
              3159.8447773
            </Value>
            <Value index="1">
              71169.038488
            </Value>
          </InformationKey>
        </DataArray>
        <DataArray type="Float64" Name="Press" format="ascii" RangeMin="-56555.87390170483" RangeMax="55361.93912574835">
          -52728.35184759059 49227.16693967146 -45075.63029670822 38706.39552133013 -32595.327576918135 24496.24978395098
          -18156.580712329454 11618.067256927889 -9019.818981809154 4323.774852658233 1118.725198458145 55361.93912574835
          -56555.87390170483
        </DataArray>
        <DataArray type="Float64" Name="Dev strain" NumberOfComponents="6" format="ascii" RangeMin="0" RangeMax="0">
          0 0 0 0 0 0
          0 0 0 0 0 0
          0 0 0 0 0 0
          0 0 0 0 0 0
          0 0 0 0 0 0
          0 0 0 0 0 0
          0 0 0 0 0 0
          0 0 0 0 0 0
          0 0 0 0 0 0
          0 0 0 0 0 0
          0 0 0 0 0 0
          0 0 0 0 0 0
          0 0 0 0 0 0
          <InformationKey name="L2_NORM_RANGE" location="vtkDataArray" length="2">
            <Value index="0">
              0
            </Value>
            <Value index="1">
              0
            </Value>
          </InformationKey>
        </DataArray>
        <DataArray type="Float64" Name="J2 Stresses" format="ascii" RangeMin="3839917.124559109" RangeMax="2470629187.5586977">
          2134576647.2107477 1765603627.463324 1562629065.2649984 1017536983.2677834 839524800.9833521 355789774.6484026
          287051269.3569313 68542563.91275392 68697271.75061505 10236204.87200291 3839917.124559109 2339618453.3866796
          2470629187.5586977
        </DataArray>
      </PointData>
      <CellData>
        <DataArray type="UInt8" Name="vtkGhostType" format="ascii" RangeMin="0" RangeMax="1">
          1 1 0 0 0 0
          0 0 0 0 0
        </DataArray>
        <DataArray type="Float64" Name="Gauss Stress" NumberOfComponents="6" format="ascii" RangeMin="2811.4642037530307" RangeMax="34046.74454723175">
          -33661.77624202471 -2286.4148403403656 0 4564.859436410574 0 0
          31587.930508203397 2985.9056370158946 0 -7137.943999049039 0 0
          -30664.544887988777 -1719.9985817626562 0 3922.289469204906 0 0
          -25213.54856926948 -762.8263322615157 0 2666.980876451571 0 0
          25155.770507655405 3416.1842685407514 0 -7624.467212323005 0 0
          -17988.284243811402 484.511906946678 0 829.7543125461048 0 0
          16719.314497587347 3685.563987986988 0 -7145.196642690911 0 0
          -11053.869485331954 681.6478605234496 0 46.13325661485783 0 0
          8654.353096475137 3317.471122557119 0 -5586.790500024039 0 0
          -2773.089978080887 388.2106909525658 0 -252.18128773194348 0 0
          2618.9662630630155 1995.7158221217676 0 -3551.1994352149404 0 0
          <InformationKey name="L2_NORM_RANGE" location="vtkDataArray" length="2">
            <Value index="0">
              2811.4642038
            </Value>
            <Value index="1">
              34046.744547
            </Value>
          </InformationKey>
        </DataArray>
        <DataArray type="Float64" Name="Gauss Strain" NumberOfComponents="6" format="ascii" RangeMin="0" RangeMax="0">
          0 0 0 0 0 0
          0 0 0 0 0 0
          0 0 0 0 0 0
          0 0 0 0 0 0
          0 0 0 0 0 0
          0 0 0 0 0 0
          0 0 0 0 0 0
          0 0 0 0 0 0
          0 0 0 0 0 0
          0 0 0 0 0 0
          0 0 0 0 0 0
          <InformationKey name="L2_NORM_RANGE" location="vtkDataArray" length="2">
            <Value index="0">
              0
            </Value>
            <Value index="1">
              0
            </Value>
          </InformationKey>
        </DataArray>
      </CellData>
      <Points>
        <DataArray type="Float32" Name="Points" NumberOfComponents="3" format="ascii" RangeMin="0.4000000059604645" RangeMax="1.0012492197622458">
          0.5 0 0 0.6000000238418579 0.05000000074505806 0
          0.6000000238418579 0 0 0.699999988079071 0.05000000074505806 0
          0.699999988079071 0 0 0.800000011920929 0.05000000074505806 0
          0.800000011920929 0 0 0.8999999761581421 0.05000000074505806 0
          0.8999999761581421 0 0 1 0.05000000074505806 0
          1 0 0 0.5 0.05000000074505806 0
          0.4000000059604645 0 0
          <InformationKey name="L2_NORM_RANGE" location="vtkDataArray" length="2">
            <Value index="0">
              0.40000000596
            </Value>
            <Value index="1">
              1.0012492198
            </Value>
          </InformationKey>
        </DataArray>
      </Points>
      <Cells>
        <DataArray type="Int64" Name="connectivity" format="ascii" RangeMin="0" RangeMax="12">
          0 11 12 1 11 0
          2 1 0 4 3 2
          3 1 2 6 5 4
          5 3 4 8 7 6
          7 5 6 10 9 8
          9 7 8
        </DataArray>
        <DataArray type="Int64" Name="offsets" format="ascii" RangeMin="3" RangeMax="33">
          3 6 9 12 15 18
          21 24 27 30 33
        </DataArray>
        <DataArray type="UInt8" Name="types" format="ascii" RangeMin="5" RangeMax="5">
          5 5 5 5 5 5
          5 5 5 5 5
        </DataArray>
      </Cells>
    </Piece>
  </UnstructuredGrid>
</VTKFile>
