<?xml version="1.0"?>
<VTKFile type="UnstructuredGrid" version="0.1" byte_order="LittleEndian" header_type="UInt32" compressor="vtkZLibDataCompressor">
  <UnstructuredGrid>
    <Piece NumberOfPoints="13" NumberOfCells="11">
      <PointData>
        <DataArray type="Float64" Name="Disp" NumberOfComponents="3" format="ascii" RangeMin="0" RangeMax="0.06343518495800683">
          0 0 0 0 0 0
          -0.0009468410697642269 0.0018353403216837855 0 0.0011826214632842935 0.0018765396190708254 0
          -0.002299434067094059 0.00845259056325385 0 0.0019241280006037974 0.00862886786864897 0
          -0.003532374335016334 0.018418758661238047 0 0.0022022819809287258 0.018751799337755667 0
          -0.005003544324529096 0.031218410369215886 0 0.0020069825456207305 0.031716310278764814 0
          -0.006621093029401373 0.046240637729590375 0 0.0013423702577488295 0.04688392094763254 0
          -0.008353196269696292 0.06288280212217381 0
          <InformationKey name="L2_NORM_RANGE" location="vtkDataArray" length="2">
            <Value index="0">
              0
            </Value>
            <Value index="1">
              0.063435184958
            </Value>
          </InformationKey>
        </DataArray>
        <DataArray type="Float64" Name="Nodal Stress" NumberOfComponents="6" format="ascii" RangeMin="16036.1747405597" RangeMax="101259.77625119996">
          -97303.19401743791 -11828.086773691299 0 25411.160613438 0 0
          48634.09991347318 -7286.304157147162 0 2538.978441712091 0 0
          -64475.60804506814 -6430.1046362758825 0 4931.242632841206 0 0
          65103.261377235845 1869.6096649852618 0 -1140.4748334729868 0 0
          -51954.39325341739 -3543.6066117231276 0 6557.1138582074145 0 0
          53260.55228668679 811.8003137005613 0 2905.4356841410404 0 0
          -42335.00335977636 -3235.1927117179853 0 4049.209497750425 0 0
          42113.61407807768 1047.8592567756884 0 3764.2804405616052 0 0
          -32014.717241689395 -2038.4905663099348 0 3519.660694174234 0 0
          31771.708333630362 840.2762230052141 0 4258.37002625389 0 0
          -23356.09889373144 -1406.1659992289995 0 2930.6928729839033 0 0
          22697.323100450947 734.3054063814884 0 4014.267650176697 0 0
          -15804.340950682712 -847.4900507186085 0 2581.3694114309615 0 0
          <InformationKey name="L2_NORM_RANGE" location="vtkDataArray" length="2">
            <Value index="0">
              16036.174741
            </Value>
            <Value index="1">
              101259.77625
            </Value>
          </InformationKey>
        </DataArray>
        <DataArray type="Float64" Name="Nodal Strain" NumberOfComponents="6" format="ascii" RangeMin="0" RangeMax="0">
          0 0 0 0 0 0
          0 0 0 0 0 0
          0 0 0 0 0 0
          0 0 0 0 0 0
          0 0 0 0 0 0
          0 0 0 0 0 0
          0 0 0 0 0 0
          0 0 0 0 0 0
          0 0 0 0 0 0
          0 0 0 0 0 0
          0 0 0 0 0 0
          0 0 0 0 0 0
          0 0 0 0 0 0
          <InformationKey name="L2_NORM_RANGE" location="vtkDataArray" length="2">
            <Value index="0">
              0
            </Value>
            <Value index="1">
              0
            </Value>
          </InformationKey>
        </DataArray>
        <DataArray type="Float64" Name="Sld_traction" NumberOfComponents="3" format="ascii" RangeMin="5347.326350013298" RangeMax="51850.35741574152">
          47887.46374791243 -19880.904907285163 0 -14407.684209820653 -2534.0529031243923 0
          21835.78283784242 -10736.581620004212 0 13688.62843129071 -6653.300142517561 0
          24201.20957614451 -9936.356765551847 0 12885.456823731116 -5599.053114227655 0
          20275.757722233833 -7750.059513254788 0 9895.758154371797 -4052.3411326309997 0
          16840.070557332576 -5471.746935145013 0 7467.269437299039 -2663.56550201977 0
          13409.751370095883 -3820.6965391292056 0 5071.828275344448 -1694.2423200248231 0
          10046.8821755566 -2569.665175388142 0
          <InformationKey name="L2_NORM_RANGE" location="vtkDataArray" length="2">
            <Value index="0">
              5347.32635
            </Value>
            <Value index="1">
              51850.357416
            </Value>
          </InformationKey>
        </DataArray>
        <DataArray type="Float64" Name="Velocity" NumberOfComponents="3" format="ascii" RangeMin="0" RangeMax="6.542877037845093">
          0 0 0 0 0 0
          0.13555101955617577 -0.28296773747767023 0 -0.18802258222786272 -0.2971063298868415 0
          0.355899971110595 -1.2556098644167255 0 -0.22289517533937175 -1.3042048989033441 0
          0.5228189895190578 -2.5095633477316337 0 -0.14385568077397193 -2.589328892700882 0
          0.7181602545865524 -3.88629113047066 0 0.028709408111418422 -3.9860057539098825 0
          0.903412026728664 -5.235225168764899 0 0.25924630126466747 -5.340878931843967 0
          1.0711571898823662 -6.454600081099052 0
          <InformationKey name="L2_NORM_RANGE" location="vtkDataArray" length="2">
            <Value index="0">
              0
            </Value>
            <Value index="1">
              6.5428770378
            </Value>
          </InformationKey>
        </DataArray>
        <DataArray type="Float64" Name="Acceleration" NumberOfComponents="3" format="ascii" RangeMin="0" RangeMax="554.9673122093324">
          0 0 0 0 0 0
          11.097548472648896 -24.296211023078286 0 -15.350112991896367 -23.48756770188811 0
          15.839401682895186 -102.897169844573 0 -29.796267923075447 -99.80965458929859 0
          12.757340781849962 -205.0827594860093 0 -41.47412112895336 -201.70486457154402 0
          8.918481447747581 -319.02214856144565 0 -49.812946806017635 -317.397379334725 0
          8.601541208812705 -437.4047839637715 0 -51.20330753897417 -438.80328473568807 0
          13.500058203375374 -554.803087635024 0
          <InformationKey name="L2_NORM_RANGE" location="vtkDataArray" length="2">
            <Value index="0">
              0
            </Value>
            <Value index="1">
              554.96731221
            </Value>
          </InformationKey>
        </DataArray>
        <DataArray type="Float64" Name="Sigma" NumberOfComponents="6" format="ascii" RangeMin="33615.529323376664" RangeMax="145360.13984547785">
          -89165.7079855806 89165.7079855811 0 53017.97880610329 0 0
          102621.50583730823 -102621.50583730738 0 -8198.983794573516 0 0
          -95240.30435363918 95240.30435363945 0 3807.668636118964 0 0
          90929.70773815573 -90929.70773815535 0 -6889.473085520781 0 0
          -77451.71052954602 77451.71052954542 0 14061.366402915166 0 0
          73997.72697653282 -73997.72697653245 0 322.76106033810936 0 0
          -62454.07790475613 62454.07790475602 0 3717.8202698172236 0 0
          58032.76058776067 -58032.76058776126 0 4368.738585726091 0 0
          -47752.77248043637 47752.77248043779 0 2902.3581586674904 0 0
          43573.19573267659 -43573.195732676344 0 5402.893268274746 0 0
          -34909.389198893645 34909.38919889224 0 1543.527579362192 0 0
          30835.373115029328 -30835.373115027134 0 5403.858753830028 0 0
          -23749.934514285906 23749.934514280438 0 1372.9649759983038 0 0
          <InformationKey name="L2_NORM_RANGE" location="vtkDataArray" length="2">
            <Value index="0">
              33615.529323
            </Value>
            <Value index="1">
              145360.13985
            </Value>
          </InformationKey>
        </DataArray>
        <DataArray type="Float64" Name="Press" format="ascii" RangeMin="-104755.27359505517" RangeMax="101710.63261030376">
          -103577.2230722294 93647.15815725451 -104755.27359505517 101710.63261030376 -86890.52366139964 78537.38278534224
          -69666.37669077127 62882.34963841867 -52759.95229590224 46859.34613047257 -38465.12996676465 33421.95994823132
          -26068.49061315067
        </DataArray>
        <DataArray type="Float64" Name="Dev strain" NumberOfComponents="6" format="ascii" RangeMin="0" RangeMax="0">
          0 0 0 0 0 0
          0 0 0 0 0 0
          0 0 0 0 0 0
          0 0 0 0 0 0
          0 0 0 0 0 0
          0 0 0 0 0 0
          0 0 0 0 0 0
          0 0 0 0 0 0
          0 0 0 0 0 0
          0 0 0 0 0 0
          0 0 0 0 0 0
          0 0 0 0 0 0
          0 0 0 0 0 0
          <InformationKey name="L2_NORM_RANGE" location="vtkDataArray" length="2">
            <Value index="0">
              0
            </Value>
            <Value index="1">
              0
            </Value>
          </InformationKey>
        </DataArray>
        <DataArray type="Float64" Name="J2 Stresses" format="ascii" RangeMin="564530647.6390686" RangeMax="10547979294.132519">
          8653249999.740978 10547979294.132519 9074340158.484467 8280077959.195414 6048197970.231802 5475689641.368983
          3903967393.8230076 3372572770.643985 2282433200.288685 1905921200.275227 1219261073.5868459 958120657.5008423
          564530647.6390686
        </DataArray>
      </PointData>
      <CellData>
        <DataArray type="UInt8" Name="vtkGhostType" format="ascii" RangeMin="0" RangeMax="0">
          0 0 0 0 0 0
          0 0 0 0 0
        </DataArray>
        <DataArray type="Float64" Name="Gauss Stress" NumberOfComponents="6" format="ascii" RangeMin="19870.255699878933" RangeMax="68351.55623957356">
          62971.142131442655 -2569.4640164400616 0 -3760.262747991778 0 0
          -65489.94833731391 -10966.944002705635 0 16208.887882549574 0 0
          60277.73863979631 1960.5891830346602 0 2498.2181259108306 0 0
          -57232.490597060205 -2724.2858337071852 0 3659.85398450445 0 0
          47109.921797509014 725.6486911506524 0 2803.106638627142 0 0
          -47975.85967486601 -4037.1520363532186 0 6033.982577690165 0 0
          36944.975770996636 1042.853210996396 0 4224.663337556109 0 0
          -37239.356381895566 -2456.6298502741024 0 3662.9723380702676 0 0
          27105.118586917175 772.332154376002 0 4116.759867155655 0 0
          -27818.234026282596 -1758.923395180213 0 3282.926335434809 0 0
          -19645.203743278078 -1095.9033445128198 0 2773.450436396841 0 0
          <InformationKey name="L2_NORM_RANGE" location="vtkDataArray" length="2">
            <Value index="0">
              19870.2557
            </Value>
            <Value index="1">
              68351.55624
            </Value>
          </InformationKey>
        </DataArray>
        <DataArray type="Float64" Name="Gauss Strain" NumberOfComponents="6" format="ascii" RangeMin="0" RangeMax="0">
          0 0 0 0 0 0
          0 0 0 0 0 0
          0 0 0 0 0 0
          0 0 0 0 0 0
          0 0 0 0 0 0
          0 0 0 0 0 0
          0 0 0 0 0 0
          0 0 0 0 0 0
          0 0 0 0 0 0
          0 0 0 0 0 0
          0 0 0 0 0 0
          <InformationKey name="L2_NORM_RANGE" location="vtkDataArray" length="2">
            <Value index="0">
              0
            </Value>
            <Value index="1">
              0
            </Value>
          </InformationKey>
        </DataArray>
      </CellData>
      <Points>
        <DataArray type="Float32" Name="Points" NumberOfComponents="3" format="ascii" RangeMin="0" RangeMax="0.6020797527609908">
          0 0.05000000074505806 0 0 0 0
          0.10000000149011612 0.05000000074505806 0 0.10000000149011612 0 0
          0.20000000298023224 0.05000000074505806 0 0.20000000298023224 0 0
          0.30000001192092896 0.05000000074505806 0 0.30000001192092896 0 0
          0.4000000059604645 0.05000000074505806 0 0.4000000059604645 0 0
          0.5 0.05000000074505806 0 0.5 0 0
          0.6000000238418579 0.05000000074505806 0
          <InformationKey name="L2_NORM_RANGE" location="vtkDataArray" length="2">
            <Value index="0">
              0
            </Value>
            <Value index="1">
              0.60207975276
            </Value>
          </InformationKey>
        </DataArray>
      </Points>
      <Cells>
        <DataArray type="Int64" Name="connectivity" format="ascii" RangeMin="0" RangeMax="12">
          3 2 1 2 0 1
          5 4 3 4 2 3
          7 6 5 6 4 5
          9 8 7 8 6 7
          11 10 9 10 8 9
          12 10 11
        </DataArray>
        <DataArray type="Int64" Name="offsets" format="ascii" RangeMin="3" RangeMax="33">
          3 6 9 12 15 18
          21 24 27 30 33
        </DataArray>
        <DataArray type="UInt8" Name="types" format="ascii" RangeMin="5" RangeMax="5">
          5 5 5 5 5 5
          5 5 5 5 5
        </DataArray>
      </Cells>
    </Piece>
  </UnstructuredGrid>
</VTKFile>
