<?xml version="1.0"?>
<VTKFile type="UnstructuredGrid" version="0.1" byte_order="LittleEndian" header_type="UInt32" compressor="vtkZLibDataCompressor">
  <UnstructuredGrid>
    <Piece NumberOfPoints="13" NumberOfCells="11">
      <PointData>
        <DataArray type="Float64" Name="Disp" NumberOfComponents="3" format="ascii" RangeMin="0.008845721570595055" RangeMax="0.05724509605249959">
          -0.0019269181397259237 -0.014504322401187715 0 0.001370700124612385 -0.021781284755993578 0
          -0.0024853557185882938 -0.02163305475754653 0 0.0012591938172528735 -0.03002434342737597 0
          -0.0030402874389751236 -0.029839827876533602 0 0.0009914888093036632 -0.03895318117396968 0
          -0.003554994388387011 -0.03874702092590986 0 0.0005979369107705409 -0.04815785763888757 0
          -0.003979562418646672 -0.04794951054122437 0 0.00014060803377440894 -0.05724492336828431 0
          -0.00437871534589185 -0.057038386007050385 0 0.0013169336760041547 -0.01460948847316112 0
          -0.0014001194222655474 -0.008734211796601077 0
          <InformationKey name="L2_NORM_RANGE" location="vtkDataArray" length="2">
            <Value index="0">
              0.0088457215706
            </Value>
            <Value index="1">
              0.057245096052
            </Value>
          </InformationKey>
        </DataArray>
        <DataArray type="Float64" Name="Nodal Stress" NumberOfComponents="6" format="ascii" RangeMin="846.964391705216" RangeMax="23575.14646230488">
          -21118.134781715464 -852.9554882414229 0 1795.166963935493 0 0
          17877.877313173183 2071.8749139790266 0 -4747.192933629289 0 0
          -17042.89210678816 -312.6817544565469 0 987.2119070226829 0 0
          12221.777228088715 2048.0376923914746 0 -4442.501984638262 0 0
          -11715.815071043873 201.4244259421176 0 181.25897477147748 0 0
          6634.5854650701585 1746.0693011215476 0 -3480.019485572374 0 0
          -6557.1945731371125 448.01321401799817 0 -422.7431456001132 0 0
          2607.6649296442615 1045.3369708390853 0 -1985.1981049002095 0 0
          -2954.8335711976097 221.5535529965397 0 -351.40809613358533 0 0
          922.0501683039914 512.4097793782643 0 -1147.569805771898 0 0
          -846.223527158602 11.415726210280019 0 33.527661638313354 0 0
          22379.983311491862 1835.2170881512782 0 -4355.966169238164 0 0
          -23417.322650173377 -1323.4041302313915 0 2380.1538027803495 0 0
          <InformationKey name="L2_NORM_RANGE" location="vtkDataArray" length="2">
            <Value index="0">
              846.96439171
            </Value>
            <Value index="1">
              23575.146462
            </Value>
          </InformationKey>
        </DataArray>
        <DataArray type="Float64" Name="Nodal Strain" NumberOfComponents="6" format="ascii" RangeMin="0" RangeMax="0">
          0 0 0 0 0 0
          0 0 0 0 0 0
          0 0 0 0 0 0
          0 0 0 0 0 0
          0 0 0 0 0 0
          0 0 0 0 0 0
          0 0 0 0 0 0
          0 0 0 0 0 0
          0 0 0 0 0 0
          0 0 0 0 0 0
          0 0 0 0 0 0
          0 0 0 0 0 0
          0 0 0 0 0 0
          <InformationKey name="L2_NORM_RANGE" location="vtkDataArray" length="2">
            <Value index="0">
              0
            </Value>
            <Value index="1">
              0
            </Value>
          </InformationKey>
        </DataArray>
        <DataArray type="Float64" Name="Sld_traction" NumberOfComponents="3" format="ascii" RangeMin="114.68906422705784" RangeMax="7648.304068124128">
          -4145.172703221837 3141.58772032586 0 -6604.529789764438 3857.0379016284246 0
          -2871.0707391747405 2194.369612028945 0 -6061.868311519259 3301.6471403760333 0
          -1565.7497291276243 1164.3603171661412 0 -4662.163615825493 2462.6027753384524 0
          -355.7210728931681 392.8242794375311 0 -2706.7076672220164 1423.0961289241338 0
          -137.97071570165147 210.70246031168313 0 -532.789200680002 205.4403700128224 0
          93.96929510222606 65.7522093261432 0 -6441.409660378116 4042.5749731754518 0
          -5139.180068604128 3829.7536944266526 0
          <InformationKey name="L2_NORM_RANGE" location="vtkDataArray" length="2">
            <Value index="0">
              114.68906423
            </Value>
            <Value index="1">
              7648.3040681
            </Value>
          </InformationKey>
        </DataArray>
        <DataArray type="Float64" Name="Velocity" NumberOfComponents="3" format="ascii" RangeMin="2.648605996695638" RangeMax="17.862988350368276">
          0.7069071036069123 4.3892652664592 0 -0.2351548644827106 6.7056454066133995 0
          0.9736570221512841 6.610437180058202 0 -0.08071137826002994 9.299067684115208 0
          1.2693906035223539 9.178224457146523 0 0.14532608631590418 12.108276376985774 0
          1.5734624465171816 11.971892182501929 0 0.42125749858299544 15.000357090350661 0
          1.857559760933341 14.861822869378322 0 0.7120040556386148 17.84879276114065 0
          2.1289087073619557 17.71203320519588 0 -0.3057060221233807 4.454266143875444 0
          0.4817811251784845 2.6044194503101545 0
          <InformationKey name="L2_NORM_RANGE" location="vtkDataArray" length="2">
            <Value index="0">
              2.6486059967
            </Value>
            <Value index="1">
              17.86298835
            </Value>
          </InformationKey>
        </DataArray>
        <DataArray type="Float64" Name="Acceleration" NumberOfComponents="3" format="ascii" RangeMin="112.63466208230042" RangeMax="1756.3828745050923">
          -25.479260449369576 -814.2466453724846 0 -180.77328437028086 -574.6449408602857 0
          -2.0547171879507005 -559.091698851822 0 -246.03667828193124 -123.66449209547136 0
          15.120960996062422 -111.61506905857095 0 -288.52329366890837 460.9213885236968 0
          21.36095239596216 469.88738767502946 0 -308.92444511267627 1103.7371330682072 0
          8.877098089355059 1111.7221633865993 0 -315.88512588973435 1727.7434384469234 0
          -8.62328652155702 1735.312918958487 0 -99.87470485260565 -831.4150340075648 0
          -50.22153889663059 -852.9692116764345 0
          <InformationKey name="L2_NORM_RANGE" location="vtkDataArray" length="2">
            <Value index="0">
              112.63466208
            </Value>
            <Value index="1">
              1756.3828745
            </Value>
          </InformationKey>
        </DataArray>
        <DataArray type="Float64" Name="Sigma" NumberOfComponents="6" format="ascii" RangeMin="857.8142411185681" RangeMax="48322.03418340414">
          -29772.07210653995 29772.072106540603 0 8359.403254571935 0 0
          25355.70032296106 -25355.700322960678 0 -11084.9140236864 0 0
          -23448.29874412518 23448.298744122985 0 6751.0469068592165 0 0
          17383.245752330058 -17383.245752327304 0 -9623.74004693066 0 0
          -15543.372616359362 15543.372616358714 0 4453.806744196015 0 0
          9269.482942366325 -9269.482942365787 0 -6852.971424493972 0 0
          -8161.835442949708 8161.835442951213 0 1680.5366584191283 0 0
          3708.779576470318 -3708.779576472581 0 -3273.0580182830995 0 0
          -3486.6876053066394 3486.687605310055 0 646.752641694981 0 0
          1148.0917792506598 -1148.0917792510802 0 -1984.48849798619 0 0
          311.65865966006265 -311.6586596596507 0 735.923251422231 0 0
          31561.569879708593 -31561.569879709852 0 -10986.059420016467 0 0
          -33589.873358121484 33589.873358120996 0 8857.753845802705 0 0
          <InformationKey name="L2_NORM_RANGE" location="vtkDataArray" length="2">
            <Value index="0">
              857.81424112
            </Value>
            <Value index="1">
              48322.034183
            </Value>
          </InformationKey>
        </DataArray>
        <DataArray type="Float64" Name="Press" format="ascii" RangeMin="-37947.629037940205" RangeMax="36393.69986798427">
          -33509.34379541196 30152.6630126242 -26196.83316699326 21574.05345572292 -17066.514176760465 12431.134060152948
          -8573.375302453987 5364.434736323644 -3754.567749162663 1954.6912635095587 65.13044187727532 36393.69986798427
          -37947.629037940205
        </DataArray>
        <DataArray type="Float64" Name="Dev strain" NumberOfComponents="6" format="ascii" RangeMin="0" RangeMax="0">
          0 0 0 0 0 0
          0 0 0 0 0 0
          0 0 0 0 0 0
          0 0 0 0 0 0
          0 0 0 0 0 0
          0 0 0 0 0 0
          0 0 0 0 0 0
          0 0 0 0 0 0
          0 0 0 0 0 0
          0 0 0 0 0 0
          0 0 0 0 0 0
          0 0 0 0 0 0
          0 0 0 0 0 0
          <InformationKey name="L2_NORM_RANGE" location="vtkDataArray" length="2">
            <Value index="0">
              0
            </Value>
            <Value index="1">
              0
            </Value>
          </InformationKey>
        </DataArray>
        <DataArray type="Float64" Name="J2 Stresses" format="ascii" RangeMin="232526.87813694542" RangeMax="1147894543.0128314">
          903846183.2101706 673630368.5959277 561216872.5783445 325331326.00857735 246555530.9196415 97664118.35504802
          67321608.66287497 16433273.144613564 12261562.701895718 2302663.383243299 232526.87813694542 1026306068.6668016
          1147894543.0128314
        </DataArray>
      </PointData>
      <CellData>
        <DataArray type="UInt8" Name="vtkGhostType" format="ascii" RangeMin="0" RangeMax="1">
          1 1 0 0 0 0
          0 0 0 0 0
        </DataArray>
        <DataArray type="Float64" Name="Gauss Stress" NumberOfComponents="6" format="ascii" RangeMin="1273.569552138449" RangeMax="22410.861888027277">
          -22287.882850106915 -1087.6324601387132 0 2077.0325601193913 0 0
          20060.739060442076 1963.940329688865 0 -4570.523396376979 0 0
          -19139.394825828367 -562.9478073593696 0 1341.8453792482505 0 0
          -14432.573165395097 -26.956093292137666 0 527.0378680415245 0 0
          14940.176877506601 2079.7453233962897 0 -4652.535721252616 0 0
          -9214.826845334748 408.9898992942119 0 -239.54267395960915 0 0
          9349.34313915081 1943.1057535936757 0 -4007.634909076207 0 0
          -4967.750595693011 325.4117188318937 0 -315.25623938966316 0 0
          4679.540189969848 1468.588806045149 0 -2815.164261452648 0 0
          -1253.8944033905816 97.39704087449843 0 -200.60420162299235 0 0
          1644.9140003616262 731.4581667523113 0 -1536.9312915247697 0 0
          <InformationKey name="L2_NORM_RANGE" location="vtkDataArray" length="2">
            <Value index="0">
              1273.5695521
            </Value>
            <Value index="1">
              22410.861888
            </Value>
          </InformationKey>
        </DataArray>
        <DataArray type="Float64" Name="Gauss Strain" NumberOfComponents="6" format="ascii" RangeMin="0" RangeMax="0">
          0 0 0 0 0 0
          0 0 0 0 0 0
          0 0 0 0 0 0
          0 0 0 0 0 0
          0 0 0 0 0 0
          0 0 0 0 0 0
          0 0 0 0 0 0
          0 0 0 0 0 0
          0 0 0 0 0 0
          0 0 0 0 0 0
          0 0 0 0 0 0
          <InformationKey name="L2_NORM_RANGE" location="vtkDataArray" length="2">
            <Value index="0">
              0
            </Value>
            <Value index="1">
              0
            </Value>
          </InformationKey>
        </DataArray>
      </CellData>
      <Points>
        <DataArray type="Float32" Name="Points" NumberOfComponents="3" format="ascii" RangeMin="0.4000000059604645" RangeMax="1.0012492197622458">
          0.5 0 0 0.6000000238418579 0.05000000074505806 0
          0.6000000238418579 0 0 0.699999988079071 0.05000000074505806 0
          0.699999988079071 0 0 0.800000011920929 0.05000000074505806 0
          0.800000011920929 0 0 0.8999999761581421 0.05000000074505806 0
          0.8999999761581421 0 0 1 0.05000000074505806 0
          1 0 0 0.5 0.05000000074505806 0
          0.4000000059604645 0 0
          <InformationKey name="L2_NORM_RANGE" location="vtkDataArray" length="2">
            <Value index="0">
              0.40000000596
            </Value>
            <Value index="1">
              1.0012492198
            </Value>
          </InformationKey>
        </DataArray>
      </Points>
      <Cells>
        <DataArray type="Int64" Name="connectivity" format="ascii" RangeMin="0" RangeMax="12">
          0 11 12 1 11 0
          2 1 0 4 3 2
          3 1 2 6 5 4
          5 3 4 8 7 6
          7 5 6 10 9 8
          9 7 8
        </DataArray>
        <DataArray type="Int64" Name="offsets" format="ascii" RangeMin="3" RangeMax="33">
          3 6 9 12 15 18
          21 24 27 30 33
        </DataArray>
        <DataArray type="UInt8" Name="types" format="ascii" RangeMin="5" RangeMax="5">
          5 5 5 5 5 5
          5 5 5 5 5
        </DataArray>
      </Cells>
    </Piece>
  </UnstructuredGrid>
</VTKFile>
