<?xml version="1.0"?>
<VTKFile type="UnstructuredGrid" version="0.1" byte_order="LittleEndian" header_type="UInt32" compressor="vtkZLibDataCompressor">
  <UnstructuredGrid>
    <Piece NumberOfPoints="13" NumberOfCells="11">
      <PointData>
        <DataArray type="Float64" Name="Disp" NumberOfComponents="3" format="ascii" RangeMin="0.007755183019498334" RangeMax="0.03333862781329507">
          0.0008606337492876525 0.011413833785513186 0 -0.0012468542305633344 0.015456605872717022 0
          0.0008642212746104159 0.015505336270508636 0 -0.0013837140743892396 0.019797124683733087 0
          0.0008239512680245988 0.01984942238918595 0 -0.0015011281187243448 0.024273661418500785 0
          0.0007503644600045754 0.024327096385896703 0 -0.00160220866522648 0.028792768531035018 0
          0.0006502860409111204 0.028845082027966644 0 -0.0016926025219119688 0.033284016717240454 0
          0.0005468022770693379 0.03333414333297323 0 -0.0010892222719695926 0.011371431454006138 0
          0.0008053911853761401 0.00771324890720076 0
          <InformationKey name="L2_NORM_RANGE" location="vtkDataArray" length="2">
            <Value index="0">
              0.0077551830195
            </Value>
            <Value index="1">
              0.033338627813
            </Value>
          </InformationKey>
        </DataArray>
        <DataArray type="Float64" Name="Nodal Stress" NumberOfComponents="6" format="ascii" RangeMin="185.0603462328549" RangeMax="10180.548862727162">
          7741.286458763246 69.34334235194973 0 440.0243004679074 0 0
          -3250.3410473602703 -435.8111858754677 0 1186.9366547557195 0 0
          5541.651097587611 10.987708559472228 0 464.444740602058 0 0
          -1635.045741192709 -311.2549572451304 0 930.1490503233972 0 0
          3605.7508035098044 -31.52677554816012 0 416.683026798148 0 0
          -531.1635536302052 -208.68596016368966 0 653.7687348055106 0 0
          2061.917630087216 -33.05901860657186 0 331.61590513352843 0 0
          -32.71179439974513 -106.06700083076903 0 338.4783633433742 0 0
          898.1753469827522 -13.164579710819547 0 146.2026042564829 0 0
          -63.68387476653965 -50.9177022967571 0 166.12971870006476 0 0
          496.5849036316567 57.68405366193957 0 125.85421881958932 0 0
          -5285.410454104312 -580.1237528142361 0 1413.8266931892408 0 0
          10173.098099521292 154.93264065798937 0 357.27591683508086 0 0
          <InformationKey name="L2_NORM_RANGE" location="vtkDataArray" length="2">
            <Value index="0">
              185.06034623
            </Value>
            <Value index="1">
              10180.548863
            </Value>
          </InformationKey>
        </DataArray>
        <DataArray type="Float64" Name="Nodal Strain" NumberOfComponents="6" format="ascii" RangeMin="0" RangeMax="0">
          0 0 0 0 0 0
          0 0 0 0 0 0
          0 0 0 0 0 0
          0 0 0 0 0 0
          0 0 0 0 0 0
          0 0 0 0 0 0
          0 0 0 0 0 0
          0 0 0 0 0 0
          0 0 0 0 0 0
          0 0 0 0 0 0
          0 0 0 0 0 0
          0 0 0 0 0 0
          0 0 0 0 0 0
          <InformationKey name="L2_NORM_RANGE" location="vtkDataArray" length="2">
            <Value index="0">
              0
            </Value>
            <Value index="1">
              0
            </Value>
          </InformationKey>
        </DataArray>
        <DataArray type="Float64" Name="Sld_traction" NumberOfComponents="3" format="ascii" RangeMin="23.895976664626655" RangeMax="3465.802932120868">
          1188.4074920811747 -664.4594863493851 0 2461.5350245040504 -992.3801595241235 0
          706.3485650067973 -399.52796183938744 0 1759.2632080445585 -674.5484372046238 0
          322.882504412461 -198.90201738507318 0 1093.4709538898612 -420.5814136595735 0
          47.06904407932112 -81.78858057418749 0 529.1184579563612 -212.95235954944928 0
          2.4375480545946964 -53.92936383659884 0 82.4683701775516 -40.49532850840132 0
          -12.280821736571264 -20.498758943676087 0 3188.007393683133 -1359.558318763591 0
          1744.271848023068 -984.2221932124389 0
          <InformationKey name="L2_NORM_RANGE" location="vtkDataArray" length="2">
            <Value index="0">
              23.895976665
            </Value>
            <Value index="1">
              3465.8029321
            </Value>
          </InformationKey>
        </DataArray>
        <DataArray type="Float64" Name="Velocity" NumberOfComponents="3" format="ascii" RangeMin="2.6948149582852143" RangeMax="18.411557164204226">
          -0.37846139129074585 -4.5064260614402585 0 0.8547142041879541 -6.74882230766487 0
          -0.38840646119747135 -6.802998992099477 0 1.0545849717875424 -9.411408641711589 0
          -0.3467827455122138 -9.475909934844253 0 1.236526734510671 -12.326271680073713 0
          -0.25533613736504995 -12.39660198118586 0 1.3905399149852649 -15.350436111690826 0
          -0.11575508983928244 -15.421481276753596 0 1.515571922793669 -18.34283008699871 0
          0.028958960645861176 -18.4115343898698 0 0.6517675001777092 -4.465753154122044 0
          -0.325204825371052 -2.6751204610172463 0
          <InformationKey name="L2_NORM_RANGE" location="vtkDataArray" length="2">
            <Value index="0">
              2.6948149583
            </Value>
            <Value index="1">
              18.411557164
            </Value>
          </InformationKey>
        </DataArray>
        <DataArray type="Float64" Name="Acceleration" NumberOfComponents="3" format="ascii" RangeMin="56.48203061555162" RangeMax="569.1300443214038">
          -68.1750039638764 -78.36225090428707 0 -101.93706228926658 -147.1769179394105 0
          -123.67827980777724 -115.37080864520249 0 -178.92153765670537 -195.80347741159494 0
          -200.10602437394493 -153.8082745963693 0 -272.83223433326566 -240.49814862227504 0
          -292.6141215163875 -191.91231120552402 0 -374.803070500735 -279.9601987993665 0
          -392.96655943363623 -230.09437406317738 0 -474.24133290300324 -314.64927382033784 0
          -491.816558470073 -265.81896865005547 0 -47.759698682200906 -98.85649503515015 0
          -33.011832141784 -45.83054353920306 0
          <InformationKey name="L2_NORM_RANGE" location="vtkDataArray" length="2">
            <Value index="0">
              56.482030616
            </Value>
            <Value index="1">
              569.13004432
            </Value>
          </InformationKey>
        </DataArray>
        <DataArray type="Float64" Name="Sigma" NumberOfComponents="6" format="ascii" RangeMin="305.4008283832272" RangeMax="18185.28713151221">
          9486.167082976703 -9486.167082976586 0 -401.66192276559764 0 0
          -6039.389868561631 6039.389868561141 0 1910.9292812782498 0 0
          6477.708187078893 -6477.708187079541 0 -119.23658373779135 0 0
          -3517.253658029435 3517.2536580292162 0 1414.7064927064362 0 0
          3935.650157137682 -3935.650157136704 0 40.53694786767574 0 0
          -1631.8965407803428 1631.8965407807425 0 920.9509251884491 0 0
          2027.3714534039461 -2027.3714534034577 0 205.31209094179627 0 0
          -553.5695586161288 553.569558614857 0 413.3853254702089 0 0
          840.3530973756249 -840.3530973750612 0 38.31241377278788 0 0
          -341.9681531253877 341.9681531256767 0 173.27486240265625 0 0
          189.70837784472812 -189.70837784489513 0 145.91479955145653 0 0
          -9075.629872269257 9075.629872269434 0 2406.979864606956 0 0
          12845.760482696292 -12845.760482696282 0 -823.1301828632419 0 0
          <InformationKey name="L2_NORM_RANGE" location="vtkDataArray" length="2">
            <Value index="0">
              305.40082838
            </Value>
            <Value index="1">
              18185.287132
            </Value>
          </InformationKey>
        </DataArray>
        <DataArray type="Float64" Name="Press" format="ascii" RangeMin="-10344.856949420557" RangeMax="13790.656047512306">
          10126.717872239124 -6941.587796875819 6862.346156801776 -4116.424018318734 4120.953391526315 -2010.1832942706164
          2107.215790880967 -719.3599878301575 867.3996242370895 -455.5318381488806 348.335064249362 -10344.856949420557
          13790.656047512306
        </DataArray>
        <DataArray type="Float64" Name="Dev strain" NumberOfComponents="6" format="ascii" RangeMin="0" RangeMax="0">
          0 0 0 0 0 0
          0 0 0 0 0 0
          0 0 0 0 0 0
          0 0 0 0 0 0
          0 0 0 0 0 0
          0 0 0 0 0 0
          0 0 0 0 0 0
          0 0 0 0 0 0
          0 0 0 0 0 0
          0 0 0 0 0 0
          0 0 0 0 0 0
          0 0 0 0 0 0
          0 0 0 0 0 0
          <InformationKey name="L2_NORM_RANGE" location="vtkDataArray" length="2">
            <Value index="0">
              0
            </Value>
            <Value index="1">
              0
            </Value>
          </InformationKey>
        </DataArray>
        <DataArray type="Float64" Name="J2 Stresses" format="ascii" RangeMin="41312.05080654526" RangeMax="165182948.20328668">
          90027699.00119957 37387142.66399357 41964257.697678484 12871421.910047106 15489752.970409617 2875123.9714628663
          4120773.273747962 349161.1130542793 706560.2885306071 124448.26223725227 41312.05080654526 83815445.59558353
          165182948.20328668
        </DataArray>
      </PointData>
      <CellData>
        <DataArray type="UInt8" Name="vtkGhostType" format="ascii" RangeMin="0" RangeMax="1">
          1 1 0 0 0 0
          0 0 0 0 0
        </DataArray>
        <DataArray type="Float64" Name="Gauss Stress" NumberOfComponents="6" format="ascii" RangeMin="255.12183242033697" RangeMax="8952.236584536351">
          8942.93822124487 105.4064256424796 0 394.06258632603885 0 0
          -4262.85984397048 -510.2914054010884 0 1305.4157410398695 0 0
          6657.320544553017 40.99694355669777 0 463.3435915916202 0 0
          4587.660072065499 -9.743052059223885 0 445.33561894544016 0 0
          -2424.866999301652 -372.2434396273204 0 1068.7997300822983 0 0
          2849.7036526326506 -37.713060540917695 0 388.93332133264033 0 0
          -1073.0513209117112 -264.05129312992693 0 792.0647885875203 0 0
          1523.13680648378 -19.633188291920963 0 219.00327672826432 0 0
          -260.1407124041109 -154.74428174255507 0 513.2161138668181 0 0
          482.7653908108455 24.036509414430487 0 119.16735857563356 0 0
          -120.8922720359468 -84.10252912549204 0 208.324200548551 0 0
          <InformationKey name="L2_NORM_RANGE" location="vtkDataArray" length="2">
            <Value index="0">
              255.12183242
            </Value>
            <Value index="1">
              8952.2365845
            </Value>
          </InformationKey>
        </DataArray>
        <DataArray type="Float64" Name="Gauss Strain" NumberOfComponents="6" format="ascii" RangeMin="0" RangeMax="0">
          0 0 0 0 0 0
          0 0 0 0 0 0
          0 0 0 0 0 0
          0 0 0 0 0 0
          0 0 0 0 0 0
          0 0 0 0 0 0
          0 0 0 0 0 0
          0 0 0 0 0 0
          0 0 0 0 0 0
          0 0 0 0 0 0
          0 0 0 0 0 0
          <InformationKey name="L2_NORM_RANGE" location="vtkDataArray" length="2">
            <Value index="0">
              0
            </Value>
            <Value index="1">
              0
            </Value>
          </InformationKey>
        </DataArray>
      </CellData>
      <Points>
        <DataArray type="Float32" Name="Points" NumberOfComponents="3" format="ascii" RangeMin="0.4000000059604645" RangeMax="1.0012492197622458">
          0.5 0 0 0.6000000238418579 0.05000000074505806 0
          0.6000000238418579 0 0 0.699999988079071 0.05000000074505806 0
          0.699999988079071 0 0 0.800000011920929 0.05000000074505806 0
          0.800000011920929 0 0 0.8999999761581421 0.05000000074505806 0
          0.8999999761581421 0 0 1 0.05000000074505806 0
          1 0 0 0.5 0.05000000074505806 0
          0.4000000059604645 0 0
          <InformationKey name="L2_NORM_RANGE" location="vtkDataArray" length="2">
            <Value index="0">
              0.40000000596
            </Value>
            <Value index="1">
              1.0012492198
            </Value>
          </InformationKey>
        </DataArray>
      </Points>
      <Cells>
        <DataArray type="Int64" Name="connectivity" format="ascii" RangeMin="0" RangeMax="12">
          0 11 12 1 11 0
          2 1 0 4 3 2
          3 1 2 6 5 4
          5 3 4 8 7 6
          7 5 6 10 9 8
          9 7 8
        </DataArray>
        <DataArray type="Int64" Name="offsets" format="ascii" RangeMin="3" RangeMax="33">
          3 6 9 12 15 18
          21 24 27 30 33
        </DataArray>
        <DataArray type="UInt8" Name="types" format="ascii" RangeMin="5" RangeMax="5">
          5 5 5 5 5 5
          5 5 5 5 5
        </DataArray>
      </Cells>
    </Piece>
  </UnstructuredGrid>
</VTKFile>
