<?xml version="1.0"?>
<VTKFile type="UnstructuredGrid" version="0.1" byte_order="LittleEndian" header_type="UInt32" compressor="vtkZLibDataCompressor">
  <UnstructuredGrid>
    <Piece NumberOfPoints="13" NumberOfCells="11">
      <PointData>
        <DataArray type="Float64" Name="Disp" NumberOfComponents="3" format="ascii" RangeMin="0.04263842952696763" RangeMax="0.1769303064818553">
          -0.010056012704921029 -0.06162698706989393 0 -0.0017078637888315006 -0.08429693388643919 0
          -0.012746704323334853 -0.08306671933083276 0 -0.004091892867356924 -0.10693351727651093 0
          -0.015530973354736563 -0.10560925636082932 0 -0.006715793218591844 -0.13008974850505967 0
          -0.018329071755584438 -0.12872412347861442 0 -0.009462672545449271 -0.15337585358778497 0
          -0.02106684661975998 -0.1520125239105628 0 -0.012221189577240029 -0.17650772186247377 0
          -0.023768411439105713 -0.17515377204068372 0 0.0002840230271278312 -0.0627037243914984 0
          -0.007553227020994474 -0.04196408505014144 0
          <InformationKey name="L2_NORM_RANGE" location="vtkDataArray" length="2">
            <Value index="0">
              0.042638429527
            </Value>
            <Value index="1">
              0.17693030648
            </Value>
          </InformationKey>
        </DataArray>
        <DataArray type="Float64" Name="Nodal Stress" NumberOfComponents="6" format="ascii" RangeMin="613.4319769109536" RangeMax="56178.59739711543">
          -40063.202291856884 -1747.438020855606 0 6958.132386288628 0 0
          23459.118782966238 7331.007339320005 0 -12243.8082675406 0 0
          -26802.412453715042 -755.775412345677 0 4459.650366612072 0 0
          13087.078437544298 5412.974130603001 0 -8299.793867975837 0 0
          -15767.312418726564 67.19071607586362 0 2271.2373089334346 0 0
          5660.981060597998 3513.9796998344873 0 -4891.663655503461 0 0
          -7671.390099923325 432.9764436285891 0 711.3494169509312 0 0
          1588.6261408184903 1729.4961256253089 0 -2237.278288247402 0 0
          -3128.020146990818 202.9632849351463 0 103.01729820671943 0 0
          91.48789220083223 802.0913938135872 0 -1079.1660351885935 0 0
          489.8300032004395 58.915142600840575 0 364.54679292768554 0 0
          36641.89244476786 8957.309154042028 0 -16280.567667503665 0 0
          -55366.51000098215 -2907.956879010249 0 9062.458971391026 0 0
          <InformationKey name="L2_NORM_RANGE" location="vtkDataArray" length="2">
            <Value index="0">
              613.43197691
            </Value>
            <Value index="1">
              56178.597397
            </Value>
          </InformationKey>
        </DataArray>
        <DataArray type="Float64" Name="Nodal Strain" NumberOfComponents="6" format="ascii" RangeMin="0" RangeMax="0">
          0 0 0 0 0 0
          0 0 0 0 0 0
          0 0 0 0 0 0
          0 0 0 0 0 0
          0 0 0 0 0 0
          0 0 0 0 0 0
          0 0 0 0 0 0
          0 0 0 0 0 0
          0 0 0 0 0 0
          0 0 0 0 0 0
          0 0 0 0 0 0
          0 0 0 0 0 0
          0 0 0 0 0 0
          <InformationKey name="L2_NORM_RANGE" location="vtkDataArray" length="2">
            <Value index="0">
              0
            </Value>
            <Value index="1">
              0
            </Value>
          </InformationKey>
        </DataArray>
        <DataArray type="Float64" Name="Sld_traction" NumberOfComponents="3" format="ascii" RangeMin="122.6409075200879" RangeMax="18768.77994725709">
          -4923.872962866149 5695.325881550201 0 -11773.891963672304 8850.24766443192 0
          -2963.111823293405 3489.2265419494715 0 -8629.725803225461 6295.100613838731 0
          -1517.132556243169 1707.7569036847851 0 -5580.2780411511 3930.9455679400903 0
          -405.3852477126365 592.2073454462518 0 -2842.402629064998 1977.6102480812308 0
          -230.43391719017114 294.06859610166043 0 -688.7922403994781 352.5164872321314 0
          119.43249695858229 27.86881532446224 0 -14930.171751883381 11373.52505460921 0
          -7316.234489350496 8255.921815794285 0
          <InformationKey name="L2_NORM_RANGE" location="vtkDataArray" length="2">
            <Value index="0">
              122.64090752
            </Value>
            <Value index="1">
              18768.779947
            </Value>
          </InformationKey>
        </DataArray>
        <DataArray type="Float64" Name="Velocity" NumberOfComponents="3" format="ascii" RangeMin="0.055093402356188224" RangeMax="3.396882436613743">
          0.1303756663586313 -0.011832218516648396 0 0.007762652621670751 0.4868659130962456 0
          0.2748322314145506 0.42671715534747534 0 0.11716079841180838 1.1059753099337684 0
          0.4510163907995848 1.0274580715982253 0 0.26915809019774706 1.8287321295159558 0
          0.6417694064750137 1.7395939068753137 0 0.44936565025918274 2.5925363794909515 0
          0.8263704720317584 2.502400273940964 0 0.6351080674103642 3.3339650251199515 0
          1.0026620592174567 3.2455321725690425 0 -0.0488754595126141 0.025425822319281366 0
          0.028177022899905868 -0.25987066684647786 0
          <InformationKey name="L2_NORM_RANGE" location="vtkDataArray" length="2">
            <Value index="0">
              0.055093402356
            </Value>
            <Value index="1">
              3.3968824366
            </Value>
          </InformationKey>
        </DataArray>
        <DataArray type="Float64" Name="Acceleration" NumberOfComponents="3" format="ascii" RangeMin="519.2029712617566" RangeMax="1459.5863267634459">
          144.28815294432025 685.711069310637 0 96.73948574528367 870.1798397732782 0
          176.30725332654765 852.98322123033 0 131.82590741709328 1022.5863442879781 0
          205.56679625265133 1007.1338523982558 0 162.68325006713167 1165.0360876618215 0
          232.7437139431786 1150.94744485899 0 190.30736427581178 1303.246345161373 0
          259.7904442883155 1289.441048636305 0 217.3920376479764 1443.3062555265496 0
          287.66921107463713 1429.351578328875 0 58.25970058092366 704.012442820007 0
          110.84035756266167 507.2338124597154 0
          <InformationKey name="L2_NORM_RANGE" location="vtkDataArray" length="2">
            <Value index="0">
              519.20297126
            </Value>
            <Value index="1">
              1459.5863268
            </Value>
          </InformationKey>
        </DataArray>
        <DataArray type="Float64" Name="Sigma" NumberOfComponents="6" format="ascii" RangeMin="2098.6355388374946" RangeMax="104632.00759495172">
          -48746.6429049644 48746.642904966335 0 28293.025310489735 0 0
          31570.108179732448 -31570.108179733917 0 -30154.893849050764 0 0
          -31380.587817268322 31380.587817262607 0 19043.673349975015 0 0
          17490.391234071794 -17490.391234060728 0 -19704.60522203073 0 0
          -17571.542631318916 17571.542631302862 0 10830.041385033468 0 0
          7326.396464927371 -7326.396464922786 0 -10872.075320326237 0 0
          -7889.407668402272 7889.407668407343 0 4430.546505408381 0 0
          2332.4277918754965 -2332.427791892355 0 -4262.48858947865 0 0
          -3044.625259927598 3044.6252599303534 0 1397.0492568736086 0 0
          -296.78904840840823 296.78904840977805 0 -2056.235309092953 0 0
          2101.6220147686786 -2101.622014768588 0 1058.686611965043 0 0
          49787.0969250869 -49787.09692508408 0 -40726.87720051679 0 0
          -69257.0340230394 69257.03402303903 0 36807.38363444503 0 0
          <InformationKey name="L2_NORM_RANGE" location="vtkDataArray" length="2">
            <Value index="0">
              2098.6355388
            </Value>
            <Value index="1">
              104632.00759
            </Value>
          </InformationKey>
        </DataArray>
        <DataArray type="Float64" Name="Press" format="ascii" RangeMin="-84820.77298377808" RangeMax="70254.43916513908">
          -60493.10942855221 47491.96378136886 -39249.7790653759 28582.25269944077 -21778.738136076954 13917.597521781536
          -9359.423500504117 5204.300506930053 -3749.5738908794615 984.6977349114022 1931.1832237842332 70254.43916513908
          -84820.77298377808
        </DataArray>
        <DataArray type="Float64" Name="Dev strain" NumberOfComponents="6" format="ascii" RangeMin="0" RangeMax="0">
          0 0 0 0 0 0
          0 0 0 0 0 0
          0 0 0 0 0 0
          0 0 0 0 0 0
          0 0 0 0 0 0
          0 0 0 0 0 0
          0 0 0 0 0 0
          0 0 0 0 0 0
          0 0 0 0 0 0
          0 0 0 0 0 0
          0 0 0 0 0 0
          0 0 0 0 0 0
          0 0 0 0 0 0
          <InformationKey name="L2_NORM_RANGE" location="vtkDataArray" length="2">
            <Value index="0">
              0
            </Value>
            <Value index="1">
              0
            </Value>
          </InformationKey>
        </DataArray>
        <DataArray type="Float64" Name="J2 Stresses" format="ascii" RangeMin="1145109.6508457225" RangeMax="5135232634.171715">
          2576359014.8092136 1224001136.2419357 1075406665.4222465 402981652.25972205 338081559.5443604 83226590.6039784
          67150188.94243118 9982421.64821145 9757679.629930358 1145109.6508457225 4697019.428548677 2893424651.8543506
          5135232634.171715
        </DataArray>
      </PointData>
      <CellData>
        <DataArray type="UInt8" Name="vtkGhostType" format="ascii" RangeMin="0" RangeMax="1">
          1 1 0 0 0 0
          0 0 0 0 0
        </DataArray>
        <DataArray type="Float64" Name="Gauss Stress" NumberOfComponents="6" format="ascii" RangeMin="716.7719589292091" RangeMax="48498.468092005474">
          -47758.674416702714 -2280.9544147566476 0 8124.510581472659 0 0
          29954.61857260357 8214.243772701353 0 -14196.248579692612 0 0
          -33602.68241835317 -1231.2673900214122 0 5727.268270471331 0 0
          -21302.667905509174 -328.1750958357816 0 3389.7031709925864 0 0
          18168.116337323227 6381.508606300567 0 -10271.941907035492 0 0
          -11785.03931653112 304.6632399959601 0 1462.8375233718702 0 0
          9322.119050941868 4491.955672488233 0 -6582.213052441168 0 0
          -5502.100673635967 232.30275066393835 0 521.7023909344462 0 0
          3843.9637055360217 2664.3526465998902 0 -3568.0058014655024 0 0
          -691.1617419170504 135.36645379590573 0 133.16685324856644 0 0
          476.81261150049477 1149.47028913659 0 -1640.5582138993318 0 0
          <InformationKey name="L2_NORM_RANGE" location="vtkDataArray" length="2">
            <Value index="0">
              716.77195893
            </Value>
            <Value index="1">
              48498.468092
            </Value>
          </InformationKey>
        </DataArray>
        <DataArray type="Float64" Name="Gauss Strain" NumberOfComponents="6" format="ascii" RangeMin="0" RangeMax="0">
          0 0 0 0 0 0
          0 0 0 0 0 0
          0 0 0 0 0 0
          0 0 0 0 0 0
          0 0 0 0 0 0
          0 0 0 0 0 0
          0 0 0 0 0 0
          0 0 0 0 0 0
          0 0 0 0 0 0
          0 0 0 0 0 0
          0 0 0 0 0 0
          <InformationKey name="L2_NORM_RANGE" location="vtkDataArray" length="2">
            <Value index="0">
              0
            </Value>
            <Value index="1">
              0
            </Value>
          </InformationKey>
        </DataArray>
      </CellData>
      <Points>
        <DataArray type="Float32" Name="Points" NumberOfComponents="3" format="ascii" RangeMin="0.4000000059604645" RangeMax="1.0012492197622458">
          0.5 0 0 0.6000000238418579 0.05000000074505806 0
          0.6000000238418579 0 0 0.699999988079071 0.05000000074505806 0
          0.699999988079071 0 0 0.800000011920929 0.05000000074505806 0
          0.800000011920929 0 0 0.8999999761581421 0.05000000074505806 0
          0.8999999761581421 0 0 1 0.05000000074505806 0
          1 0 0 0.5 0.05000000074505806 0
          0.4000000059604645 0 0
          <InformationKey name="L2_NORM_RANGE" location="vtkDataArray" length="2">
            <Value index="0">
              0.40000000596
            </Value>
            <Value index="1">
              1.0012492198
            </Value>
          </InformationKey>
        </DataArray>
      </Points>
      <Cells>
        <DataArray type="Int64" Name="connectivity" format="ascii" RangeMin="0" RangeMax="12">
          0 11 12 1 11 0
          2 1 0 4 3 2
          3 1 2 6 5 4
          5 3 4 8 7 6
          7 5 6 10 9 8
          9 7 8
        </DataArray>
        <DataArray type="Int64" Name="offsets" format="ascii" RangeMin="3" RangeMax="33">
          3 6 9 12 15 18
          21 24 27 30 33
        </DataArray>
        <DataArray type="UInt8" Name="types" format="ascii" RangeMin="5" RangeMax="5">
          5 5 5 5 5 5
          5 5 5 5 5
        </DataArray>
      </Cells>
    </Piece>
  </UnstructuredGrid>
</VTKFile>
