<?xml version="1.0"?>
<VTKFile type="UnstructuredGrid" version="0.1" byte_order="LittleEndian" header_type="UInt32" compressor="vtkZLibDataCompressor">
  <UnstructuredGrid>
    <Piece NumberOfPoints="13" NumberOfCells="11">
      <PointData>
        <DataArray type="Float64" Name="Disp" NumberOfComponents="3" format="ascii" RangeMin="0" RangeMax="0.015273980192103735">
          0 0 0 0 0 0
          0.000167135654373627 -0.0002745191952882176 0 -0.0001577143613957013 -0.000267148477590488 0
          0.0003827972598215662 -0.0013536768293100402 0 -0.00038704315499488113 -0.0013458404136965987 0
          0.0006124530685604723 -0.003380305738996944 0 -0.0006465124858901775 -0.0033611882824663825 0
          0.0008178857881993772 -0.006402256209084027 0 -0.000933041179991509 -0.006369306167786076 0
          0.0009733192971382797 -0.010390835183958476 0 -0.0012359917572776979 -0.010339913831766271 0
          0.0010551285589215863 -0.015237492399765956 0
          <InformationKey name="L2_NORM_RANGE" location="vtkDataArray" length="2">
            <Value index="0">
              0
            </Value>
            <Value index="1">
              0.015273980192
            </Value>
          </InformationKey>
        </DataArray>
        <DataArray type="Float64" Name="Nodal Stress" NumberOfComponents="6" format="ascii" RangeMin="9979.566040813581" RangeMax="21798.721322171405">
          21451.15452068858 1186.1424226593833 0 -3691.2446633080244 0 0
          -9870.459308654546 -373.34426802805655 0 1423.511663698294 0 0
          17580.959693289326 944.5309020046612 0 -553.5133595813937 0 0
          -13862.32277372135 -1022.8682470384088 0 1654.1398299516145 0 0
          16987.88775140045 575.9111348851865 0 -1250.6914596567642 0 0
          -14687.416301570296 -1027.096582718983 0 1542.886582678013 0 0
          17493.31598377935 824.883817128888 0 -1607.6217145501132 0 0
          -14817.841406279314 -905.9058407455453 0 1490.5634433727607 0 0
          16660.601238321113 961.9534111501035 0 -2189.308048712621 0 0
          -14169.471716404678 -731.9721061373277 0 1211.205175603975 0 0
          14779.891146493344 1120.313268242731 0 -2612.9865868174174 0 0
          -12430.032128731556 -449.0960831591089 0 801.9193837693828 0 0
          11819.671843220902 1195.0926390543887 0 -2794.52880392185 0 0
          <InformationKey name="L2_NORM_RANGE" location="vtkDataArray" length="2">
            <Value index="0">
              9979.5660408
            </Value>
            <Value index="1">
              21798.721322
            </Value>
          </InformationKey>
        </DataArray>
        <DataArray type="Float64" Name="Nodal Strain" NumberOfComponents="6" format="ascii" RangeMin="0" RangeMax="0">
          0 0 0 0 0 0
          0 0 0 0 0 0
          0 0 0 0 0 0
          0 0 0 0 0 0
          0 0 0 0 0 0
          0 0 0 0 0 0
          0 0 0 0 0 0
          0 0 0 0 0 0
          0 0 0 0 0 0
          0 0 0 0 0 0
          0 0 0 0 0 0
          0 0 0 0 0 0
          0 0 0 0 0 0
          <InformationKey name="L2_NORM_RANGE" location="vtkDataArray" length="2">
            <Value index="0">
              0
            </Value>
            <Value index="1">
              0
            </Value>
          </InformationKey>
        </DataArray>
        <DataArray type="Float64" Name="Sld_traction" NumberOfComponents="3" format="ascii" RangeMin="2625.454625519441" RangeMax="8786.789150413533">
          -8293.601228411979 2902.38561151138 0 2246.8720314691227 1358.152445369534 0
          -3092.4305439595455 2536.5130591307775 0 -3776.5527339166747 2691.685140374757 0
          -3123.583269155109 2257.681972803138 0 -3791.6014802227373 2673.0323899278324 0
          -3563.3686483026067 2455.2219400487625 0 -3683.769445487242 2579.801937186747 0
          -4042.2904233127088 2558.484055220306 0 -3294.204794713373 2327.7670502882393 0
          -4338.283567917536 2548.199691432573 0 -2648.5424062292827 1873.0346492023205 0
          -4313.61861171172 2353.583853708405 0
          <InformationKey name="L2_NORM_RANGE" location="vtkDataArray" length="2">
            <Value index="0">
              2625.4546255
            </Value>
            <Value index="1">
              8786.7891504
            </Value>
          </InformationKey>
        </DataArray>
        <DataArray type="Float64" Name="Velocity" NumberOfComponents="3" format="ascii" RangeMin="0" RangeMax="6.351803610616843">
          0 0 0 0 0 0
          -0.03145660188628596 0.02210273872738544 0 0.009668333203878415 0.021550291189626425 0
          -0.090362592222478 0.2093247558994651 0 0.10467888271824144 0.20886955910249827 0
          -0.20885301041056503 0.849101476788845 0 0.25184857332415655 0.8400791499962366 0
          -0.3190669085142427 2.067264417636971 0 0.4421807805359339 2.0432321121490036 0
          -0.39349870527142694 3.9087801315302144 0 0.6724442183414343 3.8628604094090715 0
          -0.4027647749092982 6.339021189737215 0
          <InformationKey name="L2_NORM_RANGE" location="vtkDataArray" length="2">
            <Value index="0">
              0
            </Value>
            <Value index="1">
              6.3518036106
            </Value>
          </InformationKey>
        </DataArray>
        <DataArray type="Float64" Name="Acceleration" NumberOfComponents="3" format="ascii" RangeMin="0" RangeMax="490.73439642182984">
          0 0 0 0 0 0
          24.722466902541385 -58.47096232364174 0 -36.91558603038254 -59.41585564995603 0
          44.41897017060967 -233.22775548485515 0 -44.54732609671498 -233.14732223085275 0
          27.286521637197893 -397.45030978523755 0 -37.27274014977729 -393.39242349456254 0
          -11.601286601262018 -490.59724620170164 0 -29.405765808891374 -479.02764299030423 0
          -75.81671348498912 -471.22570934559553 0 -31.961442317373894 -449.7133940755157 0
          -160.83340241617566 -323.7061007715456 0
          <InformationKey name="L2_NORM_RANGE" location="vtkDataArray" length="2">
            <Value index="0">
              0
            </Value>
            <Value index="1">
              490.73439642
            </Value>
          </InformationKey>
        </DataArray>
        <DataArray type="Float64" Name="Sigma" NumberOfComponents="6" format="ascii" RangeMin="23727.59247068063" RangeMax="33974.26175012025">
          18796.806093270472 -18796.80609327055 0 -9014.550098134203 0 0
          -20732.301807895084 20732.301807894914 0 5100.123721679442 0 0
          23668.71381741252 -23668.71381741221 0 -1836.0021786431375 0 0
          -21261.152272606345 21261.15227260655 0 3695.6228104503216 0 0
          22895.80753154298 -22895.807531542818 0 -4177.552657220792 0 0
          -21988.474480324625 21988.4744803246 0 4623.500162106603 0 0
          23790.230774725227 -23790.230774725165 0 -4722.319433956208 0 0
          -22287.324557245214 22287.324557245312 0 4906.006001537048 0 0
          22777.883889616336 -22777.88388961696 0 -5807.101601738728 0 0
          -21041.914330653537 21041.914330653693 0 4918.884434380705 0 0
          20252.08969749725 -20252.089697498446 0 -6323.080367352844 0 0
          -18276.52268080773 18276.52268080883 0 4409.019839348668 0 0
          16188.346661720487 -16188.346661719363 0 -6234.862402223711 0 0
          <InformationKey name="L2_NORM_RANGE" location="vtkDataArray" length="2">
            <Value index="0">
              23727.592471
            </Value>
            <Value index="1">
              33974.26175
            </Value>
          </InformationKey>
        </DataArray>
        <DataArray type="Float64" Name="Press" format="ascii" RangeMin="-25033.48150776385" RangeMax="26497.50298455769">
          20709.533727880196 -22641.97655362216 26497.50298455769 -24187.687851246443 25006.731210083497 -24686.840506674736
          26439.80425549731 -25033.48150776385 25540.302234570023 -23578.86862602166 23120.32123281558 -20369.987535801247
          18906.366320040863
        </DataArray>
        <DataArray type="Float64" Name="Dev strain" NumberOfComponents="6" format="ascii" RangeMin="0" RangeMax="0">
          0 0 0 0 0 0
          0 0 0 0 0 0
          0 0 0 0 0 0
          0 0 0 0 0 0
          0 0 0 0 0 0
          0 0 0 0 0 0
          0 0 0 0 0 0
          0 0 0 0 0 0
          0 0 0 0 0 0
          0 0 0 0 0 0
          0 0 0 0 0 0
          0 0 0 0 0 0
          0 0 0 0 0 0
          <InformationKey name="L2_NORM_RANGE" location="vtkDataArray" length="2">
            <Value index="0">
              0
            </Value>
            <Value index="1">
              0
            </Value>
          </InformationKey>
        </DataArray>
        <DataArray type="Float64" Name="J2 Stresses" format="ascii" RangeMin="271780944.93368435" RangeMax="571550155.523762">
          373635447.67595434 436331153.74775547 561050739.7705624 455451002.9482384 528580989.0724197 488837198.4091367
          571550155.523762 502742059.64176726 527262601.74208677 448811014.7182641 420142473.4484991 338891145.28804207
          271780944.93368435
        </DataArray>
      </PointData>
      <CellData>
        <DataArray type="UInt8" Name="vtkGhostType" format="ascii" RangeMin="0" RangeMax="0">
          0 0 0 0 0 0
          0 0 0 0 0
        </DataArray>
        <DataArray type="Float64" Name="Gauss Stress" NumberOfComponents="6" format="ascii" RangeMin="13109.893757211647" RangeMax="17569.801081413636">
          -12885.633894466615 -669.140385740553 0 2319.9147844955423 0 0
          15432.759420534552 943.9473520092957 0 -1916.8095183659661 0 0
          -14740.538789741895 -1171.3259754831192 0 1380.5234384453784 0 0
          17539.971806581307 671.0590890154217 0 -772.644008471203 0 0
          -14588.695340595305 -931.6498320321762 0 1602.3955765624817 0 0
          17152.419594949886 687.3770443208957 0 -1425.4573096901327 0 0
          -14541.134299165971 -840.2309669778136 0 1339.2629447263423 0 0
          17075.805029799954 888.6116250688916 0 -1874.47167805263 0 0
          -13298.294080990454 -587.3958716810835 0 1001.6079687921765 0 0
          15689.938032608003 1031.2318616340774 0 -2403.7658449036235 0 0
          13273.537898488406 1164.2621128820713 0 -2716.307643409296 0 0
          <InformationKey name="L2_NORM_RANGE" location="vtkDataArray" length="2">
            <Value index="0">
              13109.893757
            </Value>
            <Value index="1">
              17569.801081
            </Value>
          </InformationKey>
        </DataArray>
        <DataArray type="Float64" Name="Gauss Strain" NumberOfComponents="6" format="ascii" RangeMin="0" RangeMax="0">
          0 0 0 0 0 0
          0 0 0 0 0 0
          0 0 0 0 0 0
          0 0 0 0 0 0
          0 0 0 0 0 0
          0 0 0 0 0 0
          0 0 0 0 0 0
          0 0 0 0 0 0
          0 0 0 0 0 0
          0 0 0 0 0 0
          0 0 0 0 0 0
          <InformationKey name="L2_NORM_RANGE" location="vtkDataArray" length="2">
            <Value index="0">
              0
            </Value>
            <Value index="1">
              0
            </Value>
          </InformationKey>
        </DataArray>
      </CellData>
      <Points>
        <DataArray type="Float32" Name="Points" NumberOfComponents="3" format="ascii" RangeMin="0" RangeMax="0.6020797527609908">
          0 0.05000000074505806 0 0 0 0
          0.10000000149011612 0.05000000074505806 0 0.10000000149011612 0 0
          0.20000000298023224 0.05000000074505806 0 0.20000000298023224 0 0
          0.30000001192092896 0.05000000074505806 0 0.30000001192092896 0 0
          0.4000000059604645 0.05000000074505806 0 0.4000000059604645 0 0
          0.5 0.05000000074505806 0 0.5 0 0
          0.6000000238418579 0.05000000074505806 0
          <InformationKey name="L2_NORM_RANGE" location="vtkDataArray" length="2">
            <Value index="0">
              0
            </Value>
            <Value index="1">
              0.60207975276
            </Value>
          </InformationKey>
        </DataArray>
      </Points>
      <Cells>
        <DataArray type="Int64" Name="connectivity" format="ascii" RangeMin="0" RangeMax="12">
          3 2 1 2 0 1
          5 4 3 4 2 3
          7 6 5 6 4 5
          9 8 7 8 6 7
          11 10 9 10 8 9
          12 10 11
        </DataArray>
        <DataArray type="Int64" Name="offsets" format="ascii" RangeMin="3" RangeMax="33">
          3 6 9 12 15 18
          21 24 27 30 33
        </DataArray>
        <DataArray type="UInt8" Name="types" format="ascii" RangeMin="5" RangeMax="5">
          5 5 5 5 5 5
          5 5 5 5 5
        </DataArray>
      </Cells>
    </Piece>
  </UnstructuredGrid>
</VTKFile>
