<?xml version="1.0"?>
<VTKFile type="UnstructuredGrid" version="0.1" byte_order="LittleEndian" header_type="UInt32" compressor="vtkZLibDataCompressor">
  <UnstructuredGrid>
    <Piece NumberOfPoints="13" NumberOfCells="11">
      <PointData>
        <DataArray type="Float64" Name="Disp" NumberOfComponents="3" format="ascii" RangeMin="0" RangeMax="0.08136658579501453">
          0 0 0 0 0 0
          0.0013563944717291643 -0.002654771942726886 0 -0.0015496425130714965 -0.00258867259039812 0
          0.002323697289744851 -0.011646583586311442 0 -0.0033171177115558503 -0.011355056522528164 0
          0.002395428782162377 -0.025157155240442024 0 -0.005152236924583063 -0.024590029235005785 0
          0.0016856624951808853 -0.0419324838532102 0 -0.007232937111216908 -0.04113905242580696 0
          0.0003437757315449749 -0.060928729825165034 0 -0.009489567075357957 -0.05995537101304826 0
          -0.0014655239253262928 -0.08135338667542831 0
          <InformationKey name="L2_NORM_RANGE" location="vtkDataArray" length="2">
            <Value index="0">
              0
            </Value>
            <Value index="1">
              0.081366585795
            </Value>
          </InformationKey>
        </DataArray>
        <DataArray type="Float64" Name="Nodal Stress" NumberOfComponents="6" format="ascii" RangeMin="22886.398792216434" RangeMax="157098.44722844218">
          150873.3441379301 -4724.2223375818 0 -43529.73550953914 0 0
          -80606.91206909665 -14535.295094906534 0 -1227.1359527678392 0 0
          107264.13625413881 7237.440826144463 0 -18573.691956065224 0 0
          -98345.89702368891 -2362.0035482757985 0 7470.640947964335 0 0
          79916.12470486948 9100.079655905995 0 -23634.93421227417 0 0
          -84402.51950467957 -4195.877806998869 0 8164.577825089183 0 0
          64356.4487379178 9698.910179968992 0 -21332.12910548625 0 0
          -65972.47862420465 -2720.8274382902855 0 8936.448997254873 0 0
          46082.79156383972 9255.768929347149 0 -18476.287729191652 0 0
          -49444.58262693374 -2098.2787169344683 0 7339.836988522275 0 0
          31555.75613175569 7960.5884050683235 0 -14391.77311630623 0 0
          -34359.111226840076 -1083.7852803808503 0 5323.9437248865715 0 0
          19439.671555004097 6185.448420829396 0 -10374.326356115347 0 0
          <InformationKey name="L2_NORM_RANGE" location="vtkDataArray" length="2">
            <Value index="0">
              22886.398792
            </Value>
            <Value index="1">
              157098.44723
            </Value>
          </InformationKey>
        </DataArray>
        <DataArray type="Float64" Name="Nodal Strain" NumberOfComponents="6" format="ascii" RangeMin="0" RangeMax="0">
          0 0 0 0 0 0
          0 0 0 0 0 0
          0 0 0 0 0 0
          0 0 0 0 0 0
          0 0 0 0 0 0
          0 0 0 0 0 0
          0 0 0 0 0 0
          0 0 0 0 0 0
          0 0 0 0 0 0
          0 0 0 0 0 0
          0 0 0 0 0 0
          0 0 0 0 0 0
          0 0 0 0 0 0
          <InformationKey name="L2_NORM_RANGE" location="vtkDataArray" length="2">
            <Value index="0">
              0
            </Value>
            <Value index="1">
              0
            </Value>
          </InformationKey>
        </DataArray>
        <DataArray type="Float64" Name="Sld_traction" NumberOfComponents="3" format="ascii" RangeMin="6229.706730842359" RangeMax="72153.12752466415">
          -69628.00938054461 18921.26109151392 0 26049.06202820272 22809.33940823898 0
          -28410.2015306075 19166.21745754019 0 -17830.562634434245 15073.217839073857 0
          -24673.40067397788 15480.860724466018 0 -12791.510876913002 12165.741582723227 0
          -21011.199836935473 14591.081565430966 0 -9339.668027910635 9568.544299435132 0
          -17666.70877148771 12600.541568392213 0 -6391.594873760166 7038.9865992521245 0
          -14006.825999840126 10220.949504288184 0 -4147.718648443222 4648.190612018716 0
          -10550.797784464574 7597.224842792632 0
          <InformationKey name="L2_NORM_RANGE" location="vtkDataArray" length="2">
            <Value index="0">
              6229.7067308
            </Value>
            <Value index="1">
              72153.127525
            </Value>
          </InformationKey>
        </DataArray>
        <DataArray type="Float64" Name="Velocity" NumberOfComponents="3" format="ascii" RangeMin="0" RangeMax="2.449470144784855">
          0 0 0 0 0 0
          -0.03258745133288421 0.05723450272092734 0 0.02931608476498193 0.05440016899268074 0
          -0.04771463886955041 0.258225494066771 0 0.08906628122522475 0.24387349253461643 0
          -0.037716305023687946 0.6159107713219072 0 0.17332012421444842 0.583847756621287 0
          0.013907314696865125 1.1127934249046838 0 0.28862580976276986 1.0630513584077192 0
          0.10478112055445318 1.727333147111782 0 0.4332700002262966 1.661233235412574 0
          0.23074595052947922 2.438577514967811 0
          <InformationKey name="L2_NORM_RANGE" location="vtkDataArray" length="2">
            <Value index="0">
              0
            </Value>
            <Value index="1">
              2.4494701448
            </Value>
          </InformationKey>
        </DataArray>
        <DataArray type="Float64" Name="Acceleration" NumberOfComponents="3" format="ascii" RangeMin="0" RangeMax="1074.0983735118118">
          0 0 0 0 0 0
          -34.14803915667517 77.43370780821715 0 45.251956943729056 73.72941497488364 0
          -39.25515560323811 308.1256088545688 0 87.6724639639092 294.07289874694834 0
          -5.102347557955909 574.7505708777426 0 120.51227963027941 555.4241859116992 0
          44.87045261482422 809.0140486232849 0 145.92437882327067 791.4787956704313 0
          91.67930971505473 976.0635508275445 0 157.14832274355103 964.689131565312 0
          123.78113849701253 1066.9421473224793 0
          <InformationKey name="L2_NORM_RANGE" location="vtkDataArray" length="2">
            <Value index="0">
              0
            </Value>
            <Value index="1">
              1074.0983735
            </Value>
          </InformationKey>
        </DataArray>
        <DataArray type="Float64" Name="Sigma" NumberOfComponents="6" format="ascii" RangeMin="44675.12875889757" RangeMax="231869.65455779093">
          152877.47009950544 -152877.47009950713 0 -83788.39404534746 0 0
          -144936.46893890089 144936.46893890045 0 27186.497380424804 0 0
          150376.66169091145 -150376.66169091203 0 -33728.65132788639 0 0
          -142436.05100883433 142436.0510088347 0 34389.239907980904 0 0
          114452.96205460746 -114452.962054607 0 -57927.6677052504 0 0
          -110886.67644498347 110886.67644498298 0 40944.95020020463 0 0
          90237.50471872892 -90237.50471872989 0 -51658.557475509835 0 0
          -86066.78352377296 86066.78352377299 0 38388.57593027663 0 0
          63682.03513933248 -63682.03513933039 0 -45660.41766324531 0 0
          -61744.03824162265 61744.038241621354 0 31462.285789523743 0 0
          43040.27516245788 -43040.275162459264 0 -35123.11970712497 0 0
          -41842.239444928906 41842.23944493018 0 22987.751485197463 0 0
          26257.645726075574 -26257.645726072424 0 -24838.261039614925 0 0
          <InformationKey name="L2_NORM_RANGE" location="vtkDataArray" length="2">
            <Value index="0">
              44675.128759
            </Value>
            <Value index="1">
              231869.65456
            </Value>
          </InformationKey>
        </DataArray>
        <DataArray type="Float64" Name="Press" format="ascii" RangeMin="-184635.60048272464" RangeMax="179183.17627434828">
          148875.33390453752 -184635.60048272464 179183.17627434828 -153636.73382035634 133631.81456804712 -129302.82093410043
          114078.63504421736 -101263.83588226396 84634.98654791612 -74772.73571854665 60702.84880661635 -51107.98012607296
          39282.56665374494
        </DataArray>
        <DataArray type="Float64" Name="Dev strain" NumberOfComponents="6" format="ascii" RangeMin="0" RangeMax="0">
          0 0 0 0 0 0
          0 0 0 0 0 0
          0 0 0 0 0 0
          0 0 0 0 0 0
          0 0 0 0 0 0
          0 0 0 0 0 0
          0 0 0 0 0 0
          0 0 0 0 0 0
          0 0 0 0 0 0
          0 0 0 0 0 0
          0 0 0 0 0 0
          0 0 0 0 0 0
          0 0 0 0 0 0
          <InformationKey name="L2_NORM_RANGE" location="vtkDataArray" length="2">
            <Value index="0">
              0
            </Value>
            <Value index="1">
              0
            </Value>
          </InformationKey>
        </DataArray>
        <DataArray type="Float64" Name="J2 Stresses" format="ascii" RangeMin="843698761.9440253" RangeMax="25126644608.200043">
          25126644608.200043 21191356438.430878 22897545861.402462 20583683582.35347 13938384194.51584 12714977249.738708
          8809958897.975353 7775911916.616653 4576620034.782543 4059795115.1582966 2160873670.5504055 1882882181.353117
          843698761.9440253
        </DataArray>
      </PointData>
      <CellData>
        <DataArray type="UInt8" Name="vtkGhostType" format="ascii" RangeMin="0" RangeMax="0">
          0 0 0 0 0 0
          0 0 0 0 0
        </DataArray>
        <DataArray type="Float64" Name="Gauss Stress" NumberOfComponents="6" format="ascii" RangeMin="29159.87638586545" RangeMax="105107.7937133749">
          -98695.00542851885 -7364.4332573031925 0 9282.361986839775 0 0
          100580.19084922576 -4964.917718452514 0 -30110.182664269687 0 0
          -96059.16852854002 -3479.324929066326 0 5802.17413431171 0 0
          93857.27658624123 12261.561428451581 0 -19089.02637505197 0 0
          -74401.3256740582 -3257.355507373655 0 9224.989551657147 0 0
          70737.13966883901 8201.279449936714 0 -22880.424993518543 0 0
          -58510.12389298588 -2424.2661422768506 0 8063.4813521850265 0 0
          55100.84734805266 9865.676458527407 0 -19643.466402826172 0 0
          -41907.956520699 -1543.9548379703347 0 6442.305855865412 0 0
          38514.457232051194 8528.942525272501 0 -16440.417193615518 0 0
          25444.37225929764 7140.584630228941 0 -12324.543087180815 0 0
          <InformationKey name="L2_NORM_RANGE" location="vtkDataArray" length="2">
            <Value index="0">
              29159.876386
            </Value>
            <Value index="1">
              105107.79371
            </Value>
          </InformationKey>
        </DataArray>
        <DataArray type="Float64" Name="Gauss Strain" NumberOfComponents="6" format="ascii" RangeMin="0" RangeMax="0">
          0 0 0 0 0 0
          0 0 0 0 0 0
          0 0 0 0 0 0
          0 0 0 0 0 0
          0 0 0 0 0 0
          0 0 0 0 0 0
          0 0 0 0 0 0
          0 0 0 0 0 0
          0 0 0 0 0 0
          0 0 0 0 0 0
          0 0 0 0 0 0
          <InformationKey name="L2_NORM_RANGE" location="vtkDataArray" length="2">
            <Value index="0">
              0
            </Value>
            <Value index="1">
              0
            </Value>
          </InformationKey>
        </DataArray>
      </CellData>
      <Points>
        <DataArray type="Float32" Name="Points" NumberOfComponents="3" format="ascii" RangeMin="0" RangeMax="0.6020797527609908">
          0 0.05000000074505806 0 0 0 0
          0.10000000149011612 0.05000000074505806 0 0.10000000149011612 0 0
          0.20000000298023224 0.05000000074505806 0 0.20000000298023224 0 0
          0.30000001192092896 0.05000000074505806 0 0.30000001192092896 0 0
          0.4000000059604645 0.05000000074505806 0 0.4000000059604645 0 0
          0.5 0.05000000074505806 0 0.5 0 0
          0.6000000238418579 0.05000000074505806 0
          <InformationKey name="L2_NORM_RANGE" location="vtkDataArray" length="2">
            <Value index="0">
              0
            </Value>
            <Value index="1">
              0.60207975276
            </Value>
          </InformationKey>
        </DataArray>
      </Points>
      <Cells>
        <DataArray type="Int64" Name="connectivity" format="ascii" RangeMin="0" RangeMax="12">
          3 2 1 2 0 1
          5 4 3 4 2 3
          7 6 5 6 4 5
          9 8 7 8 6 7
          11 10 9 10 8 9
          12 10 11
        </DataArray>
        <DataArray type="Int64" Name="offsets" format="ascii" RangeMin="3" RangeMax="33">
          3 6 9 12 15 18
          21 24 27 30 33
        </DataArray>
        <DataArray type="UInt8" Name="types" format="ascii" RangeMin="5" RangeMax="5">
          5 5 5 5 5 5
          5 5 5 5 5
        </DataArray>
      </Cells>
    </Piece>
  </UnstructuredGrid>
</VTKFile>
