<?xml version="1.0"?>
<VTKFile type="UnstructuredGrid" version="0.1" byte_order="LittleEndian" header_type="UInt32" compressor="vtkZLibDataCompressor">
  <UnstructuredGrid>
    <Piece NumberOfPoints="13" NumberOfCells="11">
      <PointData>
        <DataArray type="Float64" Name="Disp" NumberOfComponents="3" format="ascii" RangeMin="0" RangeMax="0.08094118511989343">
          0 0 0 0 0 0
          0.0012318025953569059 -0.0023343931301719593 0 -0.0013528912699268365 -0.0022819513613394227 0
          0.0021983618428072253 -0.010441246236833665 0 -0.003018051832688219 -0.010196071486366785 0
          0.0024473827409319648 -0.023228878379102442 0 -0.004862370995215731 -0.022700755797184658 0
          0.001918654454186447 -0.03980822174478302 0 -0.007064127426056601 -0.03900585922955498 0
          0.0006560962771446271 -0.05930257204516717 0 -0.009590536664294977 -0.058247309276589096 0
          -0.0012409618289934941 -0.08093167156528919 0
          <InformationKey name="L2_NORM_RANGE" location="vtkDataArray" length="2">
            <Value index="0">
              0
            </Value>
            <Value index="1">
              0.08094118512
            </Value>
          </InformationKey>
        </DataArray>
        <DataArray type="Float64" Name="Nodal Stress" NumberOfComponents="6" format="ascii" RangeMin="33567.209214658455" RangeMax="144792.71085201745">
          139790.09863653366 -4289.646232792717 0 -37486.74931574638 0 0
          -76541.80158748792 -13542.027677061718 0 1580.402804924666 0 0
          102956.79696597552 6153.224939669831 0 -14979.631366474157 0 0
          -94939.81626276548 -3552.4316048696637 0 8483.023471229182 0 0
          81999.2178271983 7480.790867957005 0 -20668.250583228375 0 0
          -86321.98180300133 -5483.713324603015 0 9621.13948231297 0 0
          71807.86654121793 8750.724548388982 0 -20532.96206684544 0 0
          -73496.20718642093 -4363.49947886999 0 11191.635516750363 0 0
          56935.636594024545 9388.934748650552 0 -19938.78416309241 0 0
          -60658.75290559023 -3827.083724052682 0 10423.428654155217 0 0
          43016.7631837063 9244.285450594696 0 -17551.527749663714 0 0
          -46859.68451962431 -2603.386421814708 0 8627.575864045151 0 0
          29241.713609666036 8284.196504362035 0 -14249.624833939988 0 0
          <InformationKey name="L2_NORM_RANGE" location="vtkDataArray" length="2">
            <Value index="0">
              33567.209215
            </Value>
            <Value index="1">
              144792.71085
            </Value>
          </InformationKey>
        </DataArray>
        <DataArray type="Float64" Name="Nodal Strain" NumberOfComponents="6" format="ascii" RangeMin="0" RangeMax="0">
          0 0 0 0 0 0
          0 0 0 0 0 0
          0 0 0 0 0 0
          0 0 0 0 0 0
          0 0 0 0 0 0
          0 0 0 0 0 0
          0 0 0 0 0 0
          0 0 0 0 0 0
          0 0 0 0 0 0
          0 0 0 0 0 0
          0 0 0 0 0 0
          0 0 0 0 0 0
          0 0 0 0 0 0
          <InformationKey name="L2_NORM_RANGE" location="vtkDataArray" length="2">
            <Value index="0">
              0
            </Value>
            <Value index="1">
              0
            </Value>
          </InformationKey>
        </DataArray>
        <DataArray type="Float64" Name="Sld_traction" NumberOfComponents="3" format="ascii" RangeMin="9267.521857956743" RangeMax="64396.174962099394">
          -62201.29151045609 16669.333645367482 0 23292.372172212567 20296.966396762564 0
          -25112.710533384416 17692.86364999973 0 -18921.001657029603 15753.210071935542 0
          -21849.70229381422 14537.43394569906 0 -14644.628454558822 13747.803154934223 0
          -19286.14143420453 14401.560660312643 0 -11515.250096592114 11801.966196329166 0
          -17423.816387021834 13462.863571381518 0 -8574.706032354381 9571.080370011494 0
          -15295.17663586668 12063.510187739457 0 -6049.984353631644 7020.302750488635 0
          -13005.768908003247 10076.31054381227 0
          <InformationKey name="L2_NORM_RANGE" location="vtkDataArray" length="2">
            <Value index="0">
              9267.521858
            </Value>
            <Value index="1">
              64396.174962
            </Value>
          </InformationKey>
        </DataArray>
        <DataArray type="Float64" Name="Velocity" NumberOfComponents="3" format="ascii" RangeMin="0" RangeMax="1.8947177724945834">
          0 0 0 0 0 0
          0.026399752208162375 -0.04779265278449185 0 -0.02576137015208546 -0.046220852711259086 0
          0.03921510749935497 -0.21535796999988666 0 -0.07292347970799473 -0.20510779965152448 0
          0.03059659388318625 -0.5037910053264998 0 -0.13732335484602354 -0.4797788192812238 0
          -0.012358363861000532 -0.8936676333649736 0 -0.22468280997559598 -0.8554117417739242 0
          -0.08848030805043017 -1.3612799359073584 0 -0.3342388939524481 -1.3096972019092235 0
          -0.1937468664538468 -1.8847858204968944 0
          <InformationKey name="L2_NORM_RANGE" location="vtkDataArray" length="2">
            <Value index="0">
              0
            </Value>
            <Value index="1">
              1.8947177725
            </Value>
          </InformationKey>
        </DataArray>
        <DataArray type="Float64" Name="Acceleration" NumberOfComponents="3" format="ascii" RangeMin="0" RangeMax="361.28163982186646">
          0 0 0 0 0 0
          12.819552800839574 -37.09796369235528 0 -23.458390701694043 -35.52173465299438 0
          10.734459251506905 -131.99250660496546 0 -27.813462310261457 -127.47104469045007 0
          -13.911917141835602 -176.26287110523117 0 -12.272352097694238 -175.3913148187421 0
          -32.54698155998085 -119.22198733155528 0 24.514288945332737 -128.2660014021967 0
          -29.264670872890292 60.540090342045005 0 88.53158615713983 37.47676911386225 0
          6.1909588477292345 361.22859147764393 0
          <InformationKey name="L2_NORM_RANGE" location="vtkDataArray" length="2">
            <Value index="0">
              0
            </Value>
            <Value index="1">
              361.28163982
            </Value>
          </InformationKey>
        </DataArray>
        <DataArray type="Float64" Name="Sigma" NumberOfComponents="6" format="ascii" RangeMin="66661.28710285158" RangeMax="211954.95569803103">
          140235.00364088468 -140235.00364088418 0 -74787.6376992652 0 0
          -136901.90815957356 136901.9081595733 0 28480.239624090136 0 0
          144591.39061645698 -144591.39061645773 0 -28851.961488545283 0 0
          -137378.75850526884 137378.75850526846 0 32594.526255132612 0 0
          117026.61967143913 -117026.61967144061 0 -52390.509523394394 0 0
          -114872.17028719261 114872.17028719335 0 41556.80500792318 0 0
          100697.43872563243 -100697.43872563385 0 -51850.09586854135 0 0
          -97349.64157517205 97349.64157517302 0 43358.95656178989 0 0
          78808.9070955152 -78808.90709551526 0 -51464.69476287343 0 0
          -77082.20910499869 77082.20910499738 0 40329.60654183122 0 0
          58804.77180957306 -58804.77180957592 0 -45044.698563532584 0 0
          -57760.53192086433 57760.5319208689 0 33576.27581713522 0 0
          39651.93581126849 -39651.935811268784 0 -36044.07262015309 0 0
          <InformationKey name="L2_NORM_RANGE" location="vtkDataArray" length="2">
            <Value index="0">
              66661.287103
            </Value>
            <Value index="1">
              211954.9557
            </Value>
          </InformationKey>
        </DataArray>
        <DataArray type="Float64" Name="Press" format="ascii" RangeMin="-173085.27987443868" RangeMax="170731.33407083453">
          136677.42530554303 -173085.27987443868 170731.33407083453 -149818.00056013465 134281.03673501188 -134337.48613997854
          123923.40857017062 -115425.91008491168 101776.96325269608 -94408.71770269268 80815.88941579436 -71972.14117578397
          58331.31921606436
        </DataArray>
        <DataArray type="Float64" Name="Dev strain" NumberOfComponents="6" format="ascii" RangeMin="0" RangeMax="0">
          0 0 0 0 0 0
          0 0 0 0 0 0
          0 0 0 0 0 0
          0 0 0 0 0 0
          0 0 0 0 0 0
          0 0 0 0 0 0
          0 0 0 0 0 0
          0 0 0 0 0 0
          0 0 0 0 0 0
          0 0 0 0 0 0
          0 0 0 0 0 0
          0 0 0 0 0 0
          0 0 0 0 0 0
          <InformationKey name="L2_NORM_RANGE" location="vtkDataArray" length="2">
            <Value index="0">
              0
            </Value>
            <Value index="1">
              0
            </Value>
          </InformationKey>
        </DataArray>
        <DataArray type="Float64" Name="J2 Stresses" format="ascii" RangeMin="1897069806.3426855" RangeMax="21114779160.83508">
          21064153934.318005 18944913469.993683 21114779160.83508 19138524073.898064 14381421083.754059 13627357517.106499
          10812082276.296875 9946952493.346355 6872997539.348484 6348286251.46137 3965257404.746006 3618120622.218536
          1897069806.3426855
        </DataArray>
      </PointData>
      <CellData>
        <DataArray type="UInt8" Name="vtkGhostType" format="ascii" RangeMin="0" RangeMax="0">
          0 0 0 0 0 0
          0 0 0 0 0
        </DataArray>
        <DataArray type="Float64" Name="Gauss Stress" NumberOfComponents="6" format="ascii" RangeMin="40269.610853484635" RangeMax="97466.70701983993">
          -93953.74080404143 -7494.223438451584 0 10740.934796892489 0 0
          94082.65519990235 -4533.668865276576 0 -25053.11985457345 0 0
          -95032.91969537457 -4883.380281360042 0 7253.607246553805 0 0
          93144.54067611304 10318.372821027304 0 -16215.981585602362 0 0
          -79121.45359715064 -4771.87150599569 0 11021.888567057249 0 0
          75572.94909169433 7005.023685107614 0 -20894.60012800419 0 0
          -67893.53603985462 -4144.906983417716 0 10741.289446915904 0 0
          64143.72199464355 9372.585830659646 0 -19985.27802320829 0 0
          -53867.64622632409 -3175.6667487973054 0 9620.394598477957 0 0
          49571.868255295776 9217.55505523465 0 -18726.595594858267 0 0
          35957.08105201735 8826.297252032982 0 -15837.498455516825 0 0
          <InformationKey name="L2_NORM_RANGE" location="vtkDataArray" length="2">
            <Value index="0">
              40269.610853
            </Value>
            <Value index="1">
              97466.70702
            </Value>
          </InformationKey>
        </DataArray>
        <DataArray type="Float64" Name="Gauss Strain" NumberOfComponents="6" format="ascii" RangeMin="0" RangeMax="0">
          0 0 0 0 0 0
          0 0 0 0 0 0
          0 0 0 0 0 0
          0 0 0 0 0 0
          0 0 0 0 0 0
          0 0 0 0 0 0
          0 0 0 0 0 0
          0 0 0 0 0 0
          0 0 0 0 0 0
          0 0 0 0 0 0
          0 0 0 0 0 0
          <InformationKey name="L2_NORM_RANGE" location="vtkDataArray" length="2">
            <Value index="0">
              0
            </Value>
            <Value index="1">
              0
            </Value>
          </InformationKey>
        </DataArray>
      </CellData>
      <Points>
        <DataArray type="Float32" Name="Points" NumberOfComponents="3" format="ascii" RangeMin="0" RangeMax="0.6020797527609908">
          0 0.05000000074505806 0 0 0 0
          0.10000000149011612 0.05000000074505806 0 0.10000000149011612 0 0
          0.20000000298023224 0.05000000074505806 0 0.20000000298023224 0 0
          0.30000001192092896 0.05000000074505806 0 0.30000001192092896 0 0
          0.4000000059604645 0.05000000074505806 0 0.4000000059604645 0 0
          0.5 0.05000000074505806 0 0.5 0 0
          0.6000000238418579 0.05000000074505806 0
          <InformationKey name="L2_NORM_RANGE" location="vtkDataArray" length="2">
            <Value index="0">
              0
            </Value>
            <Value index="1">
              0.60207975276
            </Value>
          </InformationKey>
        </DataArray>
      </Points>
      <Cells>
        <DataArray type="Int64" Name="connectivity" format="ascii" RangeMin="0" RangeMax="12">
          3 2 1 2 0 1
          5 4 3 4 2 3
          7 6 5 6 4 5
          9 8 7 8 6 7
          11 10 9 10 8 9
          12 10 11
        </DataArray>
        <DataArray type="Int64" Name="offsets" format="ascii" RangeMin="3" RangeMax="33">
          3 6 9 12 15 18
          21 24 27 30 33
        </DataArray>
        <DataArray type="UInt8" Name="types" format="ascii" RangeMin="5" RangeMax="5">
          5 5 5 5 5 5
          5 5 5 5 5
        </DataArray>
      </Cells>
    </Piece>
  </UnstructuredGrid>
</VTKFile>
