<?xml version="1.0"?>
<VTKFile type="UnstructuredGrid" version="0.1" byte_order="LittleEndian" header_type="UInt32" compressor="vtkZLibDataCompressor">
  <UnstructuredGrid>
    <Piece NumberOfPoints="13" NumberOfCells="11">
      <PointData>
        <DataArray type="Float64" Name="Disp" NumberOfComponents="3" format="ascii" RangeMin="0" RangeMax="0.08332473224974443">
          0 0 0 0 0 0
          0.0013754988582809625 -0.002682255294174218 0 -0.001561809868573527 -0.0026147431753661423 0
          0.002355327201236077 -0.011785064307891573 0 -0.0033715841278405254 -0.011484763402877022 0
          0.002429545935976242 -0.025543693109662275 0 -0.005275627334441179 -0.024952839255123937 0
          0.001688271703033957 -0.04271140504899515 0 -0.007457322493542685 -0.04187683626109444 0
          0.0002764469951634624 -0.062236145040304267 0 -0.009847813482861874 -0.061203891644965966 0
          -0.0016414818664673343 -0.08330856223566493 0
          <InformationKey name="L2_NORM_RANGE" location="vtkDataArray" length="2">
            <Value index="0">
              0
            </Value>
            <Value index="1">
              0.08332473225
            </Value>
          </InformationKey>
        </DataArray>
        <DataArray type="Float64" Name="Nodal Stress" NumberOfComponents="6" format="ascii" RangeMin="24874.266537633208" RangeMax="159760.82472273716">
          153499.88698612532 -5111.319994718559 0 -43990.68332326166 0 0
          -82347.72615596007 -15162.142393923836 0 -854.9543076406158 0 0
          109680.97096011227 7262.712255946699 0 -18771.989482676763 0 0
          -100525.71869549989 -2594.273507097765 0 7900.395800258095 0 0
          82296.21084399895 9224.964665207204 0 -24095.698062720196 0 0
          -86941.99635479522 -4551.0789358247785 0 8766.639357475555 0 0
          67010.19703468995 9969.125442139204 0 -22030.478941748886 0 0
          -68734.599743084 -3082.5078736487512 0 9708.908778085295 0 0
          48647.40002205277 9677.831871289476 0 -19347.743935207694 0 0
          -52228.749977985266 -2456.346286953366 0 8157.23764368679 0 0
          33802.04838037339 8477.850571496048 0 -15311.861267182618 0 0
          -36888.391265436294 -1367.400648560126 0 6063.996108084725 0 0
          21156.081686291458 6724.719268822744 0 -11221.742031596812 0 0
          <InformationKey name="L2_NORM_RANGE" location="vtkDataArray" length="2">
            <Value index="0">
              24874.266538
            </Value>
            <Value index="1">
              159760.82472
            </Value>
          </InformationKey>
        </DataArray>
        <DataArray type="Float64" Name="Nodal Strain" NumberOfComponents="6" format="ascii" RangeMin="0" RangeMax="0">
          0 0 0 0 0 0
          0 0 0 0 0 0
          0 0 0 0 0 0
          0 0 0 0 0 0
          0 0 0 0 0 0
          0 0 0 0 0 0
          0 0 0 0 0 0
          0 0 0 0 0 0
          0 0 0 0 0 0
          0 0 0 0 0 0
          0 0 0 0 0 0
          0 0 0 0 0 0
          0 0 0 0 0 0
          <InformationKey name="L2_NORM_RANGE" location="vtkDataArray" length="2">
            <Value index="0">
              0
            </Value>
            <Value index="1">
              0
            </Value>
          </InformationKey>
        </DataArray>
        <DataArray type="Float64" Name="Sld_traction" NumberOfComponents="3" format="ascii" RangeMin="6792.429041284615" RangeMax="72992.65466623749">
          -70483.3670157761 18974.261760184705 0 26450.799505870717 23361.870814535974 0
          -28679.351924957708 19516.790389727234 0 -18438.224385495483 15655.53858886455 0
          -24814.197733219717 15767.516330627803 0 -13286.764731610636 12746.03971357612 0
          -21209.822671380207 14980.142792626253 0 -9798.963483216461 10154.724744782377 0
          -18012.121356769796 13100.684412225546 0 -6793.933537127445 7591.175358387883 0
          -14486.572145213708 10793.515076226757 0 -4479.053662561127 5106.385274221325 0
          -11116.021567226828 8175.3537335037645 0
          <InformationKey name="L2_NORM_RANGE" location="vtkDataArray" length="2">
            <Value index="0">
              6792.4290413
            </Value>
            <Value index="1">
              72992.654666
            </Value>
          </InformationKey>
        </DataArray>
        <DataArray type="Float64" Name="Velocity" NumberOfComponents="3" format="ascii" RangeMin="0" RangeMax="1.426273119875388">
          0 0 0 0 0 0
          -0.0020303669734607066 -0.011233502456775568 0 -0.01045862296983402 -0.010794122519419913 0
          -0.012002333689606903 -0.015582082847158674 0 0.010630184302721224 -0.01732956902461691 0
          -0.03156598003488731 0.09916258378136789 0 0.06313427004297711 0.08509792716229647 0
          -0.025044434160484186 0.37441417147332245 0 0.1514231929141392 0.3420444374522482 0
          0.021489081523985126 0.8193834397254633 0 0.27967224613214015 0.766176066135035 0
          0.11406737189253457 1.4217044865753934 0
          <InformationKey name="L2_NORM_RANGE" location="vtkDataArray" length="2">
            <Value index="0">
              0
            </Value>
            <Value index="1">
              1.4262731199
            </Value>
          </InformationKey>
        </DataArray>
        <DataArray type="Float64" Name="Acceleration" NumberOfComponents="3" format="ascii" RangeMin="0" RangeMax="1009.8400342808917">
          0 0 0 0 0 0
          -29.436565176425802 65.28284408761829 0 37.46201879205091 62.03202932261638 0
          -34.748583023475476 261.15596256871686 0 74.58609292075016 248.75353110330434 0
          -6.345831172605813 495.29058417247506 0 106.48239513667158 477.02811655613186 0
          38.00757755530071 712.5630444883427 0 135.45500910377177 694.2389117869461 0
          82.59885509649064 884.3070577497128 0 155.6471114010492 869.8552868892075 0
          117.23853948499209 1003.0114753560192 0
          <InformationKey name="L2_NORM_RANGE" location="vtkDataArray" length="2">
            <Value index="0">
              0
            </Value>
            <Value index="1">
              1009.8400343
            </Value>
          </InformationKey>
        </DataArray>
        <DataArray type="Float64" Name="Sigma" NumberOfComponents="6" format="ascii" RangeMin="48624.605084673654" RangeMax="235837.38499219177">
          155575.85334506474 -155575.85334506692 0 -84921.0213778922 0 0
          -147629.4186708842 147629.41867088425 0 28303.91063323521 0 0
          153700.12594244018 -153700.12594244033 0 -34424.60117049746 0 0
          -145596.42810990004 145596.42810990036 0 35472.1056271099 0 0
          117697.18723531775 -117697.18723531759 0 -59332.446091829675 0 0
          -114248.75282792184 114248.75282792257 0 42759.27550835228 0 0
          93810.65782027312 -93810.65782027366 0 -53775.789559950856 0 0
          -89678.76936548227 89678.76936547962 0 40783.61357506573 0 0
          67072.23990147469 -67072.23990147401 0 -48256.59615772655 0 0
          -65190.6229622766 65190.622962282774 0 34062.84294087033 0 0
          45971.51092697122 -45971.51092697297 0 -37797.57548139605 0 0
          -44852.31460591308 44852.314605911364 0 25409.524669025428 0 0
          28488.708471152702 -28488.708471155234 0 -27223.87185783226 0 0
          <InformationKey name="L2_NORM_RANGE" location="vtkDataArray" length="2">
            <Value index="0">
              48624.605085
            </Value>
            <Value index="1">
              235837.38499
            </Value>
          </InformationKey>
        </DataArray>
        <DataArray type="Float64" Name="Press" format="ascii" RangeMin="-188688.3897202191" RangeMax="183154.8775068068">
          151155.32309811396 -188688.3897202191 183154.8775068068 -157252.256395488 137312.75120786935 -133577.92696643915
          118576.7301163499 -105966.28641861412 89248.70529096377 -79441.60255914193 65021.730147378184 -55245.56836240862
          42844.25112945236
        </DataArray>
        <DataArray type="Float64" Name="Dev strain" NumberOfComponents="6" format="ascii" RangeMin="0" RangeMax="0">
          0 0 0 0 0 0
          0 0 0 0 0 0
          0 0 0 0 0 0
          0 0 0 0 0 0
          0 0 0 0 0 0
          0 0 0 0 0 0
          0 0 0 0 0 0
          0 0 0 0 0 0
          0 0 0 0 0 0
          0 0 0 0 0 0
          0 0 0 0 0 0
          0 0 0 0 0 0
          0 0 0 0 0 0
          <InformationKey name="L2_NORM_RANGE" location="vtkDataArray" length="2">
            <Value index="0">
              0
            </Value>
            <Value index="1">
              0
            </Value>
          </InformationKey>
        </DataArray>
        <DataArray type="Float64" Name="J2 Stresses" format="ascii" RangeMin="996891310.0873177" RangeMax="26006741112.01154">
          26006741112.01154 21994723096.386757 23919992006.158947 21512887447.766544 14732712672.91539 13509866433.235455
          9523398406.371452 8458107458.967192 5080860133.583406 4539886639.513707 2470543994.976673 2173141111.4841805
          996891310.0873177
        </DataArray>
      </PointData>
      <CellData>
        <DataArray type="UInt8" Name="vtkGhostType" format="ascii" RangeMin="0" RangeMax="0">
          0 0 0 0 0 0
          0 0 0 0 0
        </DataArray>
        <DataArray type="Float64" Name="Gauss Stress" NumberOfComponents="6" format="ascii" RangeMin="31376.169620638368" RangeMax="106957.53988148102">
          -100770.4964824148 -7753.349256852002 0 9783.80502994922 0 0
          102422.79050044084 -5341.583243973759 0 -30347.237305051487 0 0
          -98555.14195218732 -3789.8128171841545 0 6299.645014544178 0 0
          96338.7524623487 12471.495750443537 0 -19428.313878405752 0 0
          -77028.11588061147 -3616.8729651916083 0 9922.366507822388 0 0
          73190.21552848305 8350.82071003715 0 -23449.653381142754 0 0
          -61318.77870435882 -2787.3437535012954 0 8863.286786069842 0 0
          57687.759114988374 10218.340210810507 0 -20416.257380870564 0 0
          -44578.95580513028 -1864.671377650397 0 7224.930709499902 0 0
          40893.98691512312 8991.901671011943 0 -17330.442899417427 0 0
          27409.43923554427 7670.836040735031 0 -13203.974223400965 0 0
          <InformationKey name="L2_NORM_RANGE" location="vtkDataArray" length="2">
            <Value index="0">
              31376.169621
            </Value>
            <Value index="1">
              106957.53988
            </Value>
          </InformationKey>
        </DataArray>
        <DataArray type="Float64" Name="Gauss Strain" NumberOfComponents="6" format="ascii" RangeMin="0" RangeMax="0">
          0 0 0 0 0 0
          0 0 0 0 0 0
          0 0 0 0 0 0
          0 0 0 0 0 0
          0 0 0 0 0 0
          0 0 0 0 0 0
          0 0 0 0 0 0
          0 0 0 0 0 0
          0 0 0 0 0 0
          0 0 0 0 0 0
          0 0 0 0 0 0
          <InformationKey name="L2_NORM_RANGE" location="vtkDataArray" length="2">
            <Value index="0">
              0
            </Value>
            <Value index="1">
              0
            </Value>
          </InformationKey>
        </DataArray>
      </CellData>
      <Points>
        <DataArray type="Float32" Name="Points" NumberOfComponents="3" format="ascii" RangeMin="0" RangeMax="0.6020797527609908">
          0 0.05000000074505806 0 0 0 0
          0.10000000149011612 0.05000000074505806 0 0.10000000149011612 0 0
          0.20000000298023224 0.05000000074505806 0 0.20000000298023224 0 0
          0.30000001192092896 0.05000000074505806 0 0.30000001192092896 0 0
          0.4000000059604645 0.05000000074505806 0 0.4000000059604645 0 0
          0.5 0.05000000074505806 0 0.5 0 0
          0.6000000238418579 0.05000000074505806 0
          <InformationKey name="L2_NORM_RANGE" location="vtkDataArray" length="2">
            <Value index="0">
              0
            </Value>
            <Value index="1">
              0.60207975276
            </Value>
          </InformationKey>
        </DataArray>
      </Points>
      <Cells>
        <DataArray type="Int64" Name="connectivity" format="ascii" RangeMin="0" RangeMax="12">
          3 2 1 2 0 1
          5 4 3 4 2 3
          7 6 5 6 4 5
          9 8 7 8 6 7
          11 10 9 10 8 9
          12 10 11
        </DataArray>
        <DataArray type="Int64" Name="offsets" format="ascii" RangeMin="3" RangeMax="33">
          3 6 9 12 15 18
          21 24 27 30 33
        </DataArray>
        <DataArray type="UInt8" Name="types" format="ascii" RangeMin="5" RangeMax="5">
          5 5 5 5 5 5
          5 5 5 5 5
        </DataArray>
      </Cells>
    </Piece>
  </UnstructuredGrid>
</VTKFile>
