<?xml version="1.0"?>
<VTKFile type="UnstructuredGrid" version="0.1" byte_order="LittleEndian" header_type="UInt32" compressor="vtkZLibDataCompressor">
  <UnstructuredGrid>
    <Piece NumberOfPoints="13" NumberOfCells="11">
      <PointData>
        <DataArray type="Float64" Name="Disp" NumberOfComponents="3" format="ascii" RangeMin="0" RangeMax="0.08443533251781857">
          0 0 0 0 0 0
          0.0013399911522925473 -0.002576646494688335 0 -0.0014942067024177068 -0.0025139770880798057 0
          0.0023291643607951658 -0.011412193180013287 0 -0.0032913905048493892 -0.01112491716483562 0
          0.0024740893814833415 -0.0250565362021673 0 -0.005243482718937042 -0.02446558158924685 0
          0.001780751846524771 -0.042407283656230324 0 -0.0075380942175215645 -0.04154174254237793 0
          0.0003497292860689078 -0.06246769556562988 0 -0.010121265878834211 -0.06136392121240774 0
          -0.0016788748121389296 -0.08441863986561117 0
          <InformationKey name="L2_NORM_RANGE" location="vtkDataArray" length="2">
            <Value index="0">
              0
            </Value>
            <Value index="1">
              0.084435332518
            </Value>
          </InformationKey>
        </DataArray>
        <DataArray type="Float64" Name="Nodal Stress" NumberOfComponents="6" format="ascii" RangeMin="30162.831224064794" RangeMax="156694.87468117676">
          150887.78384346602 -5184.7557182576065 0 -41943.756940683794 0 0
          -81959.52357334051 -15166.427763575506 0 476.91216896000384 0 0
          109545.87939883478 6851.728023914081 0 -17496.21533751578 0 0
          -100685.22126259217 -3216.119784273914 0 8569.576678154554 0 0
          84618.99249659463 8665.649227372962 0 -23255.721418079676 0 0
          -89383.53156842623 -5288.914050359723 0 9720.207755060861 0 0
          71568.55088460517 9779.377944471746 0 -22204.9551476076 0 0
          -73479.3805894958 -3963.600590893574 0 11099.141234224584 0 0
          54420.06567314665 10023.893479483939 0 -20517.983826304175 0 0
          -58386.30126032146 -3370.405051187719 0 9911.381824829596 0 0
          39558.32396149717 9339.08938396994 0 -17156.07790087337 0 0
          -43341.766656546766 -2153.087811003939 0 7855.131930564609 0 0
          25906.818893290456 7909.284286593139 0 -13269.376185620697 0 0
          <InformationKey name="L2_NORM_RANGE" location="vtkDataArray" length="2">
            <Value index="0">
              30162.831224
            </Value>
            <Value index="1">
              156694.87468
            </Value>
          </InformationKey>
        </DataArray>
        <DataArray type="Float64" Name="Nodal Strain" NumberOfComponents="6" format="ascii" RangeMin="0" RangeMax="0">
          0 0 0 0 0 0
          0 0 0 0 0 0
          0 0 0 0 0 0
          0 0 0 0 0 0
          0 0 0 0 0 0
          0 0 0 0 0 0
          0 0 0 0 0 0
          0 0 0 0 0 0
          0 0 0 0 0 0
          0 0 0 0 0 0
          0 0 0 0 0 0
          0 0 0 0 0 0
          0 0 0 0 0 0
          <InformationKey name="L2_NORM_RANGE" location="vtkDataArray" length="2">
            <Value index="0">
              0
            </Value>
            <Value index="1">
              0
            </Value>
          </InformationKey>
        </DataArray>
        <DataArray type="Float64" Name="Sld_traction" NumberOfComponents="3" format="ascii" RangeMin="8304.371651906518" RangeMax="70536.70662721134">
          -68163.88808733471 18141.42614654622 0 25653.220219537634 22731.726330773363 0
          -27592.496553375306 19168.379145603234 0 -19268.560692576513 16303.216958967421 0
          -23832.273283821734 15588.154240763215 0 -14326.361692530954 13745.895600309876 0
          -20673.29738489262 15158.397073061074 0 -10916.39816799543 11401.821669051902 0
          -18136.124602785087 13759.378256196636 0 -7867.5063013503395 8922.375927799176 0
          -15285.234833264314 11879.667444047425 0 -5398.500755396472 6310.2122093454445 0
          -12412.070816973972 9508.745195899748 0
          <InformationKey name="L2_NORM_RANGE" location="vtkDataArray" length="2">
            <Value index="0">
              8304.3716519
            </Value>
            <Value index="1">
              70536.706627
            </Value>
          </InformationKey>
        </DataArray>
        <DataArray type="Float64" Name="Velocity" NumberOfComponents="3" format="ascii" RangeMin="0" RangeMax="0.6809799428858536">
          0 0 0 0 0 0
          0.037493260532632355 -0.09408099679823612 0 -0.056892419264109484 -0.08971542412570477 0
          0.038445184851136904 -0.3563038517526129 0 -0.09026806567363677 -0.3416169564510474 0
          -0.012457365435801115 -0.5850226990069558 0 -0.09474675420297807 -0.5709614386200172 0
          -0.06701206427500472 -0.6776747493115138 0 -0.07055298225424034 -0.6759594139933718 0
          -0.09483610923153851 -0.5880350472785096 0 -0.006890902558975398 -0.6059213921415179 0
          -0.07735871956521256 -0.31338394071467235 0
          <InformationKey name="L2_NORM_RANGE" location="vtkDataArray" length="2">
            <Value index="0">
              0
            </Value>
            <Value index="1">
              0.68097994289
            </Value>
          </InformationKey>
        </DataArray>
        <DataArray type="Float64" Name="Acceleration" NumberOfComponents="3" format="ascii" RangeMin="0" RangeMax="704.2637968364439">
          0 0 0 0 0 0
          -7.421573909771723 11.035448675852422 0 5.211823512804358 10.807368683147615 0
          -13.1004448964527 55.168587903795924 0 20.127091225700042 52.40676190645536 0
          -13.751264984087356 148.7056822480772 0 44.58417078799539 140.07648195745787 0
          -0.5616521851554808 292.07313092797995 0 80.88636890508042 276.589460803596 0
          27.990570849990604 478.91544599452027 0 129.05348574382515 456.8814167273449 0
          70.63184886446015 700.7129494025867 0
          <InformationKey name="L2_NORM_RANGE" location="vtkDataArray" length="2">
            <Value index="0">
              0
            </Value>
            <Value index="1">
              704.26379684
            </Value>
          </InformationKey>
        </DataArray>
        <DataArray type="Float64" Name="Sigma" NumberOfComponents="6" format="ascii" RangeMin="59455.71035300582" RangeMax="230690.66080960436">
          152423.9723548718 -152423.97235487154 0 -82170.8359936454 0 0
          -146328.10778408166 146328.10778408093 0 29520.644543199985 0 0
          153625.24219778544 -153625.2421977851 0 -32954.00031864441 0 0
          -145734.06275764632 145734.06275764576 0 35468.545151588936 0 0
          120812.39262011988 -120812.39262011842 0 -58115.21908772922 0 0
          -118005.35076747768 118005.35076747827 0 44190.20505235521 0 0
          100150.68447334177 -100150.68447334293 0 -55293.53452880674 0 0
          -96383.35994008541 96383.35994008594 0 44334.890675943694 0 0
          75021.54039176097 -75021.54039175811 0 -52296.167352402284 0 0
          -73289.2898926456 73289.28989264465 0 39283.09297213834 0 0
          53792.903229765114 -53792.90322976345 0 -43458.29489198821 0 0
          -52832.64797499149 52832.6479749938 0 31157.683341472715 0 0
          34907.74903491608 -34907.74903491479 0 -33134.266375027 0 0
          <InformationKey name="L2_NORM_RANGE" location="vtkDataArray" length="2">
            <Value index="0">
              59455.710353
            </Value>
            <Value index="1">
              230690.66081
            </Value>
          </InformationKey>
        </DataArray>
        <DataArray type="Float64" Name="Press" format="ascii" RangeMin="-186858.5485493052" RangeMax="182442.6033527022">
          147911.0007235099 -186858.5485493052 182442.6033527022 -158177.17106488574 139948.6305250609 -138341.16156374084
          125289.77728021756 -114526.55342802996 98827.60955295271 -90051.0402138923 75501.30803525569 -65928.06398187288
          52374.89869162894
        </DataArray>
        <DataArray type="Float64" Name="Dev strain" NumberOfComponents="6" format="ascii" RangeMin="0" RangeMax="0">
          0 0 0 0 0 0
          0 0 0 0 0 0
          0 0 0 0 0 0
          0 0 0 0 0 0
          0 0 0 0 0 0
          0 0 0 0 0 0
          0 0 0 0 0 0
          0 0 0 0 0 0
          0 0 0 0 0 0
          0 0 0 0 0 0
          0 0 0 0 0 0
          0 0 0 0 0 0
          0 0 0 0 0 0
          <InformationKey name="L2_NORM_RANGE" location="vtkDataArray" length="2">
            <Value index="0">
              0
            </Value>
            <Value index="1">
              0
            </Value>
          </InformationKey>
        </DataArray>
        <DataArray type="Float64" Name="J2 Stresses" format="ascii" RangeMin="1493020844.7374506" RangeMax="24921078920.41233">
          24921078920.41233 21629782241.2312 23872206574.578487 21552921471.642086 15439978883.00151 14413456365.397812
          10794503340.651062 9781147706.152082 6311953802.690025 5757110361.33259 3365832286.6165366 3033988999.851366
          1493020844.7374506
        </DataArray>
      </PointData>
      <CellData>
        <DataArray type="UInt8" Name="vtkGhostType" format="ascii" RangeMin="0" RangeMax="0">
          0 0 0 0 0 0
          0 0 0 0 0
        </DataArray>
        <DataArray type="Float64" Name="Gauss Stress" NumberOfComponents="6" format="ascii" RangeMin="36987.23559805213" RangeMax="105161.9932741529">
          -100343.34820181044 -8052.062639182371 0 10678.39645871484 0 0
          101072.0540984942 -5408.683747222926 0 -28534.73058969661 0 0
          -99832.24100285661 -4547.560399520016 0 7181.177038738317 0 0
          97639.21162437883 11836.830250873212 0 -18533.558084928238 0 0
          -80605.3213152582 -4446.637159110644 0 11077.187066497394 0 0
          76618.32418917387 7979.8399718515175 0 -23072.849521393593 0 0
          -66800.36450997987 -3699.624882665691 0 10440.60543189326 0 0
          62793.23277671922 10267.322826708407 0 -21084.937068421787 0 0
          -50935.61026612717 -2716.2538408781684 0 8994.160473874283 0 0
          46601.01036773222 9584.241215146396 0 -18823.789757417388 0 0
          32605.382344900492 8693.379485109104 0 -15144.959308514173 0 0
          <InformationKey name="L2_NORM_RANGE" location="vtkDataArray" length="2">
            <Value index="0">
              36987.235598
            </Value>
            <Value index="1">
              105161.99327
            </Value>
          </InformationKey>
        </DataArray>
        <DataArray type="Float64" Name="Gauss Strain" NumberOfComponents="6" format="ascii" RangeMin="0" RangeMax="0">
          0 0 0 0 0 0
          0 0 0 0 0 0
          0 0 0 0 0 0
          0 0 0 0 0 0
          0 0 0 0 0 0
          0 0 0 0 0 0
          0 0 0 0 0 0
          0 0 0 0 0 0
          0 0 0 0 0 0
          0 0 0 0 0 0
          0 0 0 0 0 0
          <InformationKey name="L2_NORM_RANGE" location="vtkDataArray" length="2">
            <Value index="0">
              0
            </Value>
            <Value index="1">
              0
            </Value>
          </InformationKey>
        </DataArray>
      </CellData>
      <Points>
        <DataArray type="Float32" Name="Points" NumberOfComponents="3" format="ascii" RangeMin="0" RangeMax="0.6020797527609908">
          0 0.05000000074505806 0 0 0 0
          0.10000000149011612 0.05000000074505806 0 0.10000000149011612 0 0
          0.20000000298023224 0.05000000074505806 0 0.20000000298023224 0 0
          0.30000001192092896 0.05000000074505806 0 0.30000001192092896 0 0
          0.4000000059604645 0.05000000074505806 0 0.4000000059604645 0 0
          0.5 0.05000000074505806 0 0.5 0 0
          0.6000000238418579 0.05000000074505806 0
          <InformationKey name="L2_NORM_RANGE" location="vtkDataArray" length="2">
            <Value index="0">
              0
            </Value>
            <Value index="1">
              0.60207975276
            </Value>
          </InformationKey>
        </DataArray>
      </Points>
      <Cells>
        <DataArray type="Int64" Name="connectivity" format="ascii" RangeMin="0" RangeMax="12">
          3 2 1 2 0 1
          5 4 3 4 2 3
          7 6 5 6 4 5
          9 8 7 8 6 7
          11 10 9 10 8 9
          12 10 11
        </DataArray>
        <DataArray type="Int64" Name="offsets" format="ascii" RangeMin="3" RangeMax="33">
          3 6 9 12 15 18
          21 24 27 30 33
        </DataArray>
        <DataArray type="UInt8" Name="types" format="ascii" RangeMin="5" RangeMax="5">
          5 5 5 5 5 5
          5 5 5 5 5
        </DataArray>
      </Cells>
    </Piece>
  </UnstructuredGrid>
</VTKFile>
