<?xml version="1.0"?>
<VTKFile type="UnstructuredGrid" version="0.1" byte_order="LittleEndian" header_type="UInt32" compressor="vtkZLibDataCompressor">
  <UnstructuredGrid>
    <Piece NumberOfPoints="13" NumberOfCells="11">
      <PointData>
        <DataArray type="Float64" Name="Disp" NumberOfComponents="3" format="ascii" RangeMin="0.00032030827363187833" RangeMax="0.0025168370012570397">
          -0.000004907793286985534 -0.0025119913477991253 0 -0.000010338575858330994 -0.002485974759063439 0
          0.00008419865271650282 -0.002481633623189125 0 -0.00007084248467989389 -0.0021492750535218167 0
          0.00015697554672571736 -0.0021446784961282653 0 -0.00010816230497647914 -0.0015924035112117481 0
          0.00020135146816875504 -0.001587993421420749 0 -0.00011779630494697745 -0.0009340341217356896 0
          0.00020673428341742742 -0.0009307735796728453 0 -0.00010578034721529294 -0.0003023374080395053 0
          0.00020163587436578122 -0.00030159120341754814 0 0.00006252507402657079 -0.0025160602349734197 0
          -0.00009115274319507345 -0.0022108352317678887 0
          <InformationKey name="L2_NORM_RANGE" location="vtkDataArray" length="2">
            <Value index="0">
              0.00032030827363
            </Value>
            <Value index="1">
              0.0025168370013
            </Value>
          </InformationKey>
        </DataArray>
        <DataArray type="Float64" Name="Nodal Stress" NumberOfComponents="6" format="ascii" RangeMin="338.09945372115277" RangeMax="5720.098878010141">
          5702.176634855777 221.7649062194413 0 -394.37688254663647 0 0
          -2430.15224189092 -257.6713898425482 0 535.6541024468431 0 0
          5406.582227455401 94.4397107817376 0 -84.10191625869376 0 0
          -1655.824013950218 -314.9820477257369 0 767.533284768864 0 0
          4265.312636393002 -28.646977946675058 0 160.65222262409546 0 0
          -707.688920861323 -306.7366782213363 0 762.3956924882069 0 0
          2775.6519679644534 -80.04349874407744 0 299.1878450601535 0 0
          -114.83723157944337 -197.8744680284034 0 491.0856317266803 0 0
          1325.9267908678576 -46.96449207894584 0 177.76588410023314 0 0
          -126.93439205629687 -109.876184103502 0 293.47252833390314 0 0
          693.5996488660256 49.18271104898207 0 143.35743850084071 0 0
          -2563.6178023669877 -113.48973378861467 0 101.93890048364847 0 0
          4946.838816787554 335.72070101012577 0 -669.4646228573911 0 0
          <InformationKey name="L2_NORM_RANGE" location="vtkDataArray" length="2">
            <Value index="0">
              338.09945372
            </Value>
            <Value index="1">
              5720.098878
            </Value>
          </InformationKey>
        </DataArray>
        <DataArray type="Float64" Name="Nodal Strain" NumberOfComponents="6" format="ascii" RangeMin="0" RangeMax="0">
          0 0 0 0 0 0
          0 0 0 0 0 0
          0 0 0 0 0 0
          0 0 0 0 0 0
          0 0 0 0 0 0
          0 0 0 0 0 0
          0 0 0 0 0 0
          0 0 0 0 0 0
          0 0 0 0 0 0
          0 0 0 0 0 0
          0 0 0 0 0 0
          0 0 0 0 0 0
          0 0 0 0 0 0
          <InformationKey name="L2_NORM_RANGE" location="vtkDataArray" length="2">
            <Value index="0">
              0
            </Value>
            <Value index="1">
              0
            </Value>
          </InformationKey>
        </DataArray>
        <DataArray type="Float64" Name="Sld_traction" NumberOfComponents="3" format="ascii" RangeMin="29.770150007017065" RangeMax="1645.8080529319377">
          1098.4309952777985 -635.2363204817985 0 1311.323953334565 -667.5528914151054 0
          869.4504946994592 -481.3418163264704 0 1506.1447148506793 -663.4849244881016 0
          507.4061198498338 -269.88694812972795 0 1275.9501376165472 -546.2135519251458 0
          112.3323393129691 -103.02781709840436 0 769.0949587094808 -336.6439658765286 0
          20.508018731983917 -65.7423464839972 0 139.09260318427775 -60.94142003040895 0
          -20.272932467258894 -21.80068899411802 0 713.3840242310368 -505.60849648915 0
          1098.6241381110701 -669.5483234188217 0
          <InformationKey name="L2_NORM_RANGE" location="vtkDataArray" length="2">
            <Value index="0">
              29.770150007
            </Value>
            <Value index="1">
              1645.8080529
            </Value>
          </InformationKey>
        </DataArray>
        <DataArray type="Float64" Name="Velocity" NumberOfComponents="3" format="ascii" RangeMin="2.1862235988684575" RangeMax="19.45114137573378">
          0.555752472857915 3.9994182446561997 0 -0.6577659527582956 6.4416711559759525 0
          0.6915245853997913 6.4443667733474 0 -0.7733867187032082 9.375898713152308 0
          0.7843613089463712 9.383422271676876 0 -0.8535923516287416 12.643322789965678 0
          0.8253324753178217 12.654211515705446 0 -0.8917632932041217 16.056585369451515 0
          0.8068447465854431 16.06808744226002 0 -0.8929116088930649 19.426201818844657 0
          0.779454192824679 19.435517795522472 0 -0.5187663845832284 4.001290785166606 0
          0.3977596784607442 2.149735067965389 0
          <InformationKey name="L2_NORM_RANGE" location="vtkDataArray" length="2">
            <Value index="0">
              2.1862235989
            </Value>
            <Value index="1">
              19.451141376
            </Value>
          </InformationKey>
        </DataArray>
        <DataArray type="Float64" Name="Acceleration" NumberOfComponents="3" format="ascii" RangeMin="236.004943770558" RangeMax="858.5521581127947">
          -74.0893723907327 464.08983411944246 0 -95.41896172168299 332.81437493809426 0
          -166.06591361096844 373.28551231663005 0 -184.00375343435826 147.78684720303136 0
          -285.9471094354276 204.47466282895402 0 -305.7967120579981 -83.28078361795633 0
          -424.39092779192924 -15.981076789132203 0 -447.28381616878346 -328.8292891437959 0
          -566.4547136185174 -259.5162143520429 0 -589.0621730162826 -560.1958540113192 0
          -703.4048991123809 -492.27365977151203 0 -46.640449878455456 441.02409139531665 0
          -11.827325967863317 461.9191606966451 0
          <InformationKey name="L2_NORM_RANGE" location="vtkDataArray" length="2">
            <Value index="0">
              236.00494377
            </Value>
            <Value index="1">
              858.55215811
            </Value>
          </InformationKey>
        </DataArray>
        <DataArray type="Float64" Name="Sigma" NumberOfComponents="6" format="ascii" RangeMin="363.74620135376836" RangeMax="9767.65573346575">
          6857.759720653053 -6857.759720653436 0 -1161.6203145082316 0 0
          -5065.833065698557 5065.833065698323 0 1356.5704582404876 0 0
          6342.808736506012 -6342.808736505611 0 -858.4364971877702 0 0
          -3839.532901012261 3839.532901012429 0 1539.6862096272873 0 0
          4759.241805596052 -4759.241805595648 0 -487.29040100760193 0 0
          -2153.699175882357 2153.699175882147 0 1308.748767992716 0 0
          2846.8670276820803 -2846.8670276822436 0 14.40110709834921 0 0
          -859.1575693387724 859.1575693391013 0 703.0147893864109 0 0
          1317.9835804657746 -1317.9835804656577 0 -32.117225822317444 0 0
          -522.9712739431881 522.9712739436177 0 401.768394696731 0 0
          246.9107845557446 -246.910784556029 0 101.8892925644746 0 0
          -5213.064076964309 5213.0640769636375 0 791.0404352640193 0 0
          5938.823461757942 -5938.823461758274 0 -1197.346290824929 0 0
          <InformationKey name="L2_NORM_RANGE" location="vtkDataArray" length="2">
            <Value index="0">
              363.74620135
            </Value>
            <Value index="1">
              9767.6557335
            </Value>
          </InformationKey>
        </DataArray>
        <DataArray type="Float64" Name="Press" format="ascii" RangeMin="-5761.574942312883" RangeMax="7509.469336419388">
          7509.469336419388 -5761.574942312883 6835.18166845268 -4509.942359418728 5017.7733621164025 -2717.8951810105077
          2928.1334586364574 -1164.334940559887 1349.9470177995267 -728.7176963843114 432.16769920740546 -5749.623875731161
          6660.670121009982
        </DataArray>
        <DataArray type="Float64" Name="Dev strain" NumberOfComponents="6" format="ascii" RangeMin="0" RangeMax="0">
          0 0 0 0 0 0
          0 0 0 0 0 0
          0 0 0 0 0 0
          0 0 0 0 0 0
          0 0 0 0 0 0
          0 0 0 0 0 0
          0 0 0 0 0 0
          0 0 0 0 0 0
          0 0 0 0 0 0
          0 0 0 0 0 0
          0 0 0 0 0 0
          0 0 0 0 0 0
          0 0 0 0 0 0
          <InformationKey name="L2_NORM_RANGE" location="vtkDataArray" length="2">
            <Value index="0">
              0
            </Value>
            <Value index="1">
              0
            </Value>
          </InformationKey>
        </DataArray>
        <DataArray type="Float64" Name="J2 Stresses" format="ascii" RangeMin="63560.29251482584" RangeMax="47366208.82498361">
          47366208.82498361 26122735.501566354 40415450.97282044 15334671.303985383 22709745.54785978 5066625.974626504
          8104703.721275283 861709.1774763949 1737338.5974258594 313853.4141142827 63560.29251482584 27332473.313087907
          35628033.6449666
        </DataArray>
      </PointData>
      <CellData>
        <DataArray type="UInt8" Name="vtkGhostType" format="ascii" RangeMin="0" RangeMax="1">
          1 1 0 0 0 0
          0 0 0 0 0
        </DataArray>
        <DataArray type="Float64" Name="Gauss Stress" NumberOfComponents="6" format="ascii" RangeMin="440.8034223737032" RangeMax="5578.992773598064">
          5334.678229048299 278.99882541671184 0 -522.6420566897139 0 0
          -2474.2889678781576 -193.53068653871046 0 328.66352633209203 0 0
          5572.603818006564 149.44689036615415 0 -221.16211781850467 0 0
          4868.510104080053 26.831676687175417 0 64.6531038106383 0 0
          -1999.6309544945798 -291.259467691263 0 679.2733902266684 0 0
          3560.140432379376 -74.79933921779747 0 278.61982469448776 0 0
          -1148.0181498704674 -325.35796900463504 0 787.048192204134 0 0
          2139.8128582283935 -63.98250097756774 0 228.43289022081424 0 0
          -373.3621268243294 -262.70231513164424 0 675.388221492492 0 0
          698.4400372336507 3.824643181517297 0 157.18015381296274 0 0
          -202.4169606536194 -159.65345210920339 0 357.5553194202748 0 0
          <InformationKey name="L2_NORM_RANGE" location="vtkDataArray" length="2">
            <Value index="0">
              440.80342237
            </Value>
            <Value index="1">
              5578.9927736
            </Value>
          </InformationKey>
        </DataArray>
        <DataArray type="Float64" Name="Gauss Strain" NumberOfComponents="6" format="ascii" RangeMin="0" RangeMax="0">
          0 0 0 0 0 0
          0 0 0 0 0 0
          0 0 0 0 0 0
          0 0 0 0 0 0
          0 0 0 0 0 0
          0 0 0 0 0 0
          0 0 0 0 0 0
          0 0 0 0 0 0
          0 0 0 0 0 0
          0 0 0 0 0 0
          0 0 0 0 0 0
          <InformationKey name="L2_NORM_RANGE" location="vtkDataArray" length="2">
            <Value index="0">
              0
            </Value>
            <Value index="1">
              0
            </Value>
          </InformationKey>
        </DataArray>
      </CellData>
      <Points>
        <DataArray type="Float32" Name="Points" NumberOfComponents="3" format="ascii" RangeMin="0.4000000059604645" RangeMax="1.0012492197622458">
          0.5 0 0 0.6000000238418579 0.05000000074505806 0
          0.6000000238418579 0 0 0.699999988079071 0.05000000074505806 0
          0.699999988079071 0 0 0.800000011920929 0.05000000074505806 0
          0.800000011920929 0 0 0.8999999761581421 0.05000000074505806 0
          0.8999999761581421 0 0 1 0.05000000074505806 0
          1 0 0 0.5 0.05000000074505806 0
          0.4000000059604645 0 0
          <InformationKey name="L2_NORM_RANGE" location="vtkDataArray" length="2">
            <Value index="0">
              0.40000000596
            </Value>
            <Value index="1">
              1.0012492198
            </Value>
          </InformationKey>
        </DataArray>
      </Points>
      <Cells>
        <DataArray type="Int64" Name="connectivity" format="ascii" RangeMin="0" RangeMax="12">
          0 11 12 1 11 0
          2 1 0 4 3 2
          3 1 2 6 5 4
          5 3 4 8 7 6
          7 5 6 10 9 8
          9 7 8
        </DataArray>
        <DataArray type="Int64" Name="offsets" format="ascii" RangeMin="3" RangeMax="33">
          3 6 9 12 15 18
          21 24 27 30 33
        </DataArray>
        <DataArray type="UInt8" Name="types" format="ascii" RangeMin="5" RangeMax="5">
          5 5 5 5 5 5
          5 5 5 5 5
        </DataArray>
      </Cells>
    </Piece>
  </UnstructuredGrid>
</VTKFile>
