<?xml version="1.0"?>
<VTKFile type="UnstructuredGrid" version="0.1" byte_order="LittleEndian" header_type="UInt32" compressor="vtkZLibDataCompressor">
  <UnstructuredGrid>
    <Piece NumberOfPoints="13" NumberOfCells="11">
      <PointData>
        <DataArray type="Float64" Name="Disp" NumberOfComponents="3" format="ascii" RangeMin="0" RangeMax="0.08534009648845034">
          0 0 0 0 0 0
          -0.0011385705216323339 0.002136504031326847 0 0.0013834134849485887 0.0021824103113051952 0
          -0.0029094096761948097 0.010086241618444899 0 0.00231865971319628 0.010345976627956848 0
          -0.004815363551291694 0.02268909674353635 0 0.002643352583677131 0.02324134943930889 0
          -0.007327759491993822 0.039624055887897976 0 0.0021916096030517133 0.040534006237211914 0
          -0.010403628139180629 0.06035009248339775 0 0.0008439889505318742 0.06163151365466707 0
          -0.014002533959708813 0.08418349666867737 0
          <InformationKey name="L2_NORM_RANGE" location="vtkDataArray" length="2">
            <Value index="0">
              0
            </Value>
            <Value index="1">
              0.085340096488
            </Value>
          </InformationKey>
        </DataArray>
        <DataArray type="Float64" Name="Nodal Stress" NumberOfComponents="6" format="ascii" RangeMin="28633.956608696055" RangeMax="124776.68918476174">
          -120499.14315208241 -15465.417387273752 0 28460.490659192714 0 0
          58697.30584572626 -9743.979786025811 0 689.5987904811127 0 0
          -83296.4317131471 -7995.675099768133 0 3401.781568817557 0 0
          80923.6557437383 2857.103888023973 0 -2580.1210864254367 0 0
          -70753.78908163667 -4414.483696952035 0 4766.0251955760805 0 0
          69806.28786372275 1254.7702760195455 0 3098.6158151620266 0 0
          -61278.61264728671 -4464.264805159342 0 1616.3691368999507 0 0
          58476.201926547285 1701.0754968791491 0 5215.906462261759 0 0
          -49818.45420833453 -3046.4561449029543 0 1221.3403712270572 0 0
          46616.964365485925 1640.6816258786107 0 6801.697253290705 0 0
          -39014.841893472825 -2128.784264085809 0 1210.118809557028 0 0
          34931.61684125935 1703.2301321897135 0 7177.45507937553 0 0
          -28556.802480049475 -1165.3144545801188 0 1747.7257811439188 0 0
          <InformationKey name="L2_NORM_RANGE" location="vtkDataArray" length="2">
            <Value index="0">
              28633.956609
            </Value>
            <Value index="1">
              124776.68918
            </Value>
          </InformationKey>
        </DataArray>
        <DataArray type="Float64" Name="Nodal Strain" NumberOfComponents="6" format="ascii" RangeMin="0" RangeMax="0">
          0 0 0 0 0 0
          0 0 0 0 0 0
          0 0 0 0 0 0
          0 0 0 0 0 0
          0 0 0 0 0 0
          0 0 0 0 0 0
          0 0 0 0 0 0
          0 0 0 0 0 0
          0 0 0 0 0 0
          0 0 0 0 0 0
          0 0 0 0 0 0
          0 0 0 0 0 0
          0 0 0 0 0 0
          <InformationKey name="L2_NORM_RANGE" location="vtkDataArray" length="2">
            <Value index="0">
              0
            </Value>
            <Value index="1">
              0
            </Value>
          </InformationKey>
        </DataArray>
        <DataArray type="Float64" Name="Sld_traction" NumberOfComponents="3" format="ascii" RangeMin="10768.920381981276" RangeMax="61889.03465982177">
          57030.68187855458 -24036.51255052877 0 -16208.4267454605 -1773.2935291439378 0
          25730.53859129674 -13235.482235851488 0 18707.547509347132 -8952.333470672198 0
          29923.44068452035 -12471.676122932971 0 18899.406313959193 -7500.345146786398 0
          27384.42126931199 -9911.892215229578 0 16370.262205006813 -5423.864812399043 0
          25081.041328910705 -7016.794818516643 0 13831.751161585134 -3458.1183225261925 0
          22091.182404649764 -4741.352071073358 0 10581.07567762225 -2002.6192094061691 0
          18249.37233020579 -3009.9087348204757 0
          <InformationKey name="L2_NORM_RANGE" location="vtkDataArray" length="2">
            <Value index="0">
              10768.920382
            </Value>
            <Value index="1">
              61889.03466
            </Value>
          </InformationKey>
        </DataArray>
        <DataArray type="Float64" Name="Velocity" NumberOfComponents="3" format="ascii" RangeMin="0" RangeMax="0.9954601552405504">
          0 0 0 0 0 0
          -0.02481183442964685 0.05361985613284914 0 0.03610261853375507 0.05686606418939011 0
          -0.06664454166718903 0.23403069113411856 0 0.03743967936424775 0.2446845869063763 0
          -0.09596308185858238 0.4501943433478619 0 0.014007607987803095 0.4673047013277767 0
          -0.12960573150859744 0.6662889027869134 0 -0.02840461275824646 0.6863992981692064 0
          -0.15725659821134563 0.8495904621701698 0 -0.0792014972836464 0.8683260759558848 0
          -0.17533996879786162 0.9798963292172829 0
          <InformationKey name="L2_NORM_RANGE" location="vtkDataArray" length="2">
            <Value index="0">
              0
            </Value>
            <Value index="1">
              0.99546015524
            </Value>
          </InformationKey>
        </DataArray>
        <DataArray type="Float64" Name="Acceleration" NumberOfComponents="3" format="ascii" RangeMin="0" RangeMax="358.8450946208475">
          0 0 0 0 0 0
          -20.725676547631565 52.9489832597269 0 36.270076466541695 57.59733226294247 0
          -47.8357473592514 210.0358943151532 0 27.10416010715244 218.97525697294077 0
          -41.04996384123024 331.1671393525321 0 -3.901332056332649 339.01565371572724 0
          -13.47066851112777 358.59216810090584 0 -37.432748534538405 355.8597720799662 0
          55.152339968490196 244.1671700711886 0 -48.96863793974944 221.25498208039062 0
          172.60740123422875 -35.69144088233588 0
          <InformationKey name="L2_NORM_RANGE" location="vtkDataArray" length="2">
            <Value index="0">
              0
            </Value>
            <Value index="1">
              358.84509462
            </Value>
          </InformationKey>
        </DataArray>
        <DataArray type="Float64" Name="Sigma" NumberOfComponents="6" format="ascii" RangeMin="58266.59036553483" RangeMax="179567.4948293729">
          -107745.08873806246 107745.08873806141 0 62616.43658969473 0 0
          126647.26881355865 -126647.26881355883 0 -12861.718525502365 0 0
          -121224.54286705199 121224.54286705227 0 1470.8079828837613 0 0
          114551.89206065547 -114551.89206065601 0 -7702.858419323309 0 0
          -103207.97457577249 103207.97457577246 0 11288.283624927546 0 0
          99125.38813571702 -99125.38813571606 0 2827.811856488686 0 0
          -88554.99605543399 88554.99605543225 0 -2235.5314878283566 0 0
          82551.54229344481 -82551.54229344199 0 9868.94857316609 0 0
          -72357.80596601403 72357.8059660142 0 -3910.262539908553 0 0
          65708.96885847517 -65708.96885847706 0 12690.995757132961 0 0
          -56432.28023781129 56432.28023780963 0 -4966.5235041802125 0 0
          49024.17945680982 -49024.17945680914 0 13165.375974572793 0 0
          -41118.9250781846 41118.92507818165 0 -3669.2715427673456 0 0
          <InformationKey name="L2_NORM_RANGE" location="vtkDataArray" length="2">
            <Value index="0">
              58266.590366
            </Value>
            <Value index="1">
              179567.49483
            </Value>
          </InformationKey>
        </DataArray>
        <DataArray type="Float64" Name="Press" format="ascii" RangeMin="-132705.6116957314" RangeMax="129254.61862901195">
          -126517.31301394412 113811.11664490831 -132705.6116957314 129254.61862901195 -115472.93353959084 105375.77519839778
          -98713.90202748326 89908.64307183327 -80176.76840523061 71471.75441616426 -62355.07385370333 54101.45878346494
          -45118.17279528329
        </DataArray>
        <DataArray type="Float64" Name="Dev strain" NumberOfComponents="6" format="ascii" RangeMin="0" RangeMax="0">
          0 0 0 0 0 0
          0 0 0 0 0 0
          0 0 0 0 0 0
          0 0 0 0 0 0
          0 0 0 0 0 0
          0 0 0 0 0 0
          0 0 0 0 0 0
          0 0 0 0 0 0
          0 0 0 0 0 0
          0 0 0 0 0 0
          0 0 0 0 0 0
          0 0 0 0 0 0
          0 0 0 0 0 0
          <InformationKey name="L2_NORM_RANGE" location="vtkDataArray" length="2">
            <Value index="0">
              0
            </Value>
            <Value index="1">
              0
            </Value>
          </InformationKey>
        </DataArray>
        <DataArray type="Float64" Name="J2 Stresses" format="ascii" RangeMin="1694131887.998877" RangeMax="16080886648.791122">
          12589208679.970657 16080886648.791122 14695930612.356392 13136969481.63316 10683742352.832497 9827841703.030378
          7843236726.636044 6839106171.511124 5239474622.4981 4357933931.771075 3190768841.7681675 2446701952.5514245
          1694131887.998877
        </DataArray>
      </PointData>
      <CellData>
        <DataArray type="UInt8" Name="vtkGhostType" format="ascii" RangeMin="0" RangeMax="0">
          0 0 0 0 0 0
          0 0 0 0 0
        </DataArray>
        <DataArray type="Float64" Name="Gauss Stress" NumberOfComponents="6" format="ascii" RangeMin="34038.14373575078" RangeMax="85539.44783459249">
          76778.24719511703 -3204.831476324564 0 -6364.589653980638 0 0
          -82578.05695210771 -14363.14842440411 0 17075.175349025372 0 0
          76542.25530280631 2896.0515557397543 0 2137.745687364308 0 0
          -76268.18399615977 -3014.4337413805297 0 1685.4110628293342 0 0
          63230.81687215855 1149.5272896739903 0 3487.0763139421415 0 0
          -67149.54762138863 -5391.159291062551 0 3960.187997862624 0 0
          52368.778089557636 1766.9746322873557 0 6216.560596796834 0 0
          -55781.095696294615 -3540.2558776253863 0 1241.051515143059 0 0
          40506.335807799864 1639.0904228164363 0 6963.282742508513 0 0
          -44713.73506270662 -2659.656832474301 0 1271.4032376813966 0 0
          -33966.27124156926 -1614.920668779844 0 1509.8603092084109 0 0
          <InformationKey name="L2_NORM_RANGE" location="vtkDataArray" length="2">
            <Value index="0">
              34038.143736
            </Value>
            <Value index="1">
              85539.447835
            </Value>
          </InformationKey>
        </DataArray>
        <DataArray type="Float64" Name="Gauss Strain" NumberOfComponents="6" format="ascii" RangeMin="0" RangeMax="0">
          0 0 0 0 0 0
          0 0 0 0 0 0
          0 0 0 0 0 0
          0 0 0 0 0 0
          0 0 0 0 0 0
          0 0 0 0 0 0
          0 0 0 0 0 0
          0 0 0 0 0 0
          0 0 0 0 0 0
          0 0 0 0 0 0
          0 0 0 0 0 0
          <InformationKey name="L2_NORM_RANGE" location="vtkDataArray" length="2">
            <Value index="0">
              0
            </Value>
            <Value index="1">
              0
            </Value>
          </InformationKey>
        </DataArray>
      </CellData>
      <Points>
        <DataArray type="Float32" Name="Points" NumberOfComponents="3" format="ascii" RangeMin="0" RangeMax="0.6020797527609908">
          0 0.05000000074505806 0 0 0 0
          0.10000000149011612 0.05000000074505806 0 0.10000000149011612 0 0
          0.20000000298023224 0.05000000074505806 0 0.20000000298023224 0 0
          0.30000001192092896 0.05000000074505806 0 0.30000001192092896 0 0
          0.4000000059604645 0.05000000074505806 0 0.4000000059604645 0 0
          0.5 0.05000000074505806 0 0.5 0 0
          0.6000000238418579 0.05000000074505806 0
          <InformationKey name="L2_NORM_RANGE" location="vtkDataArray" length="2">
            <Value index="0">
              0
            </Value>
            <Value index="1">
              0.60207975276
            </Value>
          </InformationKey>
        </DataArray>
      </Points>
      <Cells>
        <DataArray type="Int64" Name="connectivity" format="ascii" RangeMin="0" RangeMax="12">
          3 2 1 2 0 1
          5 4 3 4 2 3
          7 6 5 6 4 5
          9 8 7 8 6 7
          11 10 9 10 8 9
          12 10 11
        </DataArray>
        <DataArray type="Int64" Name="offsets" format="ascii" RangeMin="3" RangeMax="33">
          3 6 9 12 15 18
          21 24 27 30 33
        </DataArray>
        <DataArray type="UInt8" Name="types" format="ascii" RangeMin="5" RangeMax="5">
          5 5 5 5 5 5
          5 5 5 5 5
        </DataArray>
      </Cells>
    </Piece>
  </UnstructuredGrid>
</VTKFile>
