<?xml version="1.0"?>
<VTKFile type="UnstructuredGrid" version="0.1" byte_order="LittleEndian" header_type="UInt32" compressor="vtkZLibDataCompressor">
  <UnstructuredGrid>
    <Piece NumberOfPoints="13" NumberOfCells="11">
      <PointData>
        <DataArray type="Float64" Name="Disp" NumberOfComponents="3" format="ascii" RangeMin="0" RangeMax="0.07885719424106011">
          0 0 0 0 0 0
          0.0013541104419998102 -0.002677093320545644 0 -0.00156737240977763 -0.0026087472727682934 0
          0.0023061184564736933 -0.011674711104461033 0 -0.003289350507728773 -0.011385529640083781 0
          0.00234408399182401 -0.024962002150834148 0 -0.005023002443214849 -0.02441942543767675 0
          0.0016508664873599432 -0.04122483947263881 0 -0.0069466830281210475 -0.04048597401086678 0
          0.0003950634426462406 -0.0594339447964253 0 -0.008992152230788438 -0.05854565340696211 0
          -0.0012573681567562057 -0.07884716931438096 0
          <InformationKey name="L2_NORM_RANGE" location="vtkDataArray" length="2">
            <Value index="0">
              0
            </Value>
            <Value index="1">
              0.078857194241
            </Value>
          </InformationKey>
        </DataArray>
        <DataArray type="Float64" Name="Nodal Stress" NumberOfComponents="6" format="ascii" RangeMin="20007.501949731322" RangeMax="156307.0795910086">
          149929.8255689089 -3854.4761596940766 0 -44023.783897806905 0 0
          -78472.50246906061 -13564.033629480411 0 -2312.5523947074053 0 0
          105227.91968537636 7467.017223262266 0 -19007.20157081443 0 0
          -95532.46635129272 -1854.9421826636903 0 6664.900789693218 0 0
          76917.52775397513 9207.154668166339 0 -23558.01967122328 0 0
          -80196.18041024705 -3522.3978240857014 0 7104.055012497466 0 0
          60312.55774427098 9462.495607939934 0 -20557.267024265624 0 0
          -60701.834094402606 -2077.283786878605 0 7594.3679141352 0 0
          41989.916336701965 8639.288671740158 0 -17175.711434865796 0 0
          -43880.54648362184 -1514.6048436172487 0 5916.656124567976 0 0
          28117.519938751575 7113.620132694284 0 -12911.642696683452 0 0
          -29290.064132664887 -654.8940353952244 0 4057.6979041325117 0 0
          17050.403142649284 5299.105317203111 0 -9027.921675492526 0 0
          <InformationKey name="L2_NORM_RANGE" location="vtkDataArray" length="2">
            <Value index="0">
              20007.50195
            </Value>
            <Value index="1">
              156307.07959
            </Value>
          </InformationKey>
        </DataArray>
        <DataArray type="Float64" Name="Nodal Strain" NumberOfComponents="6" format="ascii" RangeMin="0" RangeMax="0">
          0 0 0 0 0 0
          0 0 0 0 0 0
          0 0 0 0 0 0
          0 0 0 0 0 0
          0 0 0 0 0 0
          0 0 0 0 0 0
          0 0 0 0 0 0
          0 0 0 0 0 0
          0 0 0 0 0 0
          0 0 0 0 0 0
          0 0 0 0 0 0
          0 0 0 0 0 0
          0 0 0 0 0 0
          <InformationKey name="L2_NORM_RANGE" location="vtkDataArray" length="2">
            <Value index="0">
              0
            </Value>
            <Value index="1">
              0
            </Value>
          </InformationKey>
        </DataArray>
        <DataArray type="Float64" Name="Sld_traction" NumberOfComponents="3" format="ascii" RangeMin="5278.436806133689" RangeMax="72689.07677595239">
          -70019.33676407122 19519.076864951523 0 25853.57119652595 22328.982319432926 0
          -28632.23838782 18982.81023360724 0 -16779.390753222033 14145.12902237129 0
          -24922.75283718972 15253.596999226309 0 -11846.409979123493 11159.841247959695 0
          -20913.44114440812 14078.739682802685 0 -8464.548377299963 8547.747314772841 0
          -17075.57661345432 11780.26880065943 0 -5644.290929110728 6100.816379122277 0
          -13050.02427431216 9216.586204065836 0 -3561.0977392422847 3896.2132908646454 0
          -9450.36180233992 6588.443707320225 0
          <InformationKey name="L2_NORM_RANGE" location="vtkDataArray" length="2">
            <Value index="0">
              5278.4368061
            </Value>
            <Value index="1">
              72689.076776
            </Value>
          </InformationKey>
        </DataArray>
        <DataArray type="Float64" Name="Velocity" NumberOfComponents="3" format="ascii" RangeMin="0" RangeMax="1.5099986783606179">
          0 0 0 0 0 0
          -0.10320489583587678 0.293972488022072 0 0.18838551673390425 0.28277748839536865 0
          -0.07889704190077618 1.0619953330035035 0 0.25090821298864285 1.0257166346229312 0
          0.10541013702745206 1.5063149443800476 0 0.17054027789134185 1.4959622455927928 0
          0.24814362384222377 1.2845222326238108 0 -0.03731423186844163 1.3344166577765577 0
          0.2532933488294099 0.3251034113925506 0 -0.37899088294486827 0.4449606474736818 0
          0.09013909011746046 -1.2807509128966643 0
          <InformationKey name="L2_NORM_RANGE" location="vtkDataArray" length="2">
            <Value index="0">
              0
            </Value>
            <Value index="1">
              1.5099986784
            </Value>
          </InformationKey>
        </DataArray>
        <DataArray type="Float64" Name="Acceleration" NumberOfComponents="3" format="ascii" RangeMin="0" RangeMax="1166.5767945142945">
          0 0 0 0 0 0
          -58.10107043552375 142.64026391761627 0 83.86782418356393 135.77934918010487 0
          -56.07526887099084 534.5397941184165 0 136.92118135583678 510.68945476728004 0
          18.438907516158906 883.8850949558837 0 155.30564407144902 858.9124900238785 0
          89.47473084559306 1085.8079574096482 0 155.77882619552838 1073.6960870679177 0
          119.07894668638397 1153.3757995574852 0 132.53828487962983 1159.0233045717468 0
          101.49900553934287 1135.817196089134 0
          <InformationKey name="L2_NORM_RANGE" location="vtkDataArray" length="2">
            <Value index="0">
              0
            </Value>
            <Value index="1">
              1166.5767945
            </Value>
          </InformationKey>
        </DataArray>
        <DataArray type="Float64" Name="Sigma" NumberOfComponents="6" format="ascii" RangeMin="38239.88843526332" RangeMax="230183.3452646465">
          151581.4790781318 -151581.47907812995 0 -83847.97456227434 0 0
          -142736.84825819518 142736.84825819562 0 25325.171433485335 0 0
          147142.49355913975 -147142.49355913943 0 -33724.35790016429 0 0
          -138772.4349243898 138772.4349243898 0 33196.501321120624 0 0
          109922.12025276534 -109922.12025276497 0 -57015.46361763302 0 0
          -105509.95149040958 105509.9514904084 0 38399.40172299996 0 0
          84219.8969545317 -84219.89695453215 0 -48834.85567431857 0 0
          -79382.658464459 79382.65846445855 0 34521.22740960235 0 0
          57650.070278075786 -57650.070278075356 0 -41535.57738466997 0 0
          -55099.12360439639 55099.123604396 0 27065.817072663867 0 0
          37957.791382341864 -37957.79138234529 0 -30691.882648524912 0 0
          -36107.205575392465 36107.20557539585 0 18929.457339889792 0 0
          22611.12045919492 -22611.120459196012 0 -20970.539590122375 0 0
          <InformationKey name="L2_NORM_RANGE" location="vtkDataArray" length="2">
            <Value index="0">
              38239.888435
            </Value>
            <Value index="1">
              230183.34526
            </Value>
          </InformationKey>
        </DataArray>
        <DataArray type="Float64" Name="Press" format="ascii" RangeMin="-180705.68411774756" RangeMax="175433.1484097415">
          148711.61726321673 -180705.68411774756 175433.1484097415 -149231.09041304584 128890.1631980289 -122528.37063982412
          106898.24478765762 -92824.22661353016 76708.41754764426 -66155.0457423756 53355.11797687179 -43589.13340251015
          33486.86917522694
        </DataArray>
        <DataArray type="Float64" Name="Dev strain" NumberOfComponents="6" format="ascii" RangeMin="0" RangeMax="0">
          0 0 0 0 0 0
          0 0 0 0 0 0
          0 0 0 0 0 0
          0 0 0 0 0 0
          0 0 0 0 0 0
          0 0 0 0 0 0
          0 0 0 0 0 0
          0 0 0 0 0 0
          0 0 0 0 0 0
          0 0 0 0 0 0
          0 0 0 0 0 0
          0 0 0 0 0 0
          0 0 0 0 0 0
          <InformationKey name="L2_NORM_RANGE" location="vtkDataArray" length="2">
            <Value index="0">
              0
            </Value>
            <Value index="1">
              0
            </Value>
          </InformationKey>
        </DataArray>
        <DataArray type="Float64" Name="J2 Stresses" format="ascii" RangeMin="621203651.0954704" RangeMax="24734565509.06277">
          24734565509.06277 20534148927.71695 21935246489.74603 19533290619.834793 12895563293.746773 11500978376.679546
          7689201825.214857 6599535250.351279 3754831650.2365294 3219053035.4252563 1676291841.753223 1393311383.2594514
          621203651.0954704
        </DataArray>
      </PointData>
      <CellData>
        <DataArray type="UInt8" Name="vtkGhostType" format="ascii" RangeMin="0" RangeMax="0">
          0 0 0 0 0 0
          0 0 0 0 0
        </DataArray>
        <DataArray type="Float64" Name="Gauss Stress" NumberOfComponents="6" format="ascii" RangeMin="25841.000696421474" RangeMax="104521.68562701515">
          -96290.13858149905 -6712.278832535314 0 8265.771618147226 0 0
          99808.73531142905 -4182.680941287692 0 -30749.05367631777 0 0
          -92409.85467229171 -2836.3438976026227 0 4860.146475495858 0 0
          91128.13336074665 12266.680769069975 0 -19181.106732225562 0 0
          -69709.02182201119 -2593.8798217872873 0 8028.591152761248 0 0
          67297.3676875833 8209.323876324555 0 -22483.63918965055 0 0
          -53034.18886634704 -1813.0476724941027 0 6683.822365865415 0 0
          51089.91482997344 9431.708984540923 0 -18616.401883128736 0 0
          -36545.866321820315 -1046.8411235224662 0 5101.130588009587 0 0
          34805.74261272058 7799.917242038607 0 -15053.880986843671 0 0
          22571.520005244303 6263.715827814376 0 -10910.988299585835 0 0
          <InformationKey name="L2_NORM_RANGE" location="vtkDataArray" length="2">
            <Value index="0">
              25841.000696
            </Value>
            <Value index="1">
              104521.68563
            </Value>
          </InformationKey>
        </DataArray>
        <DataArray type="Float64" Name="Gauss Strain" NumberOfComponents="6" format="ascii" RangeMin="0" RangeMax="0">
          0 0 0 0 0 0
          0 0 0 0 0 0
          0 0 0 0 0 0
          0 0 0 0 0 0
          0 0 0 0 0 0
          0 0 0 0 0 0
          0 0 0 0 0 0
          0 0 0 0 0 0
          0 0 0 0 0 0
          0 0 0 0 0 0
          0 0 0 0 0 0
          <InformationKey name="L2_NORM_RANGE" location="vtkDataArray" length="2">
            <Value index="0">
              0
            </Value>
            <Value index="1">
              0
            </Value>
          </InformationKey>
        </DataArray>
      </CellData>
      <Points>
        <DataArray type="Float32" Name="Points" NumberOfComponents="3" format="ascii" RangeMin="0" RangeMax="0.6020797527609908">
          0 0.05000000074505806 0 0 0 0
          0.10000000149011612 0.05000000074505806 0 0.10000000149011612 0 0
          0.20000000298023224 0.05000000074505806 0 0.20000000298023224 0 0
          0.30000001192092896 0.05000000074505806 0 0.30000001192092896 0 0
          0.4000000059604645 0.05000000074505806 0 0.4000000059604645 0 0
          0.5 0.05000000074505806 0 0.5 0 0
          0.6000000238418579 0.05000000074505806 0
          <InformationKey name="L2_NORM_RANGE" location="vtkDataArray" length="2">
            <Value index="0">
              0
            </Value>
            <Value index="1">
              0.60207975276
            </Value>
          </InformationKey>
        </DataArray>
      </Points>
      <Cells>
        <DataArray type="Int64" Name="connectivity" format="ascii" RangeMin="0" RangeMax="12">
          3 2 1 2 0 1
          5 4 3 4 2 3
          7 6 5 6 4 5
          9 8 7 8 6 7
          11 10 9 10 8 9
          12 10 11
        </DataArray>
        <DataArray type="Int64" Name="offsets" format="ascii" RangeMin="3" RangeMax="33">
          3 6 9 12 15 18
          21 24 27 30 33
        </DataArray>
        <DataArray type="UInt8" Name="types" format="ascii" RangeMin="5" RangeMax="5">
          5 5 5 5 5 5
          5 5 5 5 5
        </DataArray>
      </Cells>
    </Piece>
  </UnstructuredGrid>
</VTKFile>
