<?xml version="1.0"?>
<VTKFile type="UnstructuredGrid" version="0.1" byte_order="LittleEndian" header_type="UInt32" compressor="vtkZLibDataCompressor">
  <UnstructuredGrid>
    <Piece NumberOfPoints="13" NumberOfCells="11">
      <PointData>
        <DataArray type="Float64" Name="Disp" NumberOfComponents="3" format="ascii" RangeMin="0.037356486610583994" RangeMax="0.18382831941092123">
          -0.009683487220078658 -0.05635906795058053 0 -0.0010324140760695146 -0.08030002029187622 0
          -0.012895153467715928 -0.07888023793534005 0 -0.0037282635310501985 -0.10508339508846651 0
          -0.016385628078478064 -0.10345958579930992 0 -0.00692171145486478 -0.13100198540990274 0
          -0.019982050252862666 -0.1292707926901785 0 -0.010410800741264466 -0.15729311105236246 0
          -0.02348856417499486 -0.15555742031030237 0 -0.013944301508683064 -0.1832986837729028 0
          -0.026910384194684743 -0.18158304947235063 0 0.0009652399749127616 -0.05749670994686295 0
          -0.006888457824610742 -0.03671588539971902 0
          <InformationKey name="L2_NORM_RANGE" location="vtkDataArray" length="2">
            <Value index="0">
              0.037356486611
            </Value>
            <Value index="1">
              0.18382831941
            </Value>
          </InformationKey>
        </DataArray>
        <DataArray type="Float64" Name="Nodal Stress" NumberOfComponents="6" format="ascii" RangeMin="1634.556578718655" RangeMax="73212.22799123156">
          -59153.298810894834 -4169.631465434899 0 11966.36509265199 0 0
          38649.85821756805 10551.949144283823 0 -18327.976602071463 0 0
          -44537.168472849684 -2417.442834549506 0 8991.857797892118 0 0
          23363.81291018135 9203.553586924012 0 -14081.938581844865 0 0
          -29074.321692187637 -556.8016171061395 0 5381.674529361396 0 0
          10541.67834984716 6840.0594007860045 0 -9113.107793926356 0 0
          -15462.359811078928 621.83386577599 0 2120.324625798714 0 0
          2845.1430845465 3736.7316112943977 0 -4470.0033273279005 0 0
          -6882.155321571006 404.12558487786583 0 495.16132319432177 0 0
          -111.49885659694746 1897.2299805136438 0 -2296.991666354441 0 0
          1403.9833797028443 131.1117668522335 0 826.6895324990506 0 0
          54197.19669218347 10601.936615654997 0 -20887.352965484777 0 0
          -71757.03561366998 -5555.945899569358 0 13419.747856782793 0 0
          <InformationKey name="L2_NORM_RANGE" location="vtkDataArray" length="2">
            <Value index="0">
              1634.5565787
            </Value>
            <Value index="1">
              73212.227991
            </Value>
          </InformationKey>
        </DataArray>
        <DataArray type="Float64" Name="Nodal Strain" NumberOfComponents="6" format="ascii" RangeMin="0" RangeMax="0">
          0 0 0 0 0 0
          0 0 0 0 0 0
          0 0 0 0 0 0
          0 0 0 0 0 0
          0 0 0 0 0 0
          0 0 0 0 0 0
          0 0 0 0 0 0
          0 0 0 0 0 0
          0 0 0 0 0 0
          0 0 0 0 0 0
          0 0 0 0 0 0
          0 0 0 0 0 0
          0 0 0 0 0 0
          <InformationKey name="L2_NORM_RANGE" location="vtkDataArray" length="2">
            <Value index="0">
              0
            </Value>
            <Value index="1">
              0
            </Value>
          </InformationKey>
        </DataArray>
        <DataArray type="Float64" Name="Sld_traction" NumberOfComponents="3" format="ascii" RangeMin="254.39699496843076" RangeMax="21524.945159972514">
          -7812.748076653779 9377.549884847474 0 -15262.257280703107 12496.322001659828 0
          -5066.243528185054 6310.92006924961 0 -13114.16051199126 10247.791634936462 0
          -2827.5293503973917 3324.17082296369 0 -9762.070045708928 7287.063298999968 0
          -817.7670833849011 1188.6518904491104 0 -5582.308293859934 4104.1751753225735 0
          -524.9015193766854 606.6867532750905 0 -1464.1203983958412 754.5794416927628 0
          253.6454504103897 19.540126281022896 0 -16484.37407362376 13841.55610979723 0
          -10746.807288659249 12122.72608140544 0
          <InformationKey name="L2_NORM_RANGE" location="vtkDataArray" length="2">
            <Value index="0">
              254.39699497
            </Value>
            <Value index="1">
              21524.94516
            </Value>
          </InformationKey>
        </DataArray>
        <DataArray type="Float64" Name="Velocity" NumberOfComponents="3" format="ascii" RangeMin="0.1092881562541342" RangeMax="4.361902364197229">
          -0.10635749935606498 0.47874864651491933 0 0.025889505625804055 -0.10617737327641663 0
          -0.31480256541511853 -0.02331362380644464 0 -0.12970192954757964 -0.9466657600465567 0
          -0.5985863984132722 -0.8220064621331957 0 -0.37708507622554066 -1.9968532118199889 0
          -0.9259425942576716 -1.8451518176795503 0 -0.6890776768616549 -3.1349683859416757 0
          -1.2485831201753133 -2.9796709889575794 0 -1.010668216372813 -4.228005254772256 0
          -1.5513648752153237 -4.0766971016666815 0 0.08110806713712626 0.4402597981801719 0
          0.019047434904357452 0.6731925413749877 0
          <InformationKey name="L2_NORM_RANGE" location="vtkDataArray" length="2">
            <Value index="0">
              0.10928815625
            </Value>
            <Value index="1">
              4.3619023642
            </Value>
          </InformationKey>
        </DataArray>
        <DataArray type="Float64" Name="Acceleration" NumberOfComponents="3" format="ascii" RangeMin="303.13591401339863" RangeMax="3409.46946350914">
          50.730058888750136 -883.3760057688633 0 -90.45568244119067 -289.32533915790555 0
          239.85299130942803 -365.65703066892456 0 47.09709150820072 493.9674957940151 0
          470.4942868805356 391.88404901177273 0 245.13169516875405 1412.5367057222902 0
          717.103437468777 1297.2469797046506 0 478.2820019553037 2377.939934044465 0
          953.7959799428172 2262.061982538522 0 716.9620617469936 3312.279912086582 0
          1180.010133292013 3198.758838663751 0 -144.59276325780678 -842.3027446561755 0
          -78.33561031426689 -1093.2245292670195 0
          <InformationKey name="L2_NORM_RANGE" location="vtkDataArray" length="2">
            <Value index="0">
              303.13591401
            </Value>
            <Value index="1">
              3409.4694635
            </Value>
          </InformationKey>
        </DataArray>
        <DataArray type="Float64" Name="Sigma" NumberOfComponents="6" format="ascii" RangeMin="4863.37482348407" RangeMax="139353.0742004795">
          -73201.35007230738 73201.35007230793 0 44467.390836484745 0 0
          52279.734598533025 -52279.734598529336 0 -47794.07129937419 0 0
          -52530.80334754399 52530.80334754516 0 34711.704384781886 0 0
          31347.0332616904 -31347.033261688095 0 -35571.72186967018 0 0
          -32194.89332832574 32194.893328317114 0 22373.816163671872 0 0
          13669.156170181903 -13669.156170187935 0 -21610.80759256491 0 0
          -15654.479861411115 15654.479861423839 0 10179.253899020352 0 0
          4446.894826188155 -4446.894826192256 0 -9130.501807772796 0 0
          -6656.1644180785925 6656.164418076176 0 3507.2020539597243 0 0
          -1077.3599070192292 1077.359907034117 0 -4618.550198402271 0 0
          5139.633775400349 -5139.63377540493 0 2209.0531372193745 0 0
          74124.63701146952 -74124.63701147024 0 -55301.09198042869 0 0
          -92212.90732170318 92212.90732170604 0 49120.65487838877 0 0
          <InformationKey name="L2_NORM_RANGE" location="vtkDataArray" length="2">
            <Value index="0">
              4863.3748235
            </Value>
            <Value index="1">
              139353.0742
            </Value>
          </InformationKey>
        </DataArray>
        <DataArray type="Float64" Name="Press" format="ascii" RangeMin="-113847.55250904607" RangeMax="100647.07746614325">
          -92587.57168506514 77043.8943760872 -67589.29222018216 51442.1728758517 -41419.94894274947 27187.472101399304
          -19250.259226521004 10914.429298367 -8379.318254675554 2075.7984988248804 4686.855024479588 100647.07746614325
          -113847.55250904607
        </DataArray>
        <DataArray type="Float64" Name="Dev strain" NumberOfComponents="6" format="ascii" RangeMin="0" RangeMax="0">
          0 0 0 0 0 0
          0 0 0 0 0 0
          0 0 0 0 0 0
          0 0 0 0 0 0
          0 0 0 0 0 0
          0 0 0 0 0 0
          0 0 0 0 0 0
          0 0 0 0 0 0
          0 0 0 0 0 0
          0 0 0 0 0 0
          0 0 0 0 0 0
          0 0 0 0 0 0
          0 0 0 0 0 0
          <InformationKey name="L2_NORM_RANGE" location="vtkDataArray" length="2">
            <Value index="0">
              0
            </Value>
            <Value index="1">
              0
            </Value>
          </InformationKey>
        </DataArray>
        <DataArray type="Float64" Name="J2 Stresses" format="ascii" RangeMin="6493455.853058937" RangeMax="9106429960.64173">
          5852774864.359707 3304238962.5352745 3060710905.662522 1298973343.5027454 1161658068.8534417 303602581.60561967
          270967042.21670556 40616389.410632804 47379641.32230426 6493455.853058937 27635814.286024272 6259014505.63913
          9106429960.64173
        </DataArray>
      </PointData>
      <CellData>
        <DataArray type="UInt8" Name="vtkGhostType" format="ascii" RangeMin="0" RangeMax="1">
          1 1 0 0 0 0
          0 0 0 0 0
        </DataArray>
        <DataArray type="Float64" Name="Gauss Stress" NumberOfComponents="6" format="ascii" RangeMin="1486.5583789456086" RangeMax="67095.04209740905">
          -65692.55570350302 -4832.808781808075 0 12762.317911481616 0 0
          46102.1405649535 10633.459539824555 0 -19542.59081443938 0 0
          -52195.12945015948 -3226.850235945445 0 10461.674640630818 0 0
          -36981.91056708642 -1396.1349576352545 0 7171.266226261193 0 0
          30664.24651481207 9933.60350636149 0 -16218.029594754165 0 0
          -22554.31769580871 232.4936505606156 0 3647.4208233757718 0 0
          16676.997379349366 8129.466643647538 0 -11602.904432854406 0 0
          -11526.299212043705 382.8670901594003 0 1518.6513817357607 0 0
          7104.404436068084 5463.357012762983 0 -6854.018500439118 0 0
          -1403.5184270228515 325.7419394447585 0 365.9016642589428 0 0
          441.4266812022197 2632.513013811455 0 -3413.9499840717817 0 0
          <InformationKey name="L2_NORM_RANGE" location="vtkDataArray" length="2">
            <Value index="0">
              1486.5583789
            </Value>
            <Value index="1">
              67095.042097
            </Value>
          </InformationKey>
        </DataArray>
        <DataArray type="Float64" Name="Gauss Strain" NumberOfComponents="6" format="ascii" RangeMin="0" RangeMax="0">
          0 0 0 0 0 0
          0 0 0 0 0 0
          0 0 0 0 0 0
          0 0 0 0 0 0
          0 0 0 0 0 0
          0 0 0 0 0 0
          0 0 0 0 0 0
          0 0 0 0 0 0
          0 0 0 0 0 0
          0 0 0 0 0 0
          0 0 0 0 0 0
          <InformationKey name="L2_NORM_RANGE" location="vtkDataArray" length="2">
            <Value index="0">
              0
            </Value>
            <Value index="1">
              0
            </Value>
          </InformationKey>
        </DataArray>
      </CellData>
      <Points>
        <DataArray type="Float32" Name="Points" NumberOfComponents="3" format="ascii" RangeMin="0.4000000059604645" RangeMax="1.0012492197622458">
          0.5 0 0 0.6000000238418579 0.05000000074505806 0
          0.6000000238418579 0 0 0.699999988079071 0.05000000074505806 0
          0.699999988079071 0 0 0.800000011920929 0.05000000074505806 0
          0.800000011920929 0 0 0.8999999761581421 0.05000000074505806 0
          0.8999999761581421 0 0 1 0.05000000074505806 0
          1 0 0 0.5 0.05000000074505806 0
          0.4000000059604645 0 0
          <InformationKey name="L2_NORM_RANGE" location="vtkDataArray" length="2">
            <Value index="0">
              0.40000000596
            </Value>
            <Value index="1">
              1.0012492198
            </Value>
          </InformationKey>
        </DataArray>
      </Points>
      <Cells>
        <DataArray type="Int64" Name="connectivity" format="ascii" RangeMin="0" RangeMax="12">
          0 11 12 1 11 0
          2 1 0 4 3 2
          3 1 2 6 5 4
          5 3 4 8 7 6
          7 5 6 10 9 8
          9 7 8
        </DataArray>
        <DataArray type="Int64" Name="offsets" format="ascii" RangeMin="3" RangeMax="33">
          3 6 9 12 15 18
          21 24 27 30 33
        </DataArray>
        <DataArray type="UInt8" Name="types" format="ascii" RangeMin="5" RangeMax="5">
          5 5 5 5 5 5
          5 5 5 5 5
        </DataArray>
      </Cells>
    </Piece>
  </UnstructuredGrid>
</VTKFile>
