<?xml version="1.0"?>
<VTKFile type="UnstructuredGrid" version="0.1" byte_order="LittleEndian" header_type="UInt32" compressor="vtkZLibDataCompressor">
  <UnstructuredGrid>
    <Piece NumberOfPoints="13" NumberOfCells="11">
      <PointData>
        <DataArray type="Float64" Name="Disp" NumberOfComponents="3" format="ascii" RangeMin="0.04138698961070966" RangeMax="0.19674249510217537">
          0.0007475052189895489 0.06254013454522726 0 -0.014092342703416333 0.08508461636787339 0
          -0.0015338837507495834 0.08669158350909534 0 -0.018001170976305193 0.11110109703798689 0
          -0.004584464612201192 0.1129403425176062 0 -0.02205838995982952 0.13845643347674713 0
          -0.008193923976901924 0.14042262879713044 0 -0.026085697798665906 0.16635970713621248 0
          -0.012156806658436818 0.16834171215985672 0 -0.029945778387936044 0.19412930740371434 0
          -0.01611493457758067 0.19608140723329634 0 -0.010527713287758419 0.061251358529221776 0
          0.0021475177868758894 0.04133123608594402 0
          <InformationKey name="L2_NORM_RANGE" location="vtkDataArray" length="2">
            <Value index="0">
              0.041386989611
            </Value>
            <Value index="1">
              0.1967424951
            </Value>
          </InformationKey>
        </DataArray>
        <DataArray type="Float64" Name="Nodal Stress" NumberOfComponents="6" format="ascii" RangeMin="3158.5737667263766" RangeMax="46238.50700934894">
          33881.89489230395 1693.222625553697 0 7154.5139293146185 0 0
          -27385.23096624742 -1094.0288665487958 0 1837.5444535205834 0 0
          23178.454203746707 1560.3567894262003 0 6559.141321508371 0 0
          -18160.370306510405 -434.0342125891395 0 2198.615548887558 0 0
          14010.938199283504 1216.9673795090023 0 5294.494218678156 0 0
          -10638.458583690473 -164.72516789898398 0 2137.771844897834 0 0
          7511.223648531784 1091.4292846768187 0 4043.441499132631 0 0
          -5194.793730862124 -195.44583575819814 0 1124.2110839731438 0 0
          3265.0873131683134 334.3736551547038 0 1733.5864308093812 0 0
          -3140.5774992113284 -123.63528038856445 0 313.17012747516 0 0
          4563.439258394654 2611.0215106724663 0 3076.211775378341 0 0
          -37783.513378656186 -2033.1210936998202 0 1402.7599369165594 0 0
          45680.812579885154 1640.0930912657057 0 6969.432340370316 0 0
          <InformationKey name="L2_NORM_RANGE" location="vtkDataArray" length="2">
            <Value index="0">
              3158.5737667
            </Value>
            <Value index="1">
              46238.507009
            </Value>
          </InformationKey>
        </DataArray>
        <DataArray type="Float64" Name="Nodal Strain" NumberOfComponents="6" format="ascii" RangeMin="0" RangeMax="0">
          0 0 0 0 0 0
          0 0 0 0 0 0
          0 0 0 0 0 0
          0 0 0 0 0 0
          0 0 0 0 0 0
          0 0 0 0 0 0
          0 0 0 0 0 0
          0 0 0 0 0 0
          0 0 0 0 0 0
          0 0 0 0 0 0
          0 0 0 0 0 0
          0 0 0 0 0 0
          0 0 0 0 0 0
          <InformationKey name="L2_NORM_RANGE" location="vtkDataArray" length="2">
            <Value index="0">
              0
            </Value>
            <Value index="1">
              0
            </Value>
          </InformationKey>
        </DataArray>
        <DataArray type="Float64" Name="Sld_traction" NumberOfComponents="3" format="ascii" RangeMin="280.0611153121154" RangeMax="22173.620012282892">
          10084.22030134129 -1931.1322619555226 0 17628.55086696646 -2922.8646394493544 0
          6560.951602460293 -951.8631748216109 0 13117.147741644545 -1802.9204010577303 0
          3189.569461405135 -431.39804532012135 0 8298.931445274267 -1304.1827981495894 0
          420.3626260358563 -335.6855637558801 0 3938.8344522444168 -802.3263096269039 0
          -190.76150118020678 -400.27417161558134 0 199.63515320260697 -242.4760701287594 0
          -18.467376363189274 -279.45157777354973 0 21686.856837884254 -4620.5697638089305 0
          13390.052760842313 -3330.6381621448118 0
          <InformationKey name="L2_NORM_RANGE" location="vtkDataArray" length="2">
            <Value index="0">
              280.06111531
            </Value>
            <Value index="1">
              22173.620012
            </Value>
          </InformationKey>
        </DataArray>
        <DataArray type="Float64" Name="Velocity" NumberOfComponents="3" format="ascii" RangeMin="0.04632223360940647" RangeMax="1.2200313753007077">
          -0.11585915163301236 0.9640924458413878 0 -0.0064722123684815 0.8355312908340764 0
          -0.12802900265386985 0.8048699528990895 0 0.12848263655689074 0.5132830540024571 0
          -0.07799578927039752 0.4558203728429078 0 0.2941904611209747 0.04313351087137107 0
          0.03254475771962939 -0.03296343537216728 0 0.4654636712614213 -0.5051591616802966 0
          0.1891936445434652 -0.5858708527572816 0 0.6181656185387752 -1.0518307015745023 0
          0.3497281586306036 -1.1296779146883296 0 -0.09291425179229496 0.9677397301729656 0
          -0.060432893663772136 0.9220681396528363 0
          <InformationKey name="L2_NORM_RANGE" location="vtkDataArray" length="2">
            <Value index="0">
              0.046322233609
            </Value>
            <Value index="1">
              1.2200313753
            </Value>
          </InformationKey>
        </DataArray>
        <DataArray type="Float64" Name="Acceleration" NumberOfComponents="3" format="ascii" RangeMin="87.68917162266943" RangeMax="2275.5303185746125">
          -34.564468517357795 80.58962920861813 0 171.0624501806833 -157.55326004253584 0
          1.6934504044866117 -202.28076278799563 0 313.74954967594385 -548.7693550807162 0
          86.99137766113336 -614.0382113437372 0 480.4611582851867 -1039.6767823521805 0
          216.9381407841811 -1118.7929423768655 0 652.4126615530258 -1582.9623836395913 0
          379.10796313318497 -1665.444154449564 0 811.6746034682146 -2125.846318254684 0
          543.4754953733536 -2206.3050180641585 0 66.34289926711244 103.35116730770096 0
          -31.374406835152513 221.6611011257919 0
          <InformationKey name="L2_NORM_RANGE" location="vtkDataArray" length="2">
            <Value index="0">
              87.689171623
            </Value>
            <Value index="1">
              2275.5303186
            </Value>
          </InformationKey>
        </DataArray>
        <DataArray type="Float64" Name="Sigma" NumberOfComponents="6" format="ascii" RangeMin="6097.888611604292" RangeMax="91660.94698762438">
          47375.21594735017 -47375.215947349505 0 12961.909313874667 0 0
          -39492.47075407841 39492.470754075934 0 -3377.473900051778 0 0
          32231.622232555885 -32231.62223254973 0 11182.839955523172 0 0
          -25938.857650342023 25938.85765033539 0 -1459.0567982287223 0 0
          19351.856627196565 -19351.856627191217 0 8234.337426430713 0 0
          -14687.850599253197 14687.850599255542 0 -379.5884544336742 0 0
          9506.477273865048 -9506.47727386479 0 6581.558280548887 0 0
          -6578.657234454248 6578.657234449988 0 -262.2431152820292 0 0
          4627.153041642311 -4627.153041637228 0 2068.3413372929117 0 0
          -4108.041937827019 4108.041937823905 0 -1852.6274298055114 0 0
          1692.8621958177966 -1692.8621958122699 0 6044.566597012981 0 0
          -54731.060548760724 54731.06054876321 0 -4639.074530213352 0 0
          64180.814968774095 -64180.814968777435 0 12781.830172382352 0 0
          <InformationKey name="L2_NORM_RANGE" location="vtkDataArray" length="2">
            <Value index="0">
              6097.8886116
            </Value>
            <Value index="1">
              91660.946988
            </Value>
          </InformationKey>
        </DataArray>
        <DataArray type="Float64" Name="Press" format="ascii" RangeMin="-60448.09379121472" RangeMax="69841.3263680079">
          52346.13218297544 -43320.910435147125 36065.5098107497 -28059.184013470942 21953.823013686477 -16249.505532655667
          12008.568691586972 -7284.350171999647 4639.742372474351 -5685.464904881823 7697.322035267599 -60448.09379121472
          69841.3263680079
        </DataArray>
        <DataArray type="Float64" Name="Dev strain" NumberOfComponents="6" format="ascii" RangeMin="0" RangeMax="0">
          0 0 0 0 0 0
          0 0 0 0 0 0
          0 0 0 0 0 0
          0 0 0 0 0 0
          0 0 0 0 0 0
          0 0 0 0 0 0
          0 0 0 0 0 0
          0 0 0 0 0 0
          0 0 0 0 0 0
          0 0 0 0 0 0
          0 0 0 0 0 0
          0 0 0 0 0 0
          0 0 0 0 0 0
          <InformationKey name="L2_NORM_RANGE" location="vtkDataArray" length="2">
            <Value index="0">
              0
            </Value>
            <Value index="1">
              0
            </Value>
          </InformationKey>
        </DataArray>
        <DataArray type="Float64" Name="J2 Stresses" format="ascii" RangeMin="11999978.750450969" RangeMax="4160020805.695138">
          2286413859.323308 1562507078.748023 1070141449.1097038 673356547.8896492 391445433.13254744 215768977.07470173
          101202337.5085756 43295923.8712874 22480054.242644824 17734065.66134972 11999978.750450969 3000869241.9164677
          4160020805.695138
        </DataArray>
      </PointData>
      <CellData>
        <DataArray type="UInt8" Name="vtkGhostType" format="ascii" RangeMin="0" RangeMax="1">
          1 1 0 0 0 0
          0 0 0 0 0
        </DataArray>
        <DataArray type="Float64" Name="Gauss Stress" NumberOfComponents="6" format="ascii" RangeMin="3908.17257159876" RangeMax="40176.084261507654">
          39521.445042377396 1638.1314641349582 0 7034.888318681224 0 0
          -32757.06246629179 -1524.8522292989276 0 1648.4536278698442 0 0
          28401.69966146856 1658.788044251571 0 6922.425123115354 0 0
          18534.92334012522 1438.5092005198944 0 5986.040194575054 0 0
          -22838.09693657764 -704.9594886689256 0 2115.4364190808897 0 0
          10627.789824808735 1180.8009569391065 0 4812.102417515309 0 0
          -14543.239384946266 -360.0049700134732 0 2131.897391256105 0 0
          5639.64465770493 602.9959370032155 0 2795.885500853256 0 0
          -7761.772524303581 78.24784892413288 0 1979.9089036110604 0 0
          2954.52426749774 1479.875401078179 0 2086.7601681667943 0 0
          -4796.539611682025 -756.8421912568181 0 -15.509735931543219 0 0
          <InformationKey name="L2_NORM_RANGE" location="vtkDataArray" length="2">
            <Value index="0">
              3908.1725716
            </Value>
            <Value index="1">
              40176.084262
            </Value>
          </InformationKey>
        </DataArray>
        <DataArray type="Float64" Name="Gauss Strain" NumberOfComponents="6" format="ascii" RangeMin="0" RangeMax="0">
          0 0 0 0 0 0
          0 0 0 0 0 0
          0 0 0 0 0 0
          0 0 0 0 0 0
          0 0 0 0 0 0
          0 0 0 0 0 0
          0 0 0 0 0 0
          0 0 0 0 0 0
          0 0 0 0 0 0
          0 0 0 0 0 0
          0 0 0 0 0 0
          <InformationKey name="L2_NORM_RANGE" location="vtkDataArray" length="2">
            <Value index="0">
              0
            </Value>
            <Value index="1">
              0
            </Value>
          </InformationKey>
        </DataArray>
      </CellData>
      <Points>
        <DataArray type="Float32" Name="Points" NumberOfComponents="3" format="ascii" RangeMin="0.4000000059604645" RangeMax="1.0012492197622458">
          0.5 0 0 0.6000000238418579 0.05000000074505806 0
          0.6000000238418579 0 0 0.699999988079071 0.05000000074505806 0
          0.699999988079071 0 0 0.800000011920929 0.05000000074505806 0
          0.800000011920929 0 0 0.8999999761581421 0.05000000074505806 0
          0.8999999761581421 0 0 1 0.05000000074505806 0
          1 0 0 0.5 0.05000000074505806 0
          0.4000000059604645 0 0
          <InformationKey name="L2_NORM_RANGE" location="vtkDataArray" length="2">
            <Value index="0">
              0.40000000596
            </Value>
            <Value index="1">
              1.0012492198
            </Value>
          </InformationKey>
        </DataArray>
      </Points>
      <Cells>
        <DataArray type="Int64" Name="connectivity" format="ascii" RangeMin="0" RangeMax="12">
          0 11 12 1 11 0
          2 1 0 4 3 2
          3 1 2 6 5 4
          5 3 4 8 7 6
          7 5 6 10 9 8
          9 7 8
        </DataArray>
        <DataArray type="Int64" Name="offsets" format="ascii" RangeMin="3" RangeMax="33">
          3 6 9 12 15 18
          21 24 27 30 33
        </DataArray>
        <DataArray type="UInt8" Name="types" format="ascii" RangeMin="5" RangeMax="5">
          5 5 5 5 5 5
          5 5 5 5 5
        </DataArray>
      </Cells>
    </Piece>
  </UnstructuredGrid>
</VTKFile>
