<?xml version="1.0"?>
<VTKFile type="UnstructuredGrid" version="0.1" byte_order="LittleEndian" header_type="UInt32" compressor="vtkZLibDataCompressor">
  <UnstructuredGrid>
    <Piece NumberOfPoints="13" NumberOfCells="11">
      <PointData>
        <DataArray type="Float64" Name="Disp" NumberOfComponents="3" format="ascii" RangeMin="0" RangeMax="0.08624375957330895">
          0 0 0 0 0 0
          -0.0011708556854560278 0.0022096769194473414 0 0.0014329011611644764 0.002260708688843927 0
          -0.002993218637439033 0.010396614311347726 0 0.0023649252864061717 0.010670416484801316 0
          -0.004924067715547002 0.023254589318541907 0 0.0026537368985960733 0.023826367302556516 0
          -0.007456056877421269 0.040403764427808984 0 0.0021475177868758894 0.04133123608594402 0
          -0.010527713287758419 0.061251358529221776 0 0.0007475052189895489 0.06254013454522726 0
          -0.014092342703416333 0.08508461636787339 0
          <InformationKey name="L2_NORM_RANGE" location="vtkDataArray" length="2">
            <Value index="0">
              0
            </Value>
            <Value index="1">
              0.086243759573
            </Value>
          </InformationKey>
        </DataArray>
        <DataArray type="Float64" Name="Nodal Stress" NumberOfComponents="6" format="ascii" RangeMin="27468.606514605413" RangeMax="127535.2472856767">
          -122996.5997230616 -16326.263196162901 0 29504.72651683597 0 0
          59843.63311860675 -10536.884704987757 0 1251.5369243340626 0 0
          -84136.24833036392 -8257.344495039222 0 3725.9298510432577 0 0
          82306.48780604852 2841.3924624020897 0 -2291.360817034494 0 0
          -70884.05891553608 -4487.677444912785 0 5172.745549832399 0 0
          70073.70618201494 1180.6784700067305 0 3567.0810266874 0 0
          -60692.66872136226 -4464.757801884917 0 1914.6411459081687 0 0
          58003.269733961126 1705.9018979699479 0 5562.221127763997 0 0
          -48758.10756075763 -2962.2811776235403 0 1491.4837054888667 0 0
          45680.812579885154 1640.0930912657057 0 6969.432340370316 0 0
          -37783.513378656186 -2033.1210936998202 0 1402.7599369165594 0 0
          33881.89489230395 1693.222625553697 0 7154.5139293146185 0 0
          -27385.23096624742 -1094.0288665487958 0 1837.5444535205834 0 0
          <InformationKey name="L2_NORM_RANGE" location="vtkDataArray" length="2">
            <Value index="0">
              27468.606515
            </Value>
            <Value index="1">
              127535.24729
            </Value>
          </InformationKey>
        </DataArray>
        <DataArray type="Float64" Name="Nodal Strain" NumberOfComponents="6" format="ascii" RangeMin="0" RangeMax="0">
          0 0 0 0 0 0
          0 0 0 0 0 0
          0 0 0 0 0 0
          0 0 0 0 0 0
          0 0 0 0 0 0
          0 0 0 0 0 0
          0 0 0 0 0 0
          0 0 0 0 0 0
          0 0 0 0 0 0
          0 0 0 0 0 0
          0 0 0 0 0 0
          0 0 0 0 0 0
          0 0 0 0 0 0
          <InformationKey name="L2_NORM_RANGE" location="vtkDataArray" length="2">
            <Value index="0">
              0
            </Value>
            <Value index="1">
              0
            </Value>
          </InformationKey>
        </DataArray>
        <DataArray type="Float64" Name="Sld_traction" NumberOfComponents="3" format="ascii" RangeMin="10267.46175542667" RangeMax="63854.62631128326">
          58762.262954205624 -24988.192288647497 0 -16693.659305517824 -1527.5970658781998 0
          26642.591042122258 -13423.717743264708 0 18875.678034152483 -8866.160500414835 0
          30931.44877411973 -12647.722611535593 0 18916.208816058188 -7385.996239890789 0
          27822.61489824249 -9905.546568635638 0 16091.577720802348 -5282.665802524826 0
          25049.42068172876 -6906.678636744659 0 13390.052760842313 -3330.6381621448118 0
          21686.856837884254 -4620.5697638089305 0 10084.22030134129 -1931.1322619555226 0
          17628.55086696646 -2922.8646394493544 0
          <InformationKey name="L2_NORM_RANGE" location="vtkDataArray" length="2">
            <Value index="0">
              10267.461755
            </Value>
            <Value index="1">
              63854.626311
            </Value>
          </InformationKey>
        </DataArray>
        <DataArray type="Float64" Name="Velocity" NumberOfComponents="3" format="ascii" RangeMin="0" RangeMax="0.9721899215386705">
          0 0 0 0 0 0
          -0.04037585867926308 0.09411438890530222 0 0.0637668002555235 0.10112266306357731 0
          -0.1023735633502314 0.3924918992950346 0 0.05607229915214451 0.41006780946344534 0
          -0.12306754716515123 0.6911358589901635 0 0.007184469752290257 0.7132917579214872 0
          -0.12882348608362904 0.9068163418415693 0 -0.060432893663772136 0.9220681396528363 0
          -0.09291425179229496 0.9677397301729656 0 -0.11585915163301236 0.9640924458413878 0
          -0.0064722123684815 0.8355312908340764 0
          <InformationKey name="L2_NORM_RANGE" location="vtkDataArray" length="2">
            <Value index="0">
              0
            </Value>
            <Value index="1">
              0.97218992154
            </Value>
          </InformationKey>
        </DataArray>
        <DataArray type="Float64" Name="Acceleration" NumberOfComponents="3" format="ascii" RangeMin="0" RangeMax="235.53782491849407">
          0 0 0 0 0 0
          -14.946658788094282 39.10606397529045 0 26.770115364264257 42.864626698682514 0
          -34.328839154069556 152.6840035374189 0 17.651787691288064 159.51053987618434 0
          -25.482164793452284 230.59646331538534 0 -7.246586137721351 235.42632383971795 0
          2.616692162295294 226.83927424821013 0 -31.374406835152513 221.6611011257919 0
          66.34289926711244 103.35116730770096 0 -34.564468517357795 80.58962920861813 0
          171.0624501806833 -157.55326004253584 0
          <InformationKey name="L2_NORM_RANGE" location="vtkDataArray" length="2">
            <Value index="0">
              0
            </Value>
            <Value index="1">
              235.53782492
            </Value>
          </InformationKey>
        </DataArray>
        <DataArray type="Float64" Name="Sigma" NumberOfComponents="6" format="ascii" RangeMin="55952.81782420624" RangeMax="183611.50402521508">
          -110010.55090327273 110010.55090327284 0 64384.606147821105 0 0
          129545.46790957019 -129545.46790957077 0 -12211.79342203516 0 0
          -122865.03915682208 122865.03915682253 0 1461.4871937368466 0 0
          116124.84739640332 -116124.84739640415 0 -7508.346000250825 0 0
          -103700.18733701116 103700.18733701158 0 11812.381670229443 0 0
          99293.43810330669 -99293.43810330793 0 3448.6087744690876 0 0
          -87857.52290712862 87857.52290712888 0 -2129.157357935209 0 0
          81605.63715966567 -81605.63715966378 0 10310.490622765166 0 0
          -70944.99751792726 70944.99751792802 0 -3619.155663772723 0 0
          64180.814968774095 -64180.814968777435 0 12781.830172382352 0 0
          -54731.060548760724 54731.06054876321 0 -4639.074530213352 0 0
          47375.21594735017 -47375.215947349505 0 12961.909313874667 0 0
          -39492.47075407841 39492.470754075934 0 -3377.473900051778 0 0
          <InformationKey name="L2_NORM_RANGE" location="vtkDataArray" length="2">
            <Value index="0">
              55952.817824
            </Value>
            <Value index="1">
              183611.50403
            </Value>
          </InformationKey>
        </DataArray>
        <DataArray type="Float64" Name="Press" format="ascii" RangeMin="-134275.6531215761" RangeMax="131110.48507647647">
          -129819.61388374784 115269.15505062268 -134275.6531215761 131110.48507647647 -116181.5721215713 105403.34697265341
          -97953.46846931045 88937.1524316055 -78596.72165156883 69841.3263680079 -60448.09379121472 52346.13218297544
          -43320.910435147125
        </DataArray>
        <DataArray type="Float64" Name="Dev strain" NumberOfComponents="6" format="ascii" RangeMin="0" RangeMax="0">
          0 0 0 0 0 0
          0 0 0 0 0 0
          0 0 0 0 0 0
          0 0 0 0 0 0
          0 0 0 0 0 0
          0 0 0 0 0 0
          0 0 0 0 0 0
          0 0 0 0 0 0
          0 0 0 0 0 0
          0 0 0 0 0 0
          0 0 0 0 0 0
          0 0 0 0 0 0
          0 0 0 0 0 0
          <InformationKey name="L2_NORM_RANGE" location="vtkDataArray" length="2">
            <Value index="0">
              0
            </Value>
            <Value index="1">
              0
            </Value>
          </InformationKey>
        </DataArray>
        <DataArray type="Float64" Name="J2 Stresses" format="ascii" RangeMin="1562507078.748023" RangeMax="16819310230.555168">
          13138665687.244085 16819310230.555168 15096351833.211845 13499073997.752926 10788611943.912045 9862160075.995155
          7720077659.140367 6686056570.455385 5036467244.748413 4160020805.695138 3000869241.9164677 2286413859.323308
          1562507078.748023
        </DataArray>
      </PointData>
      <CellData>
        <DataArray type="UInt8" Name="vtkGhostType" format="ascii" RangeMin="0" RangeMax="0">
          0 0 0 0 0 0
          0 0 0 0 0
        </DataArray>
        <DataArray type="Float64" Name="Gauss Stress" NumberOfComponents="6" format="ascii" RangeMin="32833.94151034836" RangeMax="87260.33183924004">
          78303.08771822484 -3567.0963812097743 0 -6086.217409516379 0 0
          -84052.07803507533 -15165.329934725542 0 17878.09997317426 0 0
          77350.11936341916 2871.387254952703 0 2584.2148148159026 0 0
          -76595.70642136697 -2968.7870230803046 0 1921.8409545718237 0 0
          63142.861096930756 1115.1595263685456 0 3876.6473464330156 0 0
          -66998.65525302051 -5489.140492465261 0 4377.277695587773 0 0
          51674.403919519034 1780.1008458437866 0 6491.055043791598 0 0
          -54936.64031822137 -3472.0514746268923 0 1520.7258670190774 0 0
          39521.445042377396 1638.1314641349582 0 7034.888318681224 0 0
          -43566.24405756319 -2569.415325620626 0 1507.8666594654242 0 0
          -32757.06246629179 -1524.8522292989276 0 1648.4536278698442 0 0
          <InformationKey name="L2_NORM_RANGE" location="vtkDataArray" length="2">
            <Value index="0">
              32833.94151
            </Value>
            <Value index="1">
              87260.331839
            </Value>
          </InformationKey>
        </DataArray>
        <DataArray type="Float64" Name="Gauss Strain" NumberOfComponents="6" format="ascii" RangeMin="0" RangeMax="0">
          0 0 0 0 0 0
          0 0 0 0 0 0
          0 0 0 0 0 0
          0 0 0 0 0 0
          0 0 0 0 0 0
          0 0 0 0 0 0
          0 0 0 0 0 0
          0 0 0 0 0 0
          0 0 0 0 0 0
          0 0 0 0 0 0
          0 0 0 0 0 0
          <InformationKey name="L2_NORM_RANGE" location="vtkDataArray" length="2">
            <Value index="0">
              0
            </Value>
            <Value index="1">
              0
            </Value>
          </InformationKey>
        </DataArray>
      </CellData>
      <Points>
        <DataArray type="Float32" Name="Points" NumberOfComponents="3" format="ascii" RangeMin="0" RangeMax="0.6020797527609908">
          0 0.05000000074505806 0 0 0 0
          0.10000000149011612 0.05000000074505806 0 0.10000000149011612 0 0
          0.20000000298023224 0.05000000074505806 0 0.20000000298023224 0 0
          0.30000001192092896 0.05000000074505806 0 0.30000001192092896 0 0
          0.4000000059604645 0.05000000074505806 0 0.4000000059604645 0 0
          0.5 0.05000000074505806 0 0.5 0 0
          0.6000000238418579 0.05000000074505806 0
          <InformationKey name="L2_NORM_RANGE" location="vtkDataArray" length="2">
            <Value index="0">
              0
            </Value>
            <Value index="1">
              0.60207975276
            </Value>
          </InformationKey>
        </DataArray>
      </Points>
      <Cells>
        <DataArray type="Int64" Name="connectivity" format="ascii" RangeMin="0" RangeMax="12">
          3 2 1 2 0 1
          5 4 3 4 2 3
          7 6 5 6 4 5
          9 8 7 8 6 7
          11 10 9 10 8 9
          12 10 11
        </DataArray>
        <DataArray type="Int64" Name="offsets" format="ascii" RangeMin="3" RangeMax="33">
          3 6 9 12 15 18
          21 24 27 30 33
        </DataArray>
        <DataArray type="UInt8" Name="types" format="ascii" RangeMin="5" RangeMax="5">
          5 5 5 5 5 5
          5 5 5 5 5
        </DataArray>
      </Cells>
    </Piece>
  </UnstructuredGrid>
</VTKFile>
