<?xml version="1.0"?>
<VTKFile type="UnstructuredGrid" version="0.1" byte_order="LittleEndian" header_type="UInt32" compressor="vtkZLibDataCompressor">
  <UnstructuredGrid>
    <Piece NumberOfPoints="13" NumberOfCells="11">
      <PointData>
        <DataArray type="Float64" Name="Disp" NumberOfComponents="3" format="ascii" RangeMin="0" RangeMax="0.05813334988973511">
          0 0 0 0 0 0
          0.0008934436072528571 -0.0017057519668282964 0 -0.0010069296805737676 -0.0016751605589520136 0
          0.0016729713857532975 -0.007644918408031555 0 -0.00212713372665688 -0.0075150035250606765 0
          0.0019903589292920906 -0.016874829242151522 0 -0.0032754154574864357 -0.01660019692536179 0
          0.0018782826995696735 -0.02876511934280776 0 -0.004564226439155481 -0.028353686761017335 0
          0.0013564225753931653 -0.04270178455384808 0 -0.005971728765823603 -0.04216439409114319 0
          0.0004810508326016776 -0.058131359518755615 0
          <InformationKey name="L2_NORM_RANGE" location="vtkDataArray" length="2">
            <Value index="0">
              0
            </Value>
            <Value index="1">
              0.05813334989
            </Value>
          </InformationKey>
        </DataArray>
        <DataArray type="Float64" Name="Nodal Stress" NumberOfComponents="6" format="ascii" RangeMin="22265.636824067347" RangeMax="103879.65842240525">
          100385.10329584865 -244.72888047621637 0 -26716.1856935538 0 0
          -52866.64690368446 -6639.487045981527 0 287.667142604275 0 0
          72661.45453265132 4795.225740357639 0 -9952.869302486448 0 0
          -66514.4319731413 -2218.6242584203924 0 5029.3911320779835 0 0
          57894.959536861024 4935.823209607174 0 -13413.07275313207 0 0
          -59300.70529135382 -3036.729124350102 0 5017.4504804725775 0 0
          49879.79353628542 5411.069687140462 0 -12677.998323484342 0 0
          -49517.38456145024 -2194.524286547536 0 5549.184437904973 0 0
          39213.71412379853 5394.666711106007 0 -12031.893211898812 0 0
          -40077.489801143594 -1727.0488095264168 0 4839.076457896714 0 0
          29490.054123314992 5088.721997010134 0 -10438.67462583571 0 0
          -30428.327882102512 -989.2536935220028 0 3755.9065595457396 0 0
          20110.374392774815 4423.6822718541525 0 -8471.272638829083 0 0
          <InformationKey name="L2_NORM_RANGE" location="vtkDataArray" length="2">
            <Value index="0">
              22265.636824
            </Value>
            <Value index="1">
              103879.65842
            </Value>
          </InformationKey>
        </DataArray>
        <DataArray type="Float64" Name="Nodal Strain" NumberOfComponents="6" format="ascii" RangeMin="0" RangeMax="0">
          0 0 0 0 0 0
          0 0 0 0 0 0
          0 0 0 0 0 0
          0 0 0 0 0 0
          0 0 0 0 0 0
          0 0 0 0 0 0
          0 0 0 0 0 0
          0 0 0 0 0 0
          0 0 0 0 0 0
          0 0 0 0 0 0
          0 0 0 0 0 0
          0 0 0 0 0 0
          0 0 0 0 0 0
          <InformationKey name="L2_NORM_RANGE" location="vtkDataArray" length="2">
            <Value index="0">
              0
            </Value>
            <Value index="1">
              0
            </Value>
          </InformationKey>
        </DataArray>
        <DataArray type="Float64" Name="Sld_traction" NumberOfComponents="3" format="ascii" RangeMin="6061.609104675243" RangeMax="47389.58302754431">
          -45413.64281502836 13541.551823684698 0 16123.612394751743 12456.315571807678 0
          -18625.578757807198 12460.59910458901 0 -13137.359459215495 10245.200756551636 0
          -16911.44637880216 10391.632770712933 0 -10564.173008900838 8923.808351922551 0
          -14877.328259229047 9959.197180157367 0 -8294.218902872299 7489.083657662898 0
          -13124.319898478594 8923.501782788111 0 -6184.739657015544 5916.416958680813 0
          -11223.423395551787 7692.03579528747 0 -4328.431457510775 4243.558183354265 0
          -9260.458679566485 6199.325501980652 0
          <InformationKey name="L2_NORM_RANGE" location="vtkDataArray" length="2">
            <Value index="0">
              6061.6091047
            </Value>
            <Value index="1">
              47389.583028
            </Value>
          </InformationKey>
        </DataArray>
        <DataArray type="Float64" Name="Velocity" NumberOfComponents="3" format="ascii" RangeMin="0" RangeMax="6.31020773823853">
          0 0 0 0 0 0
          -0.123955129268423 0.2533712750937036 0 0.14736350021458344 0.24594906317436438 0
          -0.18913978911355556 1.077529090216503 0 0.3082659841114197 1.0425340618776904 0
          -0.145646266721565 2.230868233579791 0 0.4715257560184134 2.1657229028706713 0
          -0.01649003826754869 3.55448533837097 0 0.6568501369362636 3.4670867958863383 0
          0.1717254120556843 4.933090807340577 0 0.8554716729129019 4.831058831589409 0
          0.39295397928745374 6.2979606913577655 0
          <InformationKey name="L2_NORM_RANGE" location="vtkDataArray" length="2">
            <Value index="0">
              0
            </Value>
            <Value index="1">
              6.3102077382
            </Value>
          </InformationKey>
        </DataArray>
        <DataArray type="Float64" Name="Acceleration" NumberOfComponents="3" format="ascii" RangeMin="0" RangeMax="360.68251258708864">
          0 0 0 0 0 0
          2.9509349947491046 -11.541594847201395 0 -6.383739502486833 -9.969980775689237 0
          -8.543584848813225 -32.673119760389454 0 -12.669016919082424 -26.696368964549038 0
          -32.39287287845991 -24.203946267749416 0 -15.042747560358293 -17.326660479222483 0
          -58.21990081404829 38.75783522614802 0 -11.627655910579051 42.459229621897975 0
          -75.4136280629599 165.15856414303562 0 1.952089696082112 163.13341186256002 0
          -78.34009363926964 352.07201623350556 0
          <InformationKey name="L2_NORM_RANGE" location="vtkDataArray" length="2">
            <Value index="0">
              0
            </Value>
            <Value index="1">
              360.68251259
            </Value>
          </InformationKey>
        </DataArray>
        <DataArray type="Float64" Name="Sigma" NumberOfComponents="6" format="ascii" RangeMin="44427.045497438434" RangeMax="149455.6452262285">
          98697.44121000584 -98697.44121000583 0 -53428.64481889055 0 0
          -98308.97335326204 98308.97335326124 0 18079.352781128677 0 0
          102173.75528589994 -102173.75528589939 0 -18086.805917562775 0 0
          -96571.10793109663 96571.10793109665 0 20285.85086442396 0 0
          82815.91336624266 -82815.9133662424 0 -33420.78201172586 0 0
          -80343.57341827525 80343.57341827538 0 24176.299337332555 0 0
          70427.22778368079 -70427.22778368022 0 -30724.452938449846 0 0
          -67141.7658782521 67141.76587825255 0 23725.836356956974 0 0
          55053.87550993864 -55053.87550993987 0 -29649.74602339595 0 0
          -52796.191248116535 52796.19124811592 0 21251.299684740345 0 0
          41174.16724876134 -41174.16724876114 0 -25338.791811925697 0 0
          -39306.52690391909 39306.526903918624 0 17124.523177042553 0 0
          28020.737348268103 -28020.737348271225 0 -20085.789218998474 0 0
          <InformationKey name="L2_NORM_RANGE" location="vtkDataArray" length="2">
            <Value index="0">
              44427.045497
            </Value>
            <Value index="1">
              149455.64523
            </Value>
          </InformationKey>
        </DataArray>
        <DataArray type="Float64" Name="Press" format="ascii" RangeMin="-118167.27900404567" RangeMax="119207.25247017168">
          99620.38768230948 -118167.27900404567 119207.25247017168 -105335.6724750689 94213.4077732663 -91766.20526995773
          84304.54048173943 -77067.11687651096 67810.36833943715 -61620.582274585715 52829.021555561594 -46116.8740996465
          37563.491331637626
        </DataArray>
        <DataArray type="Float64" Name="Dev strain" NumberOfComponents="6" format="ascii" RangeMin="0" RangeMax="0">
          0 0 0 0 0 0
          0 0 0 0 0 0
          0 0 0 0 0 0
          0 0 0 0 0 0
          0 0 0 0 0 0
          0 0 0 0 0 0
          0 0 0 0 0 0
          0 0 0 0 0 0
          0 0 0 0 0 0
          0 0 0 0 0 0
          0 0 0 0 0 0
          0 0 0 0 0 0
          0 0 0 0 0 0
          <InformationKey name="L2_NORM_RANGE" location="vtkDataArray" length="2">
            <Value index="0">
              0
            </Value>
            <Value index="1">
              0
            </Value>
          </InformationKey>
        </DataArray>
        <DataArray type="Float64" Name="J2 Stresses" format="ascii" RangeMin="886021453.6782231" RangeMax="10521259406.297806">
          10454839923.198349 9746369991.018436 10521259406.297806 9428857823.362926 7137712674.253814 6601213152.029871
          5195992415.386175 4648745552.959325 3250706068.476861 2900342244.8803267 1855825641.2509909 1618315380.7587638
          886021453.6782231
        </DataArray>
      </PointData>
      <CellData>
        <DataArray type="UInt8" Name="vtkGhostType" format="ascii" RangeMin="0" RangeMax="0">
          0 0 0 0 0 0
          0 0 0 0 0
        </DataArray>
        <DataArray type="Float64" Name="Gauss Stress" NumberOfComponents="6" format="ascii" RangeMin="26891.113560837388" RangeMax="70046.37543932423">
          -65667.34166913388 -3863.1243368281307 0 6759.465909329955 0 0
          67740.86143035976 -633.953998069499 0 -17812.032651774876 0 0
          -65662.41265162986 -2929.9006628768993 0 3680.456063343555 0 0
          65501.182829805024 6555.475682441303 0 -10407.245688288225 0 0
          -53862.297725858625 -2490.223383960517 0 5725.894251946565 0 0
          53217.10357223208 4617.391751133583 0 -13322.978537614386 0 0
          -45253.80414269652 -1997.7497317436428 0 5109.1300061004595 0 0
          44462.37645334433 5569.48484309936 0 -12216.120868296277 0 0
          -35278.995240648306 -1326.6279717990715 0 4345.677016619067 0 0
          34150.219710332174 5195.652036609319 0 -11245.74605019377 0 0
          24721.3388268877 4795.753698146325 0 -9433.352617960543 0 0
          <InformationKey name="L2_NORM_RANGE" location="vtkDataArray" length="2">
            <Value index="0">
              26891.113561
            </Value>
            <Value index="1">
              70046.375439
            </Value>
          </InformationKey>
        </DataArray>
        <DataArray type="Float64" Name="Gauss Strain" NumberOfComponents="6" format="ascii" RangeMin="0" RangeMax="0">
          0 0 0 0 0 0
          0 0 0 0 0 0
          0 0 0 0 0 0
          0 0 0 0 0 0
          0 0 0 0 0 0
          0 0 0 0 0 0
          0 0 0 0 0 0
          0 0 0 0 0 0
          0 0 0 0 0 0
          0 0 0 0 0 0
          0 0 0 0 0 0
          <InformationKey name="L2_NORM_RANGE" location="vtkDataArray" length="2">
            <Value index="0">
              0
            </Value>
            <Value index="1">
              0
            </Value>
          </InformationKey>
        </DataArray>
      </CellData>
      <Points>
        <DataArray type="Float32" Name="Points" NumberOfComponents="3" format="ascii" RangeMin="0" RangeMax="0.6020797527609908">
          0 0.05000000074505806 0 0 0 0
          0.10000000149011612 0.05000000074505806 0 0.10000000149011612 0 0
          0.20000000298023224 0.05000000074505806 0 0.20000000298023224 0 0
          0.30000001192092896 0.05000000074505806 0 0.30000001192092896 0 0
          0.4000000059604645 0.05000000074505806 0 0.4000000059604645 0 0
          0.5 0.05000000074505806 0 0.5 0 0
          0.6000000238418579 0.05000000074505806 0
          <InformationKey name="L2_NORM_RANGE" location="vtkDataArray" length="2">
            <Value index="0">
              0
            </Value>
            <Value index="1">
              0.60207975276
            </Value>
          </InformationKey>
        </DataArray>
      </Points>
      <Cells>
        <DataArray type="Int64" Name="connectivity" format="ascii" RangeMin="0" RangeMax="12">
          3 2 1 2 0 1
          5 4 3 4 2 3
          7 6 5 6 4 5
          9 8 7 8 6 7
          11 10 9 10 8 9
          12 10 11
        </DataArray>
        <DataArray type="Int64" Name="offsets" format="ascii" RangeMin="3" RangeMax="33">
          3 6 9 12 15 18
          21 24 27 30 33
        </DataArray>
        <DataArray type="UInt8" Name="types" format="ascii" RangeMin="5" RangeMax="5">
          5 5 5 5 5 5
          5 5 5 5 5
        </DataArray>
      </Cells>
    </Piece>
  </UnstructuredGrid>
</VTKFile>
