<?xml version="1.0"?>
<VTKFile type="UnstructuredGrid" version="0.1" byte_order="LittleEndian" header_type="UInt32" compressor="vtkZLibDataCompressor">
  <UnstructuredGrid>
    <Piece NumberOfPoints="13" NumberOfCells="11">
      <PointData>
        <DataArray type="Float64" Name="Disp" NumberOfComponents="3" format="ascii" RangeMin="0" RangeMax="0.03068937253775477">
          0 0 0 0 0 0
          0.000455730462853071 -0.000861612511232064 0 -0.0005161447004737883 -0.0008505134434646153 0
          0.000919136953445233 -0.003909625837270034 0 -0.0010459584362666758 -0.0038745606163200557 0
          0.0012027354311008086 -0.008688426008731395 0 -0.0015497369248503162 -0.008612013952258819 0
          0.0013436963218034725 -0.014931066716958428 0 -0.0020708884705627987 -0.01481502040452353 0
          0.0013325478725334091 -0.02235211042991362 0 -0.002600402969935485 -0.022197125008190696 0
          0.0011805390050744202 -0.030666658024939637 0
          <InformationKey name="L2_NORM_RANGE" location="vtkDataArray" length="2">
            <Value index="0">
              0
            </Value>
            <Value index="1">
              0.030689372538
            </Value>
          </InformationKey>
        </DataArray>
        <DataArray type="Float64" Name="Nodal Stress" NumberOfComponents="6" format="ascii" RangeMin="12696.532313484317" RangeMax="53099.76140888506">
          51463.8050557583 1787.1264766912384 0 -12956.373328201655 0 0
          -25634.575043001932 -1444.8441506204208 0 157.2091055589148 0 0
          37218.43633933118 2621.2213174004146 0 -4202.268079600022 0 0
          -33172.50243251719 -1212.4986152561585 0 2247.7383160605805 0 0
          30602.133941466967 2169.5833222240017 0 -5731.100744391706 0 0
          -29648.08222532722 -1316.0335233201024 0 1818.2056903583357 0 0
          26834.6948727967 2315.2668196895456 0 -5286.917830551043 0 0
          -25072.8414001073 -949.877134433354 0 1850.3667575882937 0 0
          21745.974624227096 2190.7253548335125 0 -5131.8278562849855 0 0
          -20557.31164576727 -680.6262748743782 0 1458.4862610800606 0 0
          16863.423074244813 2055.2455861689054 0 -4611.070077211157 0 0
          -15841.185264106842 -339.1941561819264 0 994.5266788174245 0 0
          11937.77384113714 1801.410776067686 0 -3930.191817339257 0 0
          <InformationKey name="L2_NORM_RANGE" location="vtkDataArray" length="2">
            <Value index="0">
              12696.532313
            </Value>
            <Value index="1">
              53099.761409
            </Value>
          </InformationKey>
        </DataArray>
        <DataArray type="Float64" Name="Nodal Strain" NumberOfComponents="6" format="ascii" RangeMin="0" RangeMax="0">
          0 0 0 0 0 0
          0 0 0 0 0 0
          0 0 0 0 0 0
          0 0 0 0 0 0
          0 0 0 0 0 0
          0 0 0 0 0 0
          0 0 0 0 0 0
          0 0 0 0 0 0
          0 0 0 0 0 0
          0 0 0 0 0 0
          0 0 0 0 0 0
          0 0 0 0 0 0
          0 0 0 0 0 0
          <InformationKey name="L2_NORM_RANGE" location="vtkDataArray" length="2">
            <Value index="0">
              0
            </Value>
            <Value index="1">
              0
            </Value>
          </InformationKey>
        </DataArray>
        <DataArray type="Float64" Name="Sld_traction" NumberOfComponents="3" format="ascii" RangeMin="3399.895140841808" RangeMax="24504.499849285614">
          -23236.07732333047 7781.723683596462 0 7577.443658457294 4843.689407288428 0
          -9595.537347460182 6197.824151872792 0 -6881.634166938738 4928.830016003997 0
          -9169.892168811322 5291.758350667199 0 -5931.619400829233 4395.192213664825 0
          -8200.911206565675 4984.365970267817 0 -4799.305241884119 3707.8866981499764 0
          -7325.177963297631 4399.410073994666 0 -3706.8589780466373 2939.6289103306262 0
          -6370.477336303421 3768.6208440932282 0 -2652.2462740961982 2127.1757497354492 0
          -5325.275620081408 3036.714787244346 0
          <InformationKey name="L2_NORM_RANGE" location="vtkDataArray" length="2">
            <Value index="0">
              3399.8951408
            </Value>
            <Value index="1">
              24504.499849
            </Value>
          </InformationKey>
        </DataArray>
        <DataArray type="Float64" Name="Velocity" NumberOfComponents="3" format="ascii" RangeMin="0" RangeMax="8.309883496368387">
          0 0 0 0 0 0
          0.16953457201056954 -0.3510860970752664 0 -0.21261208090550798 -0.3466107538593257 0
          0.2986813022849651 -1.5045960727794316 0 -0.3890455363464501 -1.4810842568196418 0
          0.2967045776234988 -3.0629918168543937 0 -0.5305521951361225 -3.0186841328619085 0
          0.21743943489399786 -4.813023799907785 0 -0.6656781332939667 -4.753438829278624 0
          0.08073400342060821 -6.594576716867177 0 -0.7925876131752598 -6.525128970301672 0
          -0.08581838087657179 -8.309440349910421 0
          <InformationKey name="L2_NORM_RANGE" location="vtkDataArray" length="2">
            <Value index="0">
              0
            </Value>
            <Value index="1">
              8.3098834964
            </Value>
          </InformationKey>
        </DataArray>
        <DataArray type="Float64" Name="Acceleration" NumberOfComponents="3" format="ascii" RangeMin="0" RangeMax="194.10904154656114">
          0 0 0 0 0 0
          6.786726888478807 -18.676743902976902 0 -9.291248346017898 -15.70830332123191 0
          -8.564664674497223 -60.998627356125 0 -26.02810497146701 -50.22441043218761 0
          -41.7422919116718 -88.00872295765043 0 -44.224055241251875 -72.64972241452517 0
          -84.93766649600929 -71.57400592171302 0 -63.55046041226217 -56.19704700967986 0
          -124.95275935132406 -2.3055096800353567 0 -78.25440644174239 9.782820641454691 0
          -154.85827468998286 117.03518603465545 0
          <InformationKey name="L2_NORM_RANGE" location="vtkDataArray" length="2">
            <Value index="0">
              0
            </Value>
            <Value index="1">
              194.10904155
            </Value>
          </InformationKey>
        </DataArray>
        <DataArray type="Float64" Name="Sigma" NumberOfComponents="6" format="ascii" RangeMin="25174.653228432187" RangeMax="74082.10505411983">
          48829.361320389566 -48829.36132038995 0 -26491.079394783388 0 0
          -50434.529241714336 50434.52924171488 0 8454.532343861953 0 0
          52129.16375906928 -52129.1637590691 0 -7297.866867101791 0 0
          -48584.728258588344 48584.72825858824 0 8698.38899853824 0 0
          43381.91650353543 -43381.91650353484 0 -14264.857352924746 0 0
          -41466.05922578093 41466.05922578141 0 9587.081319689503 0 0
          37714.84475635614 -37714.84475635582 0 -12341.61349193969 0 0
          -35270.03906110417 35270.03906110461 0 8933.517842448562 0 0
          30533.562247580838 -30533.56224758111 0 -12055.460224352699 0 0
          -28470.00967134139 28470.009671341795 0 7907.764347315384 0 0
          23632.118639284938 -23632.118639283606 0 -10507.103056313068 0 0
          -21710.103321656155 21710.10332165673 0 6317.442633267802 0 0
          16723.02384877356 -16723.023848771474 0 -8628.100131464775 0 0
          <InformationKey name="L2_NORM_RANGE" location="vtkDataArray" length="2">
            <Value index="0">
              25174.653228
            </Value>
            <Value index="1">
              74082.105054
            </Value>
          </InformationKey>
        </DataArray>
        <DataArray type="Float64" Name="Press" format="ascii" RangeMin="-56605.89785919349" RangeMax="59678.429960898895">
          51714.66548159682 -56605.89785919349 59678.429960898895 -53479.88023846113 48723.678467314625 -46335.66432242685
          43606.76310685187 -39474.50506713316 35722.11398921673 -31978.321240556714 28284.901464283237 -24337.27858491926
          20527.06524788715
        </DataArray>
        <DataArray type="Float64" Name="Dev strain" NumberOfComponents="6" format="ascii" RangeMin="0" RangeMax="0">
          0 0 0 0 0 0
          0 0 0 0 0 0
          0 0 0 0 0 0
          0 0 0 0 0 0
          0 0 0 0 0 0
          0 0 0 0 0 0
          0 0 0 0 0 0
          0 0 0 0 0 0
          0 0 0 0 0 0
          0 0 0 0 0 0
          0 0 0 0 0 0
          0 0 0 0 0 0
          0 0 0 0 0 0
          <InformationKey name="L2_NORM_RANGE" location="vtkDataArray" length="2">
            <Value index="0">
              0
            </Value>
            <Value index="1">
              0
            </Value>
          </InformationKey>
        </DataArray>
        <DataArray type="Float64" Name="J2 Stresses" format="ascii" RangeMin="298270554.61625993" RangeMax="2730764429.4223375">
          2559750848.8323545 2561511519.1217184 2730764429.4223375 2379391312.7533407 1932862218.3445168 1742412099.7735767
          1460488370.8921392 1263927590.632166 968631953.8321395 826174634.9294517 586076835.0402029 481306106.5931556
          298270554.61625993
        </DataArray>
      </PointData>
      <CellData>
        <DataArray type="UInt8" Name="vtkGhostType" format="ascii" RangeMin="0" RangeMax="0">
          0 0 0 0 0 0
          0 0 0 0 0
        </DataArray>
        <DataArray type="Float64" Name="Gauss Stress" NumberOfComponents="6" format="ascii" RangeMin="15120.224405002027" RangeMax="36133.17170544754">
          -32432.48062599638 -1172.4181318405679 0 3285.0181584328006 0 0
          35103.73114034894 1421.0672485193568 0 -8444.804639341077 0 0
          -32586.91235813574 -1474.3317042461827 0 1340.204321767667 0 0
          33949.52673125627 2665.292061912234 0 -4288.1117404961005 0 0
          -27074.88660441238 -1060.7175840593156 0 2059.661890066126 0 0
          28541.826428616776 2121.3584058768 0 -5673.129841724977 0 0
          -22979.0662677793 -841.4086112026171 0 1595.273988470417 0 0
          24277.57999058942 2292.0013620343716 0 -5154.5186246146095 0 0
          -18192.89757163512 -494.2346691592727 0 1239.367974756707 0 0
          19241.455142822557 2111.0076658067746 0 -4884.932977783464 0 0
          14373.242431217826 1943.2163202842603 0 -4272.586851503347 0 0
          <InformationKey name="L2_NORM_RANGE" location="vtkDataArray" length="2">
            <Value index="0">
              15120.224405
            </Value>
            <Value index="1">
              36133.171705
            </Value>
          </InformationKey>
        </DataArray>
        <DataArray type="Float64" Name="Gauss Strain" NumberOfComponents="6" format="ascii" RangeMin="0" RangeMax="0">
          0 0 0 0 0 0
          0 0 0 0 0 0
          0 0 0 0 0 0
          0 0 0 0 0 0
          0 0 0 0 0 0
          0 0 0 0 0 0
          0 0 0 0 0 0
          0 0 0 0 0 0
          0 0 0 0 0 0
          0 0 0 0 0 0
          0 0 0 0 0 0
          <InformationKey name="L2_NORM_RANGE" location="vtkDataArray" length="2">
            <Value index="0">
              0
            </Value>
            <Value index="1">
              0
            </Value>
          </InformationKey>
        </DataArray>
      </CellData>
      <Points>
        <DataArray type="Float32" Name="Points" NumberOfComponents="3" format="ascii" RangeMin="0" RangeMax="0.6020797527609908">
          0 0.05000000074505806 0 0 0 0
          0.10000000149011612 0.05000000074505806 0 0.10000000149011612 0 0
          0.20000000298023224 0.05000000074505806 0 0.20000000298023224 0 0
          0.30000001192092896 0.05000000074505806 0 0.30000001192092896 0 0
          0.4000000059604645 0.05000000074505806 0 0.4000000059604645 0 0
          0.5 0.05000000074505806 0 0.5 0 0
          0.6000000238418579 0.05000000074505806 0
          <InformationKey name="L2_NORM_RANGE" location="vtkDataArray" length="2">
            <Value index="0">
              0
            </Value>
            <Value index="1">
              0.60207975276
            </Value>
          </InformationKey>
        </DataArray>
      </Points>
      <Cells>
        <DataArray type="Int64" Name="connectivity" format="ascii" RangeMin="0" RangeMax="12">
          3 2 1 2 0 1
          5 4 3 4 2 3
          7 6 5 6 4 5
          9 8 7 8 6 7
          11 10 9 10 8 9
          12 10 11
        </DataArray>
        <DataArray type="Int64" Name="offsets" format="ascii" RangeMin="3" RangeMax="33">
          3 6 9 12 15 18
          21 24 27 30 33
        </DataArray>
        <DataArray type="UInt8" Name="types" format="ascii" RangeMin="5" RangeMax="5">
          5 5 5 5 5 5
          5 5 5 5 5
        </DataArray>
      </Cells>
    </Piece>
  </UnstructuredGrid>
</VTKFile>
