<?xml version="1.0"?>
<VTKFile type="UnstructuredGrid" version="0.1" byte_order="LittleEndian" header_type="UInt32" compressor="vtkZLibDataCompressor">
  <UnstructuredGrid>
    <Piece NumberOfPoints="13" NumberOfCells="11">
      <PointData>
        <DataArray type="Float64" Name="Disp" NumberOfComponents="3" format="ascii" RangeMin="0" RangeMax="0.07950230882665443">
          0 0 0 0 0 0
          -0.001255970467879324 0.0024704222177296497 0 0.0016069550402732762 0.002547054904566796 0
          -0.00314735210359683 0.011307077530015752 0 0.0024180875962030945 0.011610791613578619 0
          -0.004836055833614391 0.02421516795823542 0 0.0024927827995114516 0.02476193377597962 0
          -0.006866220432095138 0.04035633623283262 0 0.0018549905267306302 0.04112881347679213 0
          -0.009050168129189311 0.05879326451330215 0 0.0005889472295902134 0.05973847048858714 0
          -0.011330754537174055 0.07869073077807223 0
          <InformationKey name="L2_NORM_RANGE" location="vtkDataArray" length="2">
            <Value index="0">
              0
            </Value>
            <Value index="1">
              0.079502308827
            </Value>
          </InformationKey>
        </DataArray>
        <DataArray type="Float64" Name="Nodal Stress" NumberOfComponents="6" format="ascii" RangeMin="14067.947933362766" RangeMax="131660.79155941802">
          -125683.63035950463 -19738.627655484426 0 33890.64283819458 0 0
          60682.78343420026 -13989.094127196842 0 5481.628815835782 0 0
          -79505.00878853296 -8924.104031790364 0 6546.68677102924 0 0
          81356.27829036709 2322.6664175777237 0 77.80152665177437 0 0
          -62272.957122021035 -4358.21325030749 0 8656.252399787616 0 0
          62440.979886311565 544.7994797465732 0 5974.815516186081 0 0
          -47859.52344952548 -3780.5651917392465 0 5121.258850140974 0 0
          46331.247795738105 1334.2738586115204 0 6545.158549461218 0 0
          -33617.131148488894 -1986.9719118029593 0 4380.98394306177 0 0
          32172.099920447738 1077.8426123838678 0 6383.358939352152 0 0
          -22530.672867413698 -1195.1929581304591 0 3411.8350341354517 0 0
          20987.10086135374 978.6287810072058 0 5227.479374041628 0 0
          -13798.88220356114 -589.3505731400414 0 2674.074585719122 0 0
          <InformationKey name="L2_NORM_RANGE" location="vtkDataArray" length="2">
            <Value index="0">
              14067.947933
            </Value>
            <Value index="1">
              131660.79156
            </Value>
          </InformationKey>
        </DataArray>
        <DataArray type="Float64" Name="Nodal Strain" NumberOfComponents="6" format="ascii" RangeMin="0" RangeMax="0">
          0 0 0 0 0 0
          0 0 0 0 0 0
          0 0 0 0 0 0
          0 0 0 0 0 0
          0 0 0 0 0 0
          0 0 0 0 0 0
          0 0 0 0 0 0
          0 0 0 0 0 0
          0 0 0 0 0 0
          0 0 0 0 0 0
          0 0 0 0 0 0
          0 0 0 0 0 0
          0 0 0 0 0 0
          <InformationKey name="L2_NORM_RANGE" location="vtkDataArray" length="2">
            <Value index="0">
              0
            </Value>
            <Value index="1">
              0
            </Value>
          </InformationKey>
        </DataArray>
        <DataArray type="Float64" Name="Sld_traction" NumberOfComponents="3" format="ascii" RangeMin="4432.9013466028455" RangeMax="70111.56969510844">
          64062.671977393285 -28488.70415145196 0 -18385.13998685543 -360.3294350694099 0
          29804.25604263913 -13206.023300746261 0 17132.811453745413 -7208.94853986738 0
          33523.88790857627 -12330.392279953008 0 15630.469617887027 -5811.555866517559 0
          26362.7815534284 -8831.767605845433 0 10814.25066793444 -3843.549434405649 0
          20350.391886119738 -5617.571720696626 0 7287.419110913028 -2222.099019673821 0
          14731.142740944499 -3552.877567341406 0 4234.679985500975 -1310.7630484228594 0
          9780.442417945334 -2177.346636036709 0
          <InformationKey name="L2_NORM_RANGE" location="vtkDataArray" length="2">
            <Value index="0">
              4432.9013466
            </Value>
            <Value index="1">
              70111.569695
            </Value>
          </InformationKey>
        </DataArray>
        <DataArray type="Float64" Name="Velocity" NumberOfComponents="3" format="ascii" RangeMin="0" RangeMax="3.9754006785657046">
          0 0 0 0 0 0
          0.06090468244074687 -0.11932783219677123 0 -0.08069730144166887 -0.12676554946768204 0
          0.17969308597451028 -0.556859977130026 0 -0.09807190806593535 -0.5869881208144756 0
          0.305478646776566 -1.1918390016623874 0 -0.05833990333613581 -1.246855438027353 0
          0.47516808116966214 -1.988077655229045 0 0.04229887616420547 -2.065707881600801 0
          0.6709059184338351 -2.8973274635776214 0 0.19445095056810696 -2.991943010686704 0
          0.883688453665127 -3.875939276098066 0
          <InformationKey name="L2_NORM_RANGE" location="vtkDataArray" length="2">
            <Value index="0">
              0
            </Value>
            <Value index="1">
              3.9754006786
            </Value>
          </InformationKey>
        </DataArray>
        <DataArray type="Float64" Name="Acceleration" NumberOfComponents="3" format="ascii" RangeMin="0" RangeMax="1157.584591455456">
          0 0 0 0 0 0
          37.921197350846796 -83.11840996724732 0 -55.271899342979395 -88.77392195705715 0
          101.4904575161645 -356.33674973089364 0 -51.00857633191163 -372.68057022379617 0
          133.8429955287629 -661.6462254972466 0 -11.622333328273271 -682.6367325485044 0
          156.86144435000188 -931.3624231370923 0 45.68101563763071 -948.4346028931395 0
          151.22514039814632 -1105.665441966652 0 98.82116822170639 -1111.5248010217329 0
          115.60603706265101 -1151.797434694905 0
          <InformationKey name="L2_NORM_RANGE" location="vtkDataArray" length="2">
            <Value index="0">
              0
            </Value>
            <Value index="1">
              1157.5845915
            </Value>
          </InformationKey>
        </DataArray>
        <DataArray type="Float64" Name="Sigma" NumberOfComponents="6" format="ascii" RangeMin="29117.970387970043" RangeMax="188955.96888422538">
          -113288.89141405135 113288.89141405298 0 69301.3897905435 0 0
          133544.1752912877 -133544.17529128824 0 -6022.015320127985 0 0
          -118856.3978712243 118856.39787122367 0 2981.807091819285 0 0
          112299.9083918789 -112299.90839187933 0 -6248.020467987252 0 0
          -93279.57601996812 93279.57601996817 0 16819.565323444756 0 0
          86870.62609781962 -86870.6260978199 0 5091.57686358399 0 0
          -70495.25360443858 70495.25360443925 0 2303.707844194808 0 0
          63216.24230887057 -63216.24230886986 0 9253.290893413003 0 0
          -50074.42603487033 50074.42603486967 0 2155.836589692648 0 0
          43650.06258358652 -43650.06258358462 0 8966.861709558369 0 0
          -33501.98117251366 33501.981172510896 0 830.0807412106609 0 0
          27971.5529584827 -27971.552958481137 0 7522.494757681552 0 0
          -20581.903752360566 20581.903752356626 0 791.6283041899406 0 0
          <InformationKey name="L2_NORM_RANGE" location="vtkDataArray" length="2">
            <Value index="0">
              29117.970388
            </Value>
            <Value index="1">
              188955.96888
            </Value>
          </InformationKey>
        </DataArray>
        <DataArray type="Float64" Name="Press" format="ascii" RangeMin="-137443.59357695197" RangeMax="127000.4237521972">
          -137443.59357695197 112683.33181997393 -128640.66069604909 127000.4237521972 -105422.93803688588 91246.8983206025
          -78569.91870976577 68967.03621015992 -55264.71809473653 47204.72443860028 -36832.577042340556 30807.859653162886
          -22572.691071829217
        </DataArray>
        <DataArray type="Float64" Name="Dev strain" NumberOfComponents="6" format="ascii" RangeMin="0" RangeMax="0">
          0 0 0 0 0 0
          0 0 0 0 0 0
          0 0 0 0 0 0
          0 0 0 0 0 0
          0 0 0 0 0 0
          0 0 0 0 0 0
          0 0 0 0 0 0
          0 0 0 0 0 0
          0 0 0 0 0 0
          0 0 0 0 0 0
          0 0 0 0 0 0
          0 0 0 0 0 0
          0 0 0 0 0 0
          <InformationKey name="L2_NORM_RANGE" location="vtkDataArray" length="2">
            <Value index="0">
              0
            </Value>
            <Value index="1">
              0
            </Value>
          </InformationKey>
        </DataArray>
        <DataArray type="Float64" Name="J2 Stresses" format="ascii" RangeMin="423771430.91435146" RangeMax="17843112921.359215">
          14035043574.550114 17843112921.359215 14129066108.305899 12621028864.766537 8771803746.882421 7552986717.36665
          4970907548.212009 4017699139.743324 2508610050.572031 1925429115.7805233 1122555000.9925995 796554756.7539952
          423771430.91435146
        </DataArray>
      </PointData>
      <CellData>
        <DataArray type="UInt8" Name="vtkGhostType" format="ascii" RangeMin="0" RangeMax="0">
          0 0 0 0 0 0
          0 0 0 0 0
        </DataArray>
        <DataArray type="Float64" Name="Gauss Stress" NumberOfComponents="6" format="ascii" RangeMin="18508.099626348972" RangeMax="88755.96353210647">
          79343.59356268813 -5314.8636452739665 0 -3096.0762320986514 0 0
          -84000.67881567172 -18266.602819679567 0 22087.06052074493 0 0
          72905.11416854808 2311.141855394246 0 5221.040573013831 0 0
          -68966.41349335047 -2409.0364938084394 0 4517.783982425599 0 0
          53745.21020774942 684.1336729153727 0 5549.525200397267 0 0
          -56550.0539842121 -5280.584966487217 0 8071.616677074518 0 0
          39232.97380387015 1371.7212321462807 0 6791.9963975546725 0 0
          -40740.34597492691 -2504.721087967783 0 4570.945109100154 0 0
          26433.213806326057 1020.1242266225814 0 5773.145736150193 0 0
          -28272.971774091435 -1655.4086915602927 0 3984.2596801538925 0 0
          -18236.58014246614 -828.3588315401684 0 3048.067934360717 0 0
          <InformationKey name="L2_NORM_RANGE" location="vtkDataArray" length="2">
            <Value index="0">
              18508.099626
            </Value>
            <Value index="1">
              88755.963532
            </Value>
          </InformationKey>
        </DataArray>
        <DataArray type="Float64" Name="Gauss Strain" NumberOfComponents="6" format="ascii" RangeMin="0" RangeMax="0">
          0 0 0 0 0 0
          0 0 0 0 0 0
          0 0 0 0 0 0
          0 0 0 0 0 0
          0 0 0 0 0 0
          0 0 0 0 0 0
          0 0 0 0 0 0
          0 0 0 0 0 0
          0 0 0 0 0 0
          0 0 0 0 0 0
          0 0 0 0 0 0
          <InformationKey name="L2_NORM_RANGE" location="vtkDataArray" length="2">
            <Value index="0">
              0
            </Value>
            <Value index="1">
              0
            </Value>
          </InformationKey>
        </DataArray>
      </CellData>
      <Points>
        <DataArray type="Float32" Name="Points" NumberOfComponents="3" format="ascii" RangeMin="0" RangeMax="0.6020797527609908">
          0 0.05000000074505806 0 0 0 0
          0.10000000149011612 0.05000000074505806 0 0.10000000149011612 0 0
          0.20000000298023224 0.05000000074505806 0 0.20000000298023224 0 0
          0.30000001192092896 0.05000000074505806 0 0.30000001192092896 0 0
          0.4000000059604645 0.05000000074505806 0 0.4000000059604645 0 0
          0.5 0.05000000074505806 0 0.5 0 0
          0.6000000238418579 0.05000000074505806 0
          <InformationKey name="L2_NORM_RANGE" location="vtkDataArray" length="2">
            <Value index="0">
              0
            </Value>
            <Value index="1">
              0.60207975276
            </Value>
          </InformationKey>
        </DataArray>
      </Points>
      <Cells>
        <DataArray type="Int64" Name="connectivity" format="ascii" RangeMin="0" RangeMax="12">
          3 2 1 2 0 1
          5 4 3 4 2 3
          7 6 5 6 4 5
          9 8 7 8 6 7
          11 10 9 10 8 9
          12 10 11
        </DataArray>
        <DataArray type="Int64" Name="offsets" format="ascii" RangeMin="3" RangeMax="33">
          3 6 9 12 15 18
          21 24 27 30 33
        </DataArray>
        <DataArray type="UInt8" Name="types" format="ascii" RangeMin="5" RangeMax="5">
          5 5 5 5 5 5
          5 5 5 5 5
        </DataArray>
      </Cells>
    </Piece>
  </UnstructuredGrid>
</VTKFile>
