<?xml version="1.0"?>
<VTKFile type="UnstructuredGrid" version="0.1" byte_order="LittleEndian" header_type="UInt32" compressor="vtkZLibDataCompressor">
  <UnstructuredGrid>
    <Piece NumberOfPoints="32" NumberOfCells="44">
      <PointData>
        <DataArray type="Float64" Name="proc" format="ascii" RangeMin="0" RangeMax="1">
          0 0 0 0 0 0
          0 0 0 0 0 0
          0 0 0 0 0 0
          0 0 0 0 0 0
          0 0 0 1 1 1
          1 1
        </DataArray>
        <DataArray type="Float64" Name="Displacement" NumberOfComponents="3" format="ascii" RangeMin="9.289038754257943e-11" RangeMax="9.625211329019024e-10">
          2.358397816043131e-10 0 0 -9.253660107848685e-11 -8.099478912348754e-12 0
          2.2755931209879585e-10 -4.224548552983834e-10 0 -1.7213855116926417e-10 -4.902900735745239e-10 0
          -4.102293966779049e-10 -1.0197648322786187e-11 0 2.91820624751205e-11 -7.002795230488684e-10 0
          -4.956894829430041e-10 -3.3074033955031443e-10 0 1.8678356032812188e-10 -7.937026508522379e-10 0
          -6.884344821229867e-11 -7.476384597248485e-10 0 6.678800683238312e-11 -8.580636116126858e-10 0
          -7.160766418988053e-10 -1.5209009808848427e-11 0 -2.2723613293295245e-10 -6.024074097196363e-10 0
          -2.333302279033127e-10 -4.3173515142222436e-10 0 1.2857090712228603e-10 -9.53895409950438e-10 0
          -5.388015391993027e-11 -6.969687414006494e-10 0 6.747159731972088e-11 -8.995863950642837e-10 0
          -4.2777431186774656e-10 -1.1816894496300706e-10 0 1.202085505861862e-10 -6.119118822137402e-10 0
          -3.248143767135886e-10 -2.1228923121882337e-10 0 1.2043272138725474e-10 -6.064386248620481e-10 0
          6.609029397289254e-11 -7.403775920821596e-10 0 1.461488513853227e-10 -9.458451148481096e-10 0
          1.2253026322554477e-10 -6.054440988370713e-10 0 1.2961885970257982e-10 -6.089683428094366e-10 0
          1.2266424713937235e-10 -5.957091326247506e-10 0 1.313980008409891e-10 -6.005720166759644e-10 0
          1.333240664995106e-10 -5.895378030787167e-10 0 1.226419520905636e-10 -5.833035397556801e-10 0
          1.4228448577050131e-10 -7.197533478229581e-10 0 1.9566530238653837e-10 -8.790479670906401e-10 0
          9.601437131501087e-11 -9.264448097162888e-10 0 1.3516972481953918e-10 -5.758941684967726e-10 0
          <InformationKey name="L2_NORM_RANGE" location="vtkDataArray" length="2">
            <Value index="0">
              9.2890387543e-11
            </Value>
            <Value index="1">
              9.625211329e-10
            </Value>
          </InformationKey>
        </DataArray>
        <DataArray type="Float64" Name="TopologicalDerivative1" format="ascii" RangeMin="-0.053570213044029744" RangeMax="0.47438862901643736">
          -0.028251372379992836 -0.0409277593962257 0.03592298138321704 -0.03450394331779587 -0.05052393080225848 0.16145889878046743
          -0.021477093836004227 0.47438862901643736 -0.041320865502814996 0.318593296622301 0.0017386358971929333 -0.011838960030370639
          0.03573168184388389 0.35997851340994386 -0.03277595490859468 0.1729150521012381 -0.013619126982941418 -0.014886876648457427
          0.02909858207241036 0.024862669343670547 -0.03704618700985319 0.15746790204544436 -0.04642197858950881 -0.05162651638576996
          -0.04744534975504219 -0.053469970143310605 -0.053468918745032755 -0.04732924874801564 -0.03861072207094663 0.1048626188433564
          0.1768963993400965 -0.053570213044029744
        </DataArray>
      </PointData>
      <CellData>
        <DataArray type="UInt8" Name="vtkGhostType" format="ascii" RangeMin="0" RangeMax="0">
          0 0 0 0 0 0
          0 0 0 0 0 0
          0 0 0 0 0 0
          0 0 0 0 0 0
          0 0 0 0 0 0
          0 0 0 0 0 0
          0 0 0 0 0 0
          0 0
        </DataArray>
        <DataArray type="Float64" Name="Stress" NumberOfComponents="6" format="ascii" RangeMin="5.701577803618359e-7" RangeMax="6.15293821591287">
          0.014513838867737317 -0.02114920026247543 0 0.011611071094189875 0 0
          -0.000022410148368043793 0.0000023421317807144313 0 7.507892990267228e-7 0 0
          1.5025844697971494e-7 -3.9094046241782856e-7 0 -3.868692911862017e-7 0 0
          -0.0000017458121467646718 -4.6001726944516876e-7 0 0.000001971967031352037 0 0
          0.0006368504810877005 0.002128194293512105 0 0.0002562168564321097 0 0
          -0.0003910126331711316 0.001744392228000579 0 0.000003281504978739417 0 0
          0.0005952683514971135 0.0019833360363713613 0 -0.00016187983846236112 0 0
          -1.2665109088424957 -1.2665109088425 0 1.266510908842502 0 0
          -0.00002038270834824737 0.0000032232843755466245 0 0.0000037664660177068813 0 0
          -0.00003194233346142096 -0.000013605939297060145 0 0.000014113219364589992 0 0
          0.0003727002275416874 0.0013352025973799677 0 0.0009041214395795504 0 0
          -0.020801083552275414 0.005661929466857234 0 0.007623170109379022 0 0
          -0.0010647922845769219 0.001249510300456505 0 0.0008208234635108367 0 0
          -0.0021134495181479598 -0.00011059256663897875 0 0.001826163568736005 0 0
          -4.096908349754743 -2.175798741204822 0 1.4415147223466893 0 0
          -0.5233601207027185 1.5792931722703594 0 -0.08775501874146013 0 0
          -2.0720313700749218 -0.07347266221571236 0 0.9391629301826689 0 0
          -5.6254964319113245 -0.9417708490040131 0 2.3077058416011926 0 0
          -0.20103475561055745 2.115005231247994 0 -0.16379766736129192 0 0
          -1.635798949880102 -0.4092422252686553 0 0.9755917645203009 0 0
          -0.1409104442127056 1.5128217132655255 0 -0.18623467246152509 0 0
          -0.8636019608556518 0.1179939917159975 0 0.049861213058278134 0 0
          -0.0034283455678017763 -0.0006896845589371883 0 0.0003596802141361917 0 0
          0.09110683957520349 2.0604617573719883 0 -0.3853792541703461 0 0
          -0.0014616489216726467 -0.00019817508994627133 0 0.0006477325030714503 0 0
          -0.00004808248771451929 0.000012404382862915039 0 0.00001898926211607421 0 0
          -0.0018385710391109708 0.0008056690301509862 0 0.0000542415422107941 0 0
          -0.9458033990294297 0.188528534613074 0 0.2023994356250382 0 0
          -0.8275307310583169 0.942977014688376 0 0.2836206950925801 0 0
          -0.5868717526082581 0.28359700651771236 0 0.25542404238746136 0 0
          -1.4697473411168462 0.43282469863251655 0 0.1510535221892665 0 0
          -0.4689738832568767 0.1264859566561321 0 0.2599948830123897 0 0
          0.524876743310075 -0.11321575821982915 0 -0.08849663385934968 0 0
          -0.6738448668675068 0.11120979821533059 0 0.05547661594116736 0 0
          0.3678182215957433 -0.07876331800908937 0 0.20287832728112423 0 0
          -0.17588491234308096 -0.010749769765686285 0 -0.028140351613946138 0 0
          -4.020296029074015 0.0566876363132629 0 1.648301524696066 0 0
          0.00009225250978626005 -0.0001821346918160578 0 0.0002150134749195611 0 0
          -0.5594441361096039 -0.026433760586111847 0 0.002607715508706546 0 0
          -0.000003888683178877133 -0.000026344637878912333 0 0.000010558582311234062 0 0
          -2.765214512534726 -0.6216530574561736 0 1.3399393405147668 0 0
          0.31805045089132583 0.018359023804947597 0 0.039127321149844 0 0
          -0.004334560687124304 0.017471325603421635 0 0.011400172918630625 0 0
          -0.000021654377873191162 0.000001645073223839033 0 -0.0000011233846791340622 0 0
          <InformationKey name="L2_NORM_RANGE" location="vtkDataArray" length="2">
            <Value index="0">
              5.7015778036e-07
            </Value>
            <Value index="1">
              6.1529382159
            </Value>
          </InformationKey>
        </DataArray>
        <DataArray type="Float64" Name="Strain" NumberOfComponents="6" format="ascii" RangeMin="4.701957914238623e-15" RangeMax="3.3619612655771605e-11">
          3.3121878022069104e-13 -4.0497394561743767e-13 0 4.79375077795337e-13 0 0
          -9.630328292607549e-14 3.77715678796982e-14 0 8.133550739456166e-15 0 0
          1.1147524404377647e-15 -1.816741652132262e-15 0 -4.191083987850519e-15 0 0
          -6.699195691379669e-15 2.6552656076763663e-16 0 2.1362976172980398e-14 0 0
          -6.699195691379669e-15 8.071413121607479e-12 0 2.775682611347855e-12 0 0
          -3.809709589880437e-12 7.757066741466324e-12 0 3.554963726967703e-14 0 0
          1.1147524404377647e-15 7.519814712175947e-12 0 -1.7536982500089123e-12 0 0
          -5.1479967577079e-12 -5.1479967577079315e-12 0 1.9121130814343752e-11 0 0
          -8.895705692046396e-14 3.8908737000086814e-14 0 4.0803381858491225e-14 0 0
          -1.1608563196792877e-13 -1.67634969109744e-14 0 1.5289320978305824e-13 0 0
          -1.1608563196792877e-13 5.097468871322756e-12 0 9.794648928778463e-12 0 0
          -4.593069157662535e-13 2.429719932983867e-13 0 4.046093756714892e-13 0 0
          -5.998522394641139e-12 6.537283274289924e-12 0 8.892254188034067e-12 0 0
          -8.667798950651109e-12 2.1810095366892054e-12 0 1.978343866130672e-11 0 0
          -1.612501898073709e-11 -4.432413083636862e-12 0 1.7547216950302087e-11 0 0
          -5.99852239464114e-12 1.0445030152861517e-11 0 -1.3725555866054577e-12 0 0
          -1.6095247639433074e-11 4.303630045419976e-12 0 1.9171685738935072e-11 0 0
          -2.226235490504216e-11 3.1078253357057655e-12 0 2.500014661734625e-11 0 0
          -3.6023347920911052e-12 9.378664989205672e-12 0 -1.8361146580011195e-12 0 0
          -1.3422667500502582e-11 7.229968946501688e-13 0 2.250265872041232e-11 0 0
          -3.809709589880437e-12 9.961144074720192e-12 0 -3.1016031346372957e-12 0 0
          -3.7458339932102114e-12 1.5711440832195544e-12 0 5.401631414646797e-13 0 0
          -1.3422667500502582e-11 1.4117462975139357e-12 0 3.896535653142077e-12 0 0
          -2.3187170997943155e-12 8.944913038120272e-12 0 -4.408315984664045e-12 0 0
          -5.842484977869854e-12 1.0013316106480111e-12 0 7.0171021166073775e-12 0 0
          -2.1584917738914082e-13 1.1178803823862844e-13 0 2.0571700625747062e-13 0 0
          -8.66779895065111e-12 5.655168091184489e-12 0 5.876167072836028e-13 0 0
          -6.36297268694926e-12 2.997957221747237e-12 0 3.340551163647005e-12 0 0
          -6.815752276600979e-12 7.31177665192711e-12 0 4.526226540691941e-12 0 0
          -2.866795642452057e-12 1.961076570503004e-12 0 2.8333116469367146e-12 0 0
          -6.815752276600977e-12 3.722977996968707e-12 0 1.6734318532664497e-12 0 0
          -2.112165292723819e-12 1.1132421734716463e-12 0 2.8166112326342223e-12 0 0
          2.328506128233433e-12 -1.1278282550535487e-12 0 -9.587135334762882e-13 0 0
          -2.9466991930504404e-12 1.3056802428149273e-12 0 6.009966726959797e-13 0 0
          1.6310300708269584e-12 -7.87953268699218e-13 0 2.1978485455455128e-12 0 0
          -7.872601725986492e-13 1.9157473586361341e-13 0 -3.336026246893307e-13 0 0
          -1.6822092999866643e-11 5.261568520981115e-12 0 1.785659985087405e-11 0 0
          1.754282322213832e-13 -2.5056807430311206e-13 0 6.676327877820121e-13 0 0
          -2.297975033057376e-12 5.891645010282054e-13 0 2.8250251344320915e-14 0 0
          1.6727950769985696e-14 -1.0490847052187164e-13 0 1.1438464170503562e-13 0 0
          -1.6453137904247738e-11 1.3265477032593777e-12 0 2.222814760084398e-11 0 0
          1.3022614322910064e-12 -3.210671310935422e-13 0 4.238793124566433e-13 0 0
          -1.6681229637370955e-13 3.270011450354044e-13 0 5.163338510160624e-13 0 0
          -9.228291600142862e-14 3.392244410748492e-14 0 -1.2170000690619005e-14 0 0
          <InformationKey name="L2_NORM_RANGE" location="vtkDataArray" length="2">
            <Value index="0">
              4.7019579142e-15
            </Value>
            <Value index="1">
              3.3619612656e-11
            </Value>
          </InformationKey>
        </DataArray>
      </CellData>
      <Points>
        <DataArray type="Float32" Name="Points" NumberOfComponents="3" format="ascii" RangeMin="92.44066980668491" RangeMax="215.40659228538016">
          200 0 0 200 20 0
          175 0 0 170.3333282470703 25.352571487426758 0
          200 40 0 157 13.358983993530273 0
          180 45.35898208618164 0 150 0 0
          150 28.038475036621094 0 142.39999389648438 13.887187004089355 0
          200 60 0 160 45.35898208618164 0
          171.6666717529297 62.23291015625 0 125 0 0
          140 45.35898208618164 0 130 28.038475036621094 0
          200 80 0 150 62.67949295043945 0
          180 80 0 160 80 0
          120 45.35898208618164 0 110.71759033203125 23.771137237548828 0
          130 62.67949295043945 0 140 80 0
          110 62.67949295043945 0 120 80 0
          100 80 0 90 62.67949295043945 0
          100 45.35898208618164 0 89.30555725097656 23.870376586914062 0
          100 0 0 80 80 0
          <InformationKey name="L2_NORM_RANGE" location="vtkDataArray" length="2">
            <Value index="0">
              92.440669807
            </Value>
            <Value index="1">
              215.40659229
            </Value>
          </InformationKey>
        </DataArray>
      </Points>
      <Cells>
        <DataArray type="Int64" Name="connectivity" format="ascii" RangeMin="0" RangeMax="31">
          0 1 2 25 26 24
          24 26 27 25 24 22
          22 24 20 20 24 28
          28 24 27 16 18 10
          25 22 23 23 22 17
          17 22 14 23 17 19
          14 22 20 17 14 11
          19 17 12 14 20 15
          17 11 12 19 12 18
          15 20 21 12 11 6
          21 20 28 15 21 13
          6 11 3 21 28 29
          3 11 8 6 3 1
          8 11 14 3 8 5
          8 14 15 5 8 9
          8 15 9 9 15 13
          9 13 7 9 7 5
          5 7 2 5 2 3
          18 12 10 4 10 6
          21 29 30 1 4 6
          12 6 10 30 13 21
          3 2 1 27 26 31
        </DataArray>
        <DataArray type="Int64" Name="offsets" format="ascii" RangeMin="3" RangeMax="132">
          3 6 9 12 15 18
          21 24 27 30 33 36
          39 42 45 48 51 54
          57 60 63 66 69 72
          75 78 81 84 87 90
          93 96 99 102 105 108
          111 114 117 120 123 126
          129 132
        </DataArray>
        <DataArray type="UInt8" Name="types" format="ascii" RangeMin="5" RangeMax="5">
          5 5 5 5 5 5
          5 5 5 5 5 5
          5 5 5 5 5 5
          5 5 5 5 5 5
          5 5 5 5 5 5
          5 5 5 5 5 5
          5 5 5 5 5 5
          5 5
        </DataArray>
      </Cells>
    </Piece>
  </UnstructuredGrid>
</VTKFile>
