<?xml version="1.0"?>
<VTKFile type="UnstructuredGrid" version="0.1" byte_order="LittleEndian" header_type="UInt32" compressor="vtkZLibDataCompressor">
  <UnstructuredGrid>
    <Piece NumberOfPoints="32" NumberOfCells="44">
      <PointData>
        <DataArray type="Float64" Name="proc" format="ascii" RangeMin="0" RangeMax="1">
          0 0 0 0 0 0
          0 0 0 0 0 0
          0 0 0 0 0 0
          0 0 0 0 0 0
          0 0 0 1 1 1
          1 1
        </DataArray>
        <DataArray type="Float64" Name="Displacement" NumberOfComponents="3" format="ascii" RangeMin="3.0077468573182413e-10" RangeMax="1.1199285296864995e-8">
          7.063112843185522e-9 0 0 5.228032763988939e-9 -3.051045717507204e-11 0
          7.03049589342532e-9 -2.342251306583275e-9 0 4.785735393732285e-9 -2.7571873898060193e-9 0
          3.6207582891755043e-9 -1.9136601077123267e-10 0 5.84597428905969e-9 -3.936351682133444e-9 0
          3.152461364556932e-9 -1.9267846630637677e-9 0 7.002290853348309e-9 -4.5456251113815844e-9 0
          4.5867763705492904e-9 -4.5446918933411304e-9 0 5.8010884048557894e-9 -5.198327546475171e-9 0
          1.90544574363935e-9 -2.2304534424280033e-10 0 3.1524423112328292e-9 -3.6306170997778597e-9 0
          1.715251372008945e-9 -2.6367176904932476e-9 0 6.972997594884338e-9 -6.676381979433625e-9 0
          3.1340480921731395e-9 -5.3979424523158555e-9 0 4.60061814418216e-9 -6.2511880927553715e-9 0
          2.017619940673328e-10 -2.2306391309902896e-10 0 1.6773120468133918e-9 -4.482449648127935e-9 0
          2.017805629235576e-10 -1.926816632708442e-9 0 2.018768537327739e-10 -3.6305340798806737e-9 0
          3.145901599896574e-9 -7.094495667246246e-9 0 4.964842430881072e-9 -7.881542979208952e-9 0
          1.7725524884324739e-9 -6.249266489215832e-9 0 2.0273940637792788e-10 -5.333960071817705e-9 0
          1.9066641712302743e-9 -7.951009473927334e-9 0 4.0204455503516336e-10 -7.066774987871605e-9 0
          6.398009556679229e-10 -8.743992574069282e-9 0 2.1149732921698513e-9 -9.641681697491736e-9 0
          3.163498310435812e-9 -8.775119910462e-9 0 4.9606227944917185e-9 -9.670066545842579e-9 0
          6.9527652836220116e-9 -8.779695101279826e-9 0 9.754631171687017e-10 -1.0432389735207673e-8 0
          <InformationKey name="L2_NORM_RANGE" location="vtkDataArray" length="2">
            <Value index="0">
              3.0077468573e-10
            </Value>
            <Value index="1">
              1.1199285297e-08
            </Value>
          </InformationKey>
        </DataArray>
        <DataArray type="Float64" Name="TopologicalDerivative1" format="ascii" RangeMin="-0.0011051579021763111" RangeMax="0.0009046320140753735">
          0.0009046320140753735 0.00009439690311487787 0.0004965981819522749 -0.00022267616071225394 -0.0010089249057984029 -0.00010619916641342229
          -0.0010492767255815844 0.000105828050230897 -0.00038539017961168164 -0.0005865164892987672 -0.001100006971319322 -0.0010839663263529427
          -0.001105084950223383 -0.0005618495080440364 -0.0008448680549970344 -0.0007993481896239191 -0.0011051579021763111 -0.0010676265918507673
          -0.0011051480129816594 -0.0011048325415513387 -0.0007720643589342662 -0.0007986876300964038 -0.0009435181495496015 -0.0009867086579996552
          -0.0007142573469606961 -0.000807882442195584 -0.00047922827554052274 0.00004445658898992932 -0.0005118947192129474 -0.0007686083626720966
          -0.0005536630616057942 0.0007671448291796212
        </DataArray>
      </PointData>
      <CellData>
        <DataArray type="UInt8" Name="vtkGhostType" format="ascii" RangeMin="0" RangeMax="0">
          0 0 0 0 0 0
          0 0 0 0 0 0
          0 0 0 0 0 0
          0 0 0 0 0 0
          0 0 0 0 0 0
          0 0 0 0 0 0
          0 0 0 0 0 0
          0 0
        </DataArray>
        <DataArray type="Float64" Name="Stress" NumberOfComponents="6" format="ascii" RangeMin="4.599977236964218e-7" RangeMax="2.7842628137906518">
          0.22339018886558104 -0.2991084294411902 0 0.1787121510924795 0 0
          -0.002926828971277838 -0.00024584054561574366 0 0.0003558518283416251 0 0
          -0.014969547183511667 -0.0001606329959262529 0 0.0029632373028788098 0 0
          -0.0016161020146526989 -0.000022539403596976934 0 0.00019286456459879141 0 0
          -0.0017942800590568168 -0.000616466218277369 0 0.0008924558981685995 0 0
          -0.00030605457856307315 -0.00031631350697406725 0 0.0011054614782052114 0 0
          -0.016146106112476966 -0.0065136401872705925 0 0.009424745386091156 0 0
          -3.183232495828968e-7 -3.1832324961809173e-7 0 3.183232495176199e-7 0 0
          -0.002404827062866631 -0.000043884263266018146 0 0.00016255287074592588 0 0
          -0.0011102063919872901 0.0001089296914723087 0 0.000042184279192284276 0 0
          -0.0011093549685429077 0.00011176776962025135 0 0.000644815579037877 0 0
          -0.00001044896109170041 -3.27764499509695e-7 0 0.000001099280933659112 0 0
          -0.00017023079003944272 -0.0000932956578607463 0 0.0005427225444523461 0 0
          0.0003879626215069661 0.0005574399759689503 0 0.0003443610080072206 0 0
          -0.0000010549659864339737 2.2157001303608714e-7 0 5.613231241404951e-7 0 0
          -0.00013361122022915667 0.00002876957484020712 0 0.00004591202219707299 0 0
          -9.630268717677791e-7 3.24283640254608e-7 0 0.000001702527239477793 0 0
          -0.000001185974662162098 -1.0161650522060921e-7 0 3.86444093142476e-7 0 0
          -0.00006162969015387408 0.000008622829493918102 0 0.000035431325349822956 0 0
          2.3777724791926725e-7 3.045786228094697e-8 0 0.00000172361071539486 0 0
          -0.0002062593309168674 0.000016337318513284977 0 0.000014021187247462388 0 0
          -0.00003781009254219439 0.000010372052027438611 0 -0.000004593963808971144 0 0
          0.00002747469337992598 0.00009082017830230332 0 0.0003280278931517982 0 0
          -0.000044071023085176246 0.000005182932679421366 0 -7.063847930994457e-7 0 0
          -0.000134337583667945 0.0004099754606757939 0 0.0005506718175621176 0 0
          -0.004283502502485784 -0.017653851863422707 0 0.022902518004151197 0 0
          0.0003814850844344456 0.0005358481857272151 0 0.00046374981886151566 0 0
          -0.0003947192721082399 0.000004250048745744957 0 0.00013028114800142513 0 0
          -0.00018254011711861133 -0.00005479611174725931 0 0.00009710083918276885 0 0
          -0.000025783868480121336 -0.00006235711176806164 0 0.000058616773998792544 0 0
          -0.00015363926785437994 0.00004154005246686599 0 -0.000010411497496760245 0 0
          0.00005644933026180518 0.00002158153748854443 0 0.000025984804433293494 0 0
          0.007077449817201362 -0.00003385749077204885 0 -0.0014555611026974198 0 0
          0.0007508967792044586 0.005965760546894414 0 -0.0005698099189041466 0 0
          0.22988851045070574 -0.05670135923212104 0 0.0830389983137513 0 0
          0.012967851966695355 -0.006412155284420117 0 -0.0008671103625149193 0 0
          -1.33947443686482e-7 -7.344664891213339e-8 0 4.3389120514170846e-7 0 0
          -0.000010859111158004404 -0.0003834097350062134 0 0.000053619946213542756 0 0
          -0.000040433855606187975 0.00001732526812892419 0 -0.0000011458500837248834 0 0
          -0.0011288187438984717 -0.015886305449499274 0 0.003161509651402424 0 0
          -4.860869354533684e-8 -4.4991663284106794e-7 0 0.000001389383359595314 0 0
          0.00020163698238960984 0.000024689314237587754 0 0.00001292804394360016 0 0
          -0.19234207133841486 0.04944868071506907 0 0.2361874808072701 0 0
          -2.7119820897348528 -0.3329392116599299 0 0.5351859887497843 0 0
          <InformationKey name="L2_NORM_RANGE" location="vtkDataArray" length="2">
            <Value index="0">
              4.599977237e-07
            </Value>
            <Value index="1">
              2.7842628138
            </Value>
          </InformationKey>
        </DataArray>
        <DataArray type="Float64" Name="Strain" NumberOfComponents="6" format="ascii" RangeMin="3.6900104679627534e-15" RangeMax="2.081812308128475e-11">
          1.3046779904080755e-12 -1.5255228587536019e-12 0 1.9360483035018613e-12 0 0
          -1.1887820031637976e-11 2.6342006073650318e-12 0 3.855061473700937e-12 0 0
          -1.0415456046978846e-11 3.0226025320961772e-12 0 5.377863083732055e-12 0 0
          -6.705584139890025e-12 1.926213336661803e-12 0 2.089366116486907e-12 0 0
          -6.705584139890025e-12 -3.2575916900134996e-13 0 9.668272230159827e-12 0 0
          -8.798355269618871e-13 -9.354047225214387e-13 0 1.1975832680556456e-11 0 0
          -1.0415456046978846e-11 -1.2254649300694963e-12 0 1.7983624764383358e-11 0 0
          -9.284428112394547e-16 -9.284428114300944e-16 0 3.448501869774215e-15 0 0
          -9.965257432861774e-12 2.8231827316415463e-12 0 1.7609894330808633e-12 0 0
          -4.7620220809540944e-12 1.841631704452065e-12 0 4.56996357916413e-13 0 0
          -4.7620220809540944e-12 1.852392750763014e-12 0 6.985502106243667e-12 0 0
          -4.312763225769791e-14 1.1695515950001782e-14 0 1.1908876781307045e-14 0 0
          -5.926753861717451e-13 -1.7594342020380614e-13 0 5.87949423156708e-12 0 0
          9.19710952984504e-13 1.8377132896535846e-12 0 3.730577586744888e-12 0 0
          -4.6726541264366655e-15 2.2419158706928304e-15 0 6.081000511522029e-15 0 0
          -5.926753861717451e-13 2.8688725378730887e-13 0 4.97380240468291e-13 0 0
          -4.4179665160173396e-15 2.554965424103924e-15 0 1.844404509434276e-14 0 0
          -4.8145404608163135e-15 1.059066222616751e-15 0 4.1864776757101576e-15 0 0
          -2.675689125085396e-13 1.1296556891700136e-13 0 3.838393579564153e-13 0 0
          9.526662051457628e-16 -1.7031380039513831e-16 0 1.867244941677765e-14 0 0
          -8.798355269618871e-13 3.2589632411810506e-13 0 1.5189619518084254e-13 0 0
          -1.7050711729344157e-13 9.047949912540387e-14 0 -4.9767941263854066e-14 0 0
          9.526662051457628e-16 3.4407404286802294e-13 0 3.55363550914448e-12 0 0
          -1.9010792870417764e-13 7.668433168739266e-14 0 -7.652501925243996e-15 0 0
          -1.0722092577945131e-12 1.8761530657340722e-12 0 5.96561135692294e-12 0 0
          1.6515405891512997e-13 -2.6695954017727987e-12 0 9.711474069681859e-12 0 0
          9.19710952984504e-13 1.7558444183203385e-12 0 5.023956370999754e-12 0 0
          -1.6499761947165143e-12 5.111076265759039e-13 0 1.4113791033487723e-12 0 0
          -6.92088681643473e-13 -1.4198588198299646e-16 0 1.051925757813329e-12 0 0
          -2.948639562376184e-14 -2.2759146343343846e-13 0 6.35015051653586e-13 0 0
          -6.920886816434986e-13 3.6513263676324985e-13 0 -1.1279122288156931e-13 0 0
          2.0822862089684103e-13 1.936141004167863e-14 0 2.8150204802734623e-13 0 0
          1.1717303385588834e-12 -3.5661269414067777e-13 0 -6.256505516170866e-13 0 0
          -5.6055672756023364e-14 3.097587523899136e-13 0 -7.99425247569636e-14 0 0
          1.1282016030804425e-12 -5.742379967095222e-13 0 9.865588006490059e-13 0 0
          1.090068219786238e-13 -7.541510781460233e-14 0 -1.6503003773592598e-14 0 0
          -4.66306037553508e-16 -1.3859339919245328e-16 0 4.700488055701843e-15 0 0
          4.340158722660818e-13 -1.583966673578384e-12 0 5.808827506467133e-13 0 0
          -1.9013098352027174e-13 1.2273093671158576e-13 0 -1.2413375907019567e-14 0 0
          1.881451549231863e-12 -8.042777679808031e-12 0 4.25215310930037e-12 0 0
          3.5985956794576466e-16 -1.8138917699061118e-15 0 1.505165306228257e-14 0 0
          8.092924504930565e-13 -1.4917408533039673e-13 0 1.4005380938900176e-13 0 0
          -1.1027538404787373e-12 5.7034176075086e-13 0 3.2686463965067898e-12 0 0
          -1.678310807503894e-11 3.0882779272079893e-12 0 8.940475569777625e-12 0 0
          <InformationKey name="L2_NORM_RANGE" location="vtkDataArray" length="2">
            <Value index="0">
              3.690010468e-15
            </Value>
            <Value index="1">
              2.0818123081e-11
            </Value>
          </InformationKey>
        </DataArray>
      </CellData>
      <Points>
        <DataArray type="Float32" Name="Points" NumberOfComponents="3" format="ascii" RangeMin="92.44066980668491" RangeMax="215.40659228538016">
          200 0 0 200 20 0
          175 0 0 170.3333282470703 25.352571487426758 0
          200 40 0 157 13.358983993530273 0
          180 45.35898208618164 0 150 0 0
          150 28.038475036621094 0 142.39999389648438 13.887187004089355 0
          200 60 0 160 45.35898208618164 0
          171.6666717529297 62.23291015625 0 125 0 0
          140 45.35898208618164 0 130 28.038475036621094 0
          200 80 0 150 62.67949295043945 0
          180 80 0 160 80 0
          120 45.35898208618164 0 110.71759033203125 23.771137237548828 0
          130 62.67949295043945 0 140 80 0
          110 62.67949295043945 0 120 80 0
          100 80 0 90 62.67949295043945 0
          100 45.35898208618164 0 89.30555725097656 23.870376586914062 0
          100 0 0 80 80 0
          <InformationKey name="L2_NORM_RANGE" location="vtkDataArray" length="2">
            <Value index="0">
              92.440669807
            </Value>
            <Value index="1">
              215.40659229
            </Value>
          </InformationKey>
        </DataArray>
      </Points>
      <Cells>
        <DataArray type="Int64" Name="connectivity" format="ascii" RangeMin="0" RangeMax="31">
          0 1 2 25 26 24
          24 26 27 25 24 22
          22 24 20 20 24 28
          28 24 27 16 18 10
          25 22 23 23 22 17
          17 22 14 23 17 19
          14 22 20 17 14 11
          19 17 12 14 20 15
          17 11 12 19 12 18
          15 20 21 12 11 6
          21 20 28 15 21 13
          6 11 3 21 28 29
          3 11 8 6 3 1
          8 11 14 3 8 5
          8 14 15 5 8 9
          8 15 9 9 15 13
          9 13 7 9 7 5
          5 7 2 5 2 3
          18 12 10 4 10 6
          21 29 30 1 4 6
          12 6 10 30 13 21
          3 2 1 27 26 31
        </DataArray>
        <DataArray type="Int64" Name="offsets" format="ascii" RangeMin="3" RangeMax="132">
          3 6 9 12 15 18
          21 24 27 30 33 36
          39 42 45 48 51 54
          57 60 63 66 69 72
          75 78 81 84 87 90
          93 96 99 102 105 108
          111 114 117 120 123 126
          129 132
        </DataArray>
        <DataArray type="UInt8" Name="types" format="ascii" RangeMin="5" RangeMax="5">
          5 5 5 5 5 5
          5 5 5 5 5 5
          5 5 5 5 5 5
          5 5 5 5 5 5
          5 5 5 5 5 5
          5 5 5 5 5 5
          5 5 5 5 5 5
          5 5
        </DataArray>
      </Cells>
    </Piece>
  </UnstructuredGrid>
</VTKFile>
