<?xml version="1.0"?>
<VTKFile type="UnstructuredGrid" version="0.1" byte_order="LittleEndian" header_type="UInt32" compressor="vtkZLibDataCompressor">
  <UnstructuredGrid>
    <Piece NumberOfPoints="44" NumberOfCells="66">
      <PointData>
        <DataArray type="Float64" Name="ale_BC" NumberOfComponents="3" format="ascii" RangeMin="0" RangeMax="0">
          0 0 0 0 0 0
          0 0 0 0 0 0
          0 0 0 0 0 0
          0 0 0 0 0 0
          0 0 0 0 0 0
          0 0 0 0 0 0
          0 0 0 0 0 0
          0 0 0 0 0 0
          0 0 0 0 0 0
          0 0 0 0 0 0
          0 0 0 0 0 0
          0 0 0 0 0 0
          0 0 0 0 0 0
          0 0 0 0 0 0
          0 0 0 0 0 0
          0 0 0 0 0 0
          0 0 0 0 0 0
          0 0 0 0 0 0
          0 0 0 0 0 0
          0 0 0 0 0 0
          0 0 0 0 0 0
          0 0 0 0 0 0
          <InformationKey name="L2_NORM_RANGE" location="vtkDataArray" length="2">
            <Value index="0">
              0
            </Value>
            <Value index="1">
              0
            </Value>
          </InformationKey>
        </DataArray>
        <DataArray type="Float64" Name="ale_FIXNO" NumberOfComponents="3" format="ascii" RangeMin="1" RangeMax="1.4142135623730951">
          1 1 0 0 1 0
          1 0 0 -1 -1 0
          -1 -1 0 0 1 0
          1 0 0 -1 -1 0
          -1 -1 0 -1 -1 0
          -1 -1 0 -1 -1 0
          0 1 0 1 0 0
          -1 -1 0 -1 -1 0
          -1 -1 0 -1 -1 0
          -1 -1 0 -1 -1 0
          0 1 0 1 0 0
          -1 -1 0 -1 -1 0
          -1 -1 0 -1 -1 0
          -1 -1 0 1 1 0
          1 1 0 -1 -1 0
          1 0 0 0 1 0
          -1 -1 0 1 0 0
          0 1 0 -1 -1 0
          -1 -1 0 -1 -1 0
          1 0 0 0 1 0
          -1 -1 0 1 0 0
          0 1 0 1 1 0
          <InformationKey name="L2_NORM_RANGE" location="vtkDataArray" length="2">
            <Value index="0">
              1
            </Value>
            <Value index="1">
              1.4142135624
            </Value>
          </InformationKey>
        </DataArray>
        <DataArray type="Float64" Name="nsi_BC" NumberOfComponents="3" format="ascii" RangeMin="0" RangeMax="0">
          0 0 0 0 0 0
          0 0 0 0 0 0
          0 0 0 0 0 0
          0 0 0 0 0 0
          0 0 0 0 0 0
          0 0 0 0 0 0
          0 0 0 0 0 0
          0 0 0 0 0 0
          0 0 0 0 0 0
          0 0 0 0 0 0
          0 0 0 0 0 0
          0 0 0 0 0 0
          0 0 0 0 0 0
          0 0 0 0 0 0
          0 0 0 0 0 0
          0 0 0 0 0 0
          0 0 0 0 0 0
          0 0 0 0 0 0
          0 0 0 0 0 0
          0 0 0 0 0 0
          0 0 0 0 0 0
          0 0 0 0 0 0
          <InformationKey name="L2_NORM_RANGE" location="vtkDataArray" length="2">
            <Value index="0">
              0
            </Value>
            <Value index="1">
              0
            </Value>
          </InformationKey>
        </DataArray>
        <DataArray type="Float64" Name="nsi_FIXNO" NumberOfComponents="3" format="ascii" RangeMin="1" RangeMax="1.4142135623730951">
          1 1 0 0 1 0
          1 0 0 -1 -1 0
          -1 -1 0 0 1 0
          1 0 0 -1 -1 0
          -1 -1 0 -1 -1 0
          -1 -1 0 -1 -1 0
          0 1 0 1 0 0
          -1 -1 0 -1 -1 0
          -1 -1 0 -1 -1 0
          -1 -1 0 -1 -1 0
          0 1 0 1 0 0
          -1 -1 0 -1 -1 0
          -1 -1 0 -1 -1 0
          -1 -1 0 1 1 0
          1 1 0 -1 -1 0
          1 0 0 0 1 0
          -1 -1 0 1 0 0
          0 1 0 -1 -1 0
          -1 -1 0 -1 -1 0
          1 0 0 0 1 0
          -1 -1 0 1 0 0
          0 1 0 1 1 0
          <InformationKey name="L2_NORM_RANGE" location="vtkDataArray" length="2">
            <Value index="0">
              1
            </Value>
            <Value index="1">
              1.4142135624
            </Value>
          </InformationKey>
        </DataArray>
        <DataArray type="Float64" Name="lev_BC" format="ascii" RangeMin="-0.5" RangeMax="0.5">
          -0.5 -0.3 -0.5 -0.32499 -0.35371 -0.25
          -0.5 -0.198092 -0.109713 -0.357575 -0.207421 -0.006945
          -0.25 -0.5 -0.059263 -0.216878 0.02803 -0.061131
          0.142998 -0.351371 -0.25 -0.5 0.030858 0.192875
          -0.104258 0.199684 0.083861 -0.5 -0.25 0.222426
          -0.048337 -0.280888 0.341722 0.153327 -0.061777 0.146545
          0.227286 0.363955 0.354826 0.155833 0.392298 0.5
          0.37 0.5
        </DataArray>
        <DataArray type="Float64" Name="lev_FIXNO" format="ascii" RangeMin="0" RangeMax="0">
          0 0 0 0 0 0
          0 0 0 0 0 0
          0 0 0 0 0 0
          0 0 0 0 0 0
          0 0 0 0 0 0
          0 0 0 0 0 0
          0 0 0 0 0 0
          0 0
        </DataArray>
        <DataArray type="Float64" Name="P_Hydro" format="ascii" RangeMin="-3893.607513120077" RangeMax="5809.853837743612">
          -3893.607513120077 -3599.6201985898792 -2075.7295858050697 -2283.209111772173 -1307.5844015923901 -2578.7264983999576
          -1178.642277176109 -1100.9638981175276 -1504.3754597682587 -578.5820573894313 -406.4223607207706 -2.216746388583279
          -267.95541235448985 -390.1103226160346 210.20243019289197 -524.9026842738689 54.9222054228029 -457.94166079343915
          -99.4974842321935 8.265294483221771 5809.853837743612 386.59498346137906 -717.121878900371 466.1519511014039
          -1488.1626360757862 143.18439449563888 726.3325115401973 1787.605354631601 5809.853837023546 1151.6204137440964
          275.9510728853504 1111.5422511385989 915.3046814129796 154.2143776342206 -1149.8356560361942 1866.6812914344023
          2124.809355074297 1692.5177243745718 978.3422401084911 2900.470074414232 2717.040378585636 2147.075093439207
          3714.888056810625 3806.1659771896702
        </DataArray>
        <DataArray type="Float64" Name="Velocity" NumberOfComponents="3" format="ascii" RangeMin="0" RangeMax="0.47325259291694693">
          0 0 0 -0.009497532986693782 0 0
          0 -0.1739717653050507 0 -0.013958133572378361 -0.13747056888653902 0
          -0.03056693000531335 -0.24665607102623496 0 -0.007037993100370361 0 0
          0 -0.24890908277587648 0 -0.0265081667995964 -0.24001833943668197 0
          -0.007991159876587757 -0.11569122807341037 0 -0.049900437894967765 -0.30718581225044783 0
          -0.09050907986577512 -0.42411027774956106 0 0.010252079616583549 -0.29642505326312957 0
          -0.0005349574345163853 0 0 0 -0.26151502014479777 0
          0.005872578517315176 -0.21466904333898867 0 -0.1323152212644135 -0.32964586810068863 0
          -0.06778138960162029 -0.2808931011116091 0 -0.16335619447110802 -0.3405293940065771 0
          -0.027569214758129408 -0.25129082108284145 0 -0.08177737297158388 -0.21405638837539426 0
          -0.0034863912789715834 0 0 0 -0.16847949878863344 0
          -0.03081083265567767 -0.2427043298004106 0 -0.048513821365213074 -0.2076653122507632 0
          -0.3576841984783139 -0.3098871260016131 0 -0.03479583221317437 -0.23304561553494113 0
          -0.17445253228249943 -0.23046852475744994 0 0 0 0
          0 0 0 -0.08532240812307895 -0.16857990777028128 0
          0 -0.17903727719094203 0 -0.18661377957122918 0 0
          -0.03514387639958276 -0.17404104262806308 0 0 -0.24995186539917416 0
          -0.39054828623801435 0 0 -0.19920982590201153 -0.13235425273211499 0
          -0.13866589312651598 -0.11654076808237748 0 -0.07416603302105662 -0.12901915709211154 0
          0 -0.17422903144942128 0 -0.22575663973953142 0 0
          -0.09841761302533121 -0.08992993822358651 0 0 -0.09807372376252058 0
          -0.07674879581993597 0 0 0 0 0
          <InformationKey name="L2_NORM_RANGE" location="vtkDataArray" length="2">
            <Value index="0">
              0
            </Value>
            <Value index="1">
              0.47325259292
            </Value>
          </InformationKey>
        </DataArray>
        <DataArray type="Float64" Name="Pressure" format="ascii" RangeMin="-3313.8006640953604" RangeMax="3279.581035407377">
          -3313.8006640953604 -3150.8706080503785 -1302.419673874534 -1687.6023987249305 -851.0705100309875 -2391.8021388247057
          -1032.5830807734292 -685.4540107145197 -1266.651848266327 -660.6316623248669 -475.28203034265283 -130.60168106337738
          -1010.475148946507 -669.2308462379981 -75.26679179240944 -956.2677287454453 24.91963698253639 -215.5271640637511
          43.424875247130004 -474.6655134648976 1860.8359430430892 -53.92866104049389 -107.54993498381698 360.9311625687554
          -677.0850203749652 245.20965395060986 431.0410724917239 1487.9903296317766 1737.3748373067228 820.4763383086346
          71.99770311079482 1261.0360128844038 731.4863246138281 306.76818457844024 -170.09178546045644 1054.9653308454988
          1493.2404840495294 1344.7147945120007 917.835984907874 1424.866250070785 2209.4524151421815 1920.3405840427354
          2859.2123073151934 3279.581035407377
        </DataArray>
        <DataArray type="Float64" Name="Proj_residual_U" NumberOfComponents="3" format="ascii" RangeMin="36.80386851583518" RangeMax="10293.080788301539">
          667.8140744984892 800.8465951111705 0 2469.229711673741 1084.9140004197238 0
          741.6565289477427 5341.807622478129 0 1457.5491201124228 2558.050792552671 0
          1405.949232272548 7231.22221326536 0 5350.84576092692 1860.6614352438485 0
          1165.8418292415654 8167.2093609737985 0 2293.7594790113994 6218.100033127049 0
          3807.4224529793746 3664.738971146243 0 508.1777819540578 9157.8670855896 0
          1384.439865883114 6762.2762630804755 0 1797.9008973340688 5480.734947308379 0
          8578.558487359758 4983.253649751932 0 -229.54997421439177 7947.546715066569 0
          3970.9036789410193 4428.828976836442 0 696.8401433958861 10269.465708061653 0
          1182.197325456428 5781.258199316215 0 2191.2654251654167 5702.887864098602 0
          599.4814190993961 8362.629209743276 0 -1396.9473232155444 4941.584995100963 0
          3858.7215818247273 1835.8882606276213 0 -1579.7375841264593 4318.7137901151655 0
          285.73864680274284 4230.594876395421 0 1688.9132754286748 7857.855823157255 0
          130.45519581013528 4628.368376568852 0 900.2603563294728 7554.314701336743 0
          3448.7465085788854 7237.195374047128 0 -1038.1992088330514 1900.0196733792734 0
          -3.7712739528334467 36.61013835679351 0 2770.2333389692308 6368.410560669453 0
          412.2233126514269 2928.3850830538427 0 -2948.64532241857 2901.509586294124 0
          1464.4028567529583 6677.512782516192 0 1075.593985643949 7534.081476165589 0
          -2032.7130303714498 4347.097649120159 0 5973.843951582808 7101.080430685066 0
          4025.125332694307 5276.06776986215 0 2452.9397125423598 4976.511478773623 0
          1647.5972378776949 5774.771002000049 0 5833.979991953126 6764.292499302732 0
          3085.771487727591 3612.5976863602136 0 2224.0101864128524 3924.774820610105 0
          5073.374169756865 5156.625185689148 0 2836.295877207397 3166.2135452283896 0
          <InformationKey name="L2_NORM_RANGE" location="vtkDataArray" length="2">
            <Value index="0">
              36.803868516
            </Value>
            <Value index="1">
              10293.080788
            </Value>
          </InformationKey>
        </DataArray>
        <DataArray type="Float64" Name="Proj_residual_P" format="ascii" RangeMin="-2.158669680037519" RangeMax="1.062172231643318">
          0.7398968175826114 0.8181542356071184 0.38935343985691956 0.7159287128334931 0.44275737859471187 0.8470841206648073
          -0.12589327487070853 0.9504998305121598 0.9342385288371902 -0.3939680070718812 0.14142454948279579 0.5479985298623672
          1.062172231643318 -0.721961734303941 0.5495258507874883 -0.9680409083576066 0.07049428849084766 -0.19672655188064087
          -0.05200302060384252 -1.472484512903304 0.299360362810728 -1.2207638631258038 0.10422827077345097 0.02408443542182052
          -1.0233606703586444 -0.11890789079751658 0.2601356047661451 -1.6509965472234585 0.002057023763772064 0.07481135721965582
          0.16954255159841833 -2.158669680037519 -0.15296152595199455 0.08214080923769643 -1.4163049889061368 -0.08457733567602987
          -0.056876789595371305 0.019783591362845052 -0.04057177801812775 -0.5098657474903675 0.020601831317555233 0.3090289770426697
          -0.3336517680014467 0.16453721527584986
        </DataArray>
        <DataArray type="Float64" Name="ALEdispl" NumberOfComponents="3" format="ascii" RangeMin="0" RangeMax="0">
          0 0 0 0 0 0
          0 0 0 0 0 0
          0 0 0 0 0 0
          0 0 0 0 0 0
          0 0 0 0 0 0
          0 0 0 0 0 0
          0 0 0 0 0 0
          0 0 0 0 0 0
          0 0 0 0 0 0
          0 0 0 0 0 0
          0 0 0 0 0 0
          0 0 0 0 0 0
          0 0 0 0 0 0
          0 0 0 0 0 0
          0 0 0 0 0 0
          0 0 0 0 0 0
          0 0 0 0 0 0
          0 0 0 0 0 0
          0 0 0 0 0 0
          0 0 0 0 0 0
          0 0 0 0 0 0
          0 0 0 0 0 0
          <InformationKey name="L2_NORM_RANGE" location="vtkDataArray" length="2">
            <Value index="0">
              0
            </Value>
            <Value index="1">
              0
            </Value>
          </InformationKey>
        </DataArray>
        <DataArray type="Float64" Name="ALEveloc" NumberOfComponents="3" format="ascii" RangeMin="0" RangeMax="0.36092752031497477">
          0 0 0 -0.0002234689176706242 0 0
          0 -0.10816322399579052 0 -0.0004594194192373187 -0.08623811433214118 0
          -0.007689065520516121 -0.16412414106459655 0 -0.000660949719108879 0 0
          0 -0.16324261312712243 0 0.002687140360439465 -0.16481890228231236 0
          0.002323737296564321 -0.08232606784475374 0 -0.02270371689052715 -0.20605972284114984 0
          -0.011251446939224079 -0.3005276928450211 0 0.030903861791894707 -0.19423882682460464 0
          -0.01356580681284777 0 0 0 -0.17356378752437032 0
          -0.011029552521829427 -0.13334927796752996 0 -0.09156301767136636 -0.22278871665863428 0
          -0.047265425976537635 -0.1831293795075211 0 -0.11052029478449436 -0.23655386910159037 0
          -0.021990932886936407 -0.16155703932087992 0 -0.07698484052759742 -0.1371962952549976 0
          -0.036738694806513685 0 0 0 -0.1087523213361048 0
          -0.03749982091180851 -0.17896108395047264 0 -0.05514493408742811 -0.1524336609836332 0
          -0.28233138454653833 -0.22485031514487863 0 -0.03071646704302615 -0.16071303398327805 0
          -0.14372740771261647 -0.14907999278969777 0 0 0 0
          0 0 0 -0.08872466323999159 -0.12279198611962426 0
          0 -0.14334171716691055 0 -0.1504583913360246 0 0
          -0.037402816662388955 -0.1313707518192374 0 0 -0.17893525989537157 0
          -0.32655276956401286 0 0 -0.1696682154267876 -0.08367912028465445 0
          -0.12385671724878501 -0.07331820478516944 0 -0.04566420569077594 -0.09600687303034955 0
          0 -0.131477387893626 0 -0.19461548445216567 0 0
          -0.04636376727078424 -0.047728959604314086 0 0 -0.07488436721025972 0
          -0.06140028224624826 0 0 0 0 0
          <InformationKey name="L2_NORM_RANGE" location="vtkDataArray" length="2">
            <Value index="0">
              0
            </Value>
            <Value index="1">
              0.36092752031
            </Value>
          </InformationKey>
        </DataArray>
        <DataArray type="Float64" Name="LEVEL" format="ascii" RangeMin="-0.544239003442535" RangeMax="0.5454094195887191">
          -0.544239003442535 -0.441149541327981 -0.4084197672294318 -0.31303329033243904 -0.3008199447400074 -0.33712689749981145
          -0.496819524486601 -0.14043903138100355 -0.21813824278628055 -0.3573885053599909 -0.20351597891798204 -0.010823228971796805
          -0.23419519673746747 -0.5033111615175997 -0.0614626470619125 -0.2153566569553411 0.030240231686880517 -0.059873767483534214
          0.13591396818211338 -0.3488907727774694 -0.2501321184223866 -0.49892222875226405 0.025294294760950638 0.2613158371666528
          -0.09509091004901145 0.27737279778862395 0.08836594879895183 -0.5003887222569815 -0.25021905319765486 0.2267632111386585
          -0.05321986967003942 -0.2765662753087804 0.4113076175919263 0.14728075920363187 -0.05231025459309189 0.1501113396325713
          0.2271773081209471 0.3708219984578299 0.5454094195887191 0.1594224428014205 0.39094459045421714 0.502806503442839
          0.3738541782400027 0.4999560917983107
        </DataArray>
      </PointData>
      <CellData>
        <DataArray type="UInt8" Name="vtkGhostType" format="ascii" RangeMin="0" RangeMax="0">
          0 0 0 0 0 0
          0 0 0 0 0 0
          0 0 0 0 0 0
          0 0 0 0 0 0
          0 0 0 0 0 0
          0 0 0 0 0 0
          0 0 0 0 0 0
          0 0 0 0 0 0
          0 0 0 0 0 0
          0 0 0 0 0 0
          0 0 0 0 0 0
        </DataArray>
        <DataArray type="Float64" Name="Residual_U" NumberOfComponents="3" format="ascii" RangeMin="835.0603742463522" RangeMax="18167.93036377692">
          6016.582082854155 5883.212383510683 0 5675.6884613361035 7955.404415125122 0
          5383.413581645648 10967.591275891951 0 1382.5364069135073 8394.472084060802 0
          2144.0644703943804 8744.337403866728 0 955.4997376280244 7943.922411091573 0
          435.4963385246813 9049.450601203214 0 1645.9241704093765 8782.7955171104 0
          -24.616650466331222 13043.168984407836 0 -2116.2386212832116 6690.631165955851 0
          -1041.4786060374818 1942.2378393309668 0 -2688.26197475175 8977.49123391717 0
          -1183.5362738123818 7476.931114524103 0 4476.835376825119 11192.240655535592 0
          4332.674663781461 12750.361325485439 0 -1029.1897171673654 1922.4438808509003 0
          7266.256333991545 8867.757086453843 0 -6476.070274020896 5782.037904167587 0
          6004.562115788638 7147.778812056756 0 -1981.1091093924815 1676.8180018968956 0
          6675.057845771347 7162.585233894086 0 6332.982875640975 8242.18581385494 0
          3224.598744611373 3549.0011613526913 0 2539.9997775028696 2909.3946572865307 0
          3842.916342221035 3440.129061011532 0 1814.2241081316938 3848.9294257105958 0
          2202.774571053813 4767.986972007377 0 3891.4982174518827 4279.373610598945 0
          2662.198949067723 5648.046331730804 0 2684.736183785856 5730.881428525077 0
          1397.186586059537 5521.71193015316 0 1482.428304308695 7161.062492771001 0
          3664.9586710920767 5679.354744888117 0 3279.6221426601114 7498.66594027222 0
          1342.7448516158984 6797.007317969788 0 1533.439943732669 7276.542457941356 0
          922.1424209554875 7114.23582724677 0 725.4526146806414 8048.974258788177 0
          613.4969287673492 7744.521027516586 0 1505.2730162274934 8199.87423558057 0
          773.7071377678068 7749.88183409954 0 -574.9023449255697 9110.50200178755 0
          723.3819975199376 9072.143282431976 0 1570.184871602999 8487.541190207 0
          3517.2287402307747 16658.921488693086 0 868.0766274056988 9356.783998227766 0
          4490.752517980203 5924.920712895151 0 2027.1964106593546 9318.693210925301 0
          4369.73239107631 5422.977253511449 0 1934.2748324735148 4700.556412669474 0
          3639.663565090309 8949.161893992052 0 2084.8369154020274 10218.588811089474 0
          2500.3345765431823 4347.084020066415 0 2620.8027430144193 8469.714306580077 0
          -882.043900984919 5351.75415782345 0 1474.9586086292102 8542.148439897288 0
          2906.6066361093594 4759.363190052317 0 2956.701601376542 611.4582830573945 0
          814.4350931108227 940.2235279347399 0 540.3889657766995 636.6361553534696 0
          -620.917736728339 16803.580659687213 0 6906.5149030560115 1872.1396454862474 0
          3795.158524188537 1830.8395563416266 0 14357.206484865033 6714.999510252583 0
          1305.0167657927068 8630.337994829704 0 -2277.6428473899246 18024.595328682997 0
          <InformationKey name="L2_NORM_RANGE" location="vtkDataArray" length="2">
            <Value index="0">
              835.06037425
            </Value>
            <Value index="1">
              18167.930364
            </Value>
          </InformationKey>
        </DataArray>
        <DataArray type="Float64" Name="Residual_P" format="ascii" RangeMin="-2.5399348702535667" RangeMax="1.2363838040202237">
          0.11303173578683867 0.10699351687683589 0.41269349806535544 0.033930776672636276 0.2057543448439289 -0.28571732641405345
          -0.820571070806116 0.0227935188481444 -0.9712587233170364 -1.0273177671451141 -1.4142099591064938 -0.9199120155793545
          -1.4308610693448325 -0.49869542530573374 -0.8578894948749365 -1.7879970050288851 -0.85192161838299 -2.5399348702535667
          -0.39702039283092627 -2.2046445443860816 -0.4510399931328718 0.35330664309484827 -0.19099222179270103 0.41548725309282203
          -0.5746930093592977 0.41099537550835763 0.16123420243600695 0.004385733106105849 -0.15995977167694153 -0.1429038228955673
          -0.12556408952350154 -0.03183901974312271 0.2542899085476519 0.41064406642368306 -0.15375747873982434 -0.2318839699954332
          -0.19942786295810538 -0.25976941290165584 -0.09705805184628569 -0.01960408802793817 0.10549977737164243 0.023709033710792186
          -0.10120627733979158 0.16484205145292652 0.6912752434558117 0.0685154600545006 0.87336122187384 0.17593051237613117
          1.1567745444235564 1.0829217721182398 0.3682098632663287 0.21452909586287744 0.8238638686364707 1.2363838040202237
          0.47751154835860843 0.8913308477924311 0.6162131431022939 0.8444752456356112 0.7730739156485386 0.711024500040937
          0.8815845066868224 0.8571928601136338 0.8369753812159806 1.1107142565576653 0.4995891974220704 1.0357431815724494
        </DataArray>
      </CellData>
      <Points>
        <DataArray type="Float32" Name="Points" NumberOfComponents="3" format="ascii" RangeMin="0" RangeMax="1.4142135623730951">
          0 1 0 0.20000000298023224 1 0
          0 0.7799999713897705 0 0.17500990629196167 0.8324676752090454 0
          0.14628949761390686 0.6488438844680786 0 0.4000000059604645 1 0
          0 0.5849999785423279 0 0.30190789699554443 0.7062488794326782 0
          0.4018622040748596 0.8597133755683899 0 0.14242489635944366 0.45817598700523376 0
          0.29257911443710327 0.5176876783370972 0 0.49305540323257446 0.6697210073471069 0
          0.6000000238418579 1 0 0 0.38999998569488525 0
          0.6244276165962219 0.8092629909515381 0 0.2831222116947174 0.36456531286239624 0
          0.5280297994613647 0.49493080377578735 0 0.43886861205101013 0.3865315914154053 0
          0.659912109375 0.6070019006729126 0 0.14862869679927826 0.22861619293689728 0
          0.800000011920929 1 0 0 0.19499999284744263 0
          0.791735827922821 0.7191417813301086 0 0.6928746104240417 0.44221389293670654 0
          0.39574238657951355 0.1925719976425171 0 0.7972490191459656 0.5503162145614624 0
          0.5838605761528015 0.2565388083457947 0 0 0 0
          1 1 0 0.7224256992340088 0.28607040643692017 0
          1 0.7983365058898926 0 0.2191116064786911 0 0
          0.841722309589386 0.3865504860877991 0 1 0.5966730117797852 0
          0.4382232129573822 0 0 0.6465445160865784 0.11541219800710678 0
          0.7272865176200867 0.12795010209083557 0 0.8639553785324097 0.2512752115726471 0
          1 0.3951736092567444 0 0.6558331847190857 0 0
          0.8922978043556213 0.11509300023317337 0 1 0.19681400060653687 0
          0.8700000047683716 0 0 1 0 0
          <InformationKey name="L2_NORM_RANGE" location="vtkDataArray" length="2">
            <Value index="0">
              0
            </Value>
            <Value index="1">
              1.4142135624
            </Value>
          </InformationKey>
        </DataArray>
      </Points>
      <Cells>
        <DataArray type="Int64" Name="connectivity" format="ascii" RangeMin="0" RangeMax="43">
          42 36 35 35 36 26
          26 17 24 2 6 9
          4 2 9 9 6 13
          9 13 19 4 9 10
          10 9 15 19 13 21
          19 21 27 9 19 15
          15 19 24 15 24 17
          15 17 10 19 27 31
          39 24 34 34 24 31
          24 39 35 24 19 31
          42 35 39 35 26 24
          42 43 40 40 43 41
          42 40 36 40 41 37
          37 41 38 40 37 36
          36 37 29 29 37 32
          32 37 38 29 32 23
          36 29 26 26 29 23
          32 38 33 23 32 25
          25 32 33 23 25 18
          18 25 22 23 18 16
          22 25 33 18 22 14
          16 18 11 23 16 26
          14 22 20 18 14 11
          11 14 8 16 11 10
          8 14 12 11 8 7
          17 26 16 17 16 10
          7 8 3 11 7 10
          2 4 3 4 10 7
          4 7 3 3 8 1
          3 1 0 2 3 0
          28 20 22 12 5 8
          8 5 1 20 12 14
          33 30 22 22 30 28
        </DataArray>
        <DataArray type="Int64" Name="offsets" format="ascii" RangeMin="3" RangeMax="198">
          3 6 9 12 15 18
          21 24 27 30 33 36
          39 42 45 48 51 54
          57 60 63 66 69 72
          75 78 81 84 87 90
          93 96 99 102 105 108
          111 114 117 120 123 126
          129 132 135 138 141 144
          147 150 153 156 159 162
          165 168 171 174 177 180
          183 186 189 192 195 198
        </DataArray>
        <DataArray type="UInt8" Name="types" format="ascii" RangeMin="5" RangeMax="5">
          5 5 5 5 5 5
          5 5 5 5 5 5
          5 5 5 5 5 5
          5 5 5 5 5 5
          5 5 5 5 5 5
          5 5 5 5 5 5
          5 5 5 5 5 5
          5 5 5 5 5 5
          5 5 5 5 5 5
          5 5 5 5 5 5
          5 5 5 5 5 5
        </DataArray>
      </Cells>
    </Piece>
  </UnstructuredGrid>
</VTKFile>
