<?xml version="1.0"?>
<VTKFile type="UnstructuredGrid" version="0.1" byte_order="LittleEndian" header_type="UInt32" compressor="vtkZLibDataCompressor">
  <UnstructuredGrid>
    <Piece NumberOfPoints="81" NumberOfCells="64">
      <PointData>
        <DataArray type="Float64" Name="Velocity" NumberOfComponents="3" format="ascii" RangeMin="0" RangeMax="0.015702050297824285">
          0 0 0 0.0030054705648179286 0 0
          0 0 0 -0.0001944071476937115 0.001582786945717666 0
          0.008832403292526159 0 0 0 0 0
          -0.0002276590753278651 0.0010567287959983454 0 -0.0011391728715556726 0.0013957096727736757 0
          -0.0004668996641602155 0.0006698775580213755 0 0.013800630144572126 0 0
          0 0 0 -0.00022480226909703818 0.0007391342444475935 0
          -0.002043606173696717 0.0009186027214489846 0 -0.00048008013317814985 0.0004397152346005603 0
          -0.0006722206497800053 0.0004538504061964986 0 0.015702050297824285 0 0
          0 0 0 -0.00015849091668884233 0.0004850021606019315 0
          -0.0023899414835837204 3.146290304133792e-8 0 -0.0006774927812417155 0.0002838618680114629 0
          -0.00029688591153966996 0.00026785544242867394 0 -0.0007571721240419052 1.9584214696347752e-8 0
          0.013800630144572126 0 0 0 0 0
          -0.0003944713798553072 0.00017207348447120961 0 -0.0007530032969309641 3.547145113916853e-8 0
          -0.00011942502870241648 0.00031231498748522326 0 -0.002043703527314055 -0.0009185294803717004 0
          -0.00022452257952463523 0.0001698569399636379 0 -0.0006721137045715951 -0.0004537902342586195 0
          -0.00042980893078371497 2.9347120538861847e-8 0 -0.0002972761650902353 0.00010786693855098609 0
          -0.0006775058307324543 -0.00028378366334981113 0 0.00883240329252616 0 0
          0 0 0 -0.0000830224981193922 0.00018412551408535433 0
          -0.0011391867323058886 -0.0013957228629454615 0 -0.00015349407041627243 0.00009879193063203896 0
          -0.0004667648144404291 -0.0006697691840391628 0 -0.00032336670686208683 2.5132785917266873e-8 0
          -0.00039445208434011724 -0.00017200734940048764 0 -0.00020098625436167897 0.00006255381605074625 0
          -0.00048008645109038115 -0.00043963898228803776 0 0.0030054705648179295 0 0
          0 0 0 -0.00008934880023974269 0.0000854225104339207 0
          -0.00029727662813192507 -0.00010781382344266096 0 -0.0001941004192531509 -0.0015824453944348125 0
          -0.00021776617147456004 1.699360039274033e-8 0 -0.0002968628739242294 -0.0002677859398378521 0
          -0.00016533576967011452 0.00004576237027389286 0 -0.00022765263103207865 -0.0010565181075201358 0
          -0.00021631735523894158 0.000028900361113717875 0 -0.00022477479934718126 -0.0007389953488273754 0
          -0.00020098345027573763 -0.00006251782582564368 0 -0.00022452167034747023 -0.00016980682279302327 0
          0 0 0 0 0 0
          0 0 0 0 0 0
          -0.0002342658756941059 8.741382363960902e-9 0 -0.00015848453944857841 -0.0004848955328084636 0
          0 0 0 0 0 0
          -0.0001534906140390104 -0.00009875770242700647 0 0 0 0
          0 0 0 -0.00021631678833737233 -0.000028882098319321613 0
          -0.00011942125913941752 -0.0003122405541178782 0 0 0 0
          0 0 0 -0.00016533481820475183 -0.0000457454181162736 0
          -0.00008302099750739122 -0.0001840765301146605 0 0 0 0
          0 0 0 -0.00008934786594497535 -0.00008539844968349838 0
          0 0 0 0 0 0
          0 0 0 0 0 0
          0 0 0
          <InformationKey name="L2_NORM_RANGE" location="vtkDataArray" length="2">
            <Value index="0">
              0
            </Value>
            <Value index="1">
              0.015702050298
            </Value>
          </InformationKey>
        </DataArray>
        <DataArray type="Float64" Name="Pressure" format="ascii" RangeMin="0" RangeMax="0.1855474397954007">
          0 0.0006527055472170194 0.014337879684879951 0.01796522737335485 0.012554542487564931 0.035463130270951215
          0.03866683297299662 0.03135940164561482 0.04978415415314786 0.04586658186400044 0.052513751263502696 0.05516800823807714
          0.05753859793170002 0.06341995571667258 0.06875716714203954 0.09278829261891092 0.06475451639197059 0.06677776867092325
          0.09278850981219627 0.0766213652638443 0.07270377592797617 0.0927890915662677 0.13970928450638645 0.07295543876219152
          0.0818329633862387 0.09278987572155008 0.07443719525983597 0.1280377844662863 0.07869471867637219 0.11682058823982042
          0.092790684191959 0.0851372541119519 0.10895815378619014 0.17301887495003154 0.07808094468683076 0.07919392554030862
          0.15421497031802303 0.08237165825390873 0.13579232556291687 0.09279138968837133 0.10374830202368261 0.08714573014602653
          0.12215899968061203 0.18491587441524182 0.08087126455384888 0.08177698124478007 0.10044547937547064 0.1676047747002018
          0.09279192162629468 0.11287723726458626 0.08435814239360456 0.1469082790919833 0.08822589973704838 0.13041035084029143
          0.09843809246173463 0.10688790391596434 0.08175518329393766 0.1855474397954007 0.08259459979709657 0.17123094738449335
          0.09279224913351573 0.1188029902747888 0.08498579185680798 0.15011127803126603 0.10321211446276109 0.08856661276983038
          0.13306436134611116 0.09735858816867382 0.11114531596550405 0.09279235944529377 0.12082613567223417 0.10122632049499551
          0.10638979724694947 0.0970180985232245 0.1126270262916366 0.10380745661953875 0.1005989010927547 0.1075027573981112
          0.10299007480762414 0.10471316294395741 0.10382948371150953
        </DataArray>
        <DataArray type="Float64" Name="stream" format="ascii" RangeMin="-0.0004786709190596038" RangeMax="0.000338026553248588">
          0.00003838363973145472 0.00014081566328027023 0 -0.00007900787216085203 0.0002614431661659897 -8.124369273261253e-7
          -0.00006957460801137591 -0.0002581644221201749 -0.0001750327560277216 0.000338026553248588 6.157013777941884e-7 -0.000046437661161753834
          -0.00040823736193519675 -0.00011852974942928498 -0.00024588690487214337 0.0003357319878897581 0.000002419475530216746 -0.000027787826721130285
          -0.0004786709190596038 -0.00016415432103818238 -0.0000725782362996722 -0.00027691009001409823 0.00025627650919761273 0.000004090008293575021
          -0.00009929354618325256 -0.00018315097869081782 -0.000014848975246663802 -0.0004368794747508308 -0.00004258061588035506 -0.00025124979769430497
          -0.00011021187267069781 -0.000058588782361695775 -0.0001665752810235967 0.00013263942318782033 0.000005395466172689738 -0.0000058425164513268345
          -0.0003044546634854117 -0.00002152968168023779 -0.0001857379877237146 -0.00006455805121510791 -0.00010013193547465262 -0.00003015801644058941
          -0.0001243503414822193 0.00003876862442916626 0.000006613998779077089 0.000002640469789288507 -0.00005789584531454022 -0.00011308434486485474
          -0.00003285059346113179 -0.00007492972474854247 -0.0000029386176054463948 -0.00007361586440133539 -0.0000057512377058373335 -0.000046007593415271046
          -0.000028242724986073794 -0.0000418593129417868 0.000006613998779077089 0.000011378266361228787 0.000007419384291674757 -0.0000014016206757250856
          -0.000006197929526449021 -0.000025156532029881625 0.00000740712614530526 0.0000018973918399509473 -0.00001818145891427703 0.000007587861570950888
          0.000005778941123834352 -0.000003797610720215877 -0.000010504264556887429 0.000008015774637691744 0.000008263852565938068 8.613784611457642e-7
          -1.7915354853360997e-8 0.000008868981594280819 0.000010194518218354372 0.000007642782842286972 0.000010031893096611787 0.000011432567069270855
          0.000011378266361228787 0.000012179226154367204 0.000011378266361228787
        </DataArray>
        <DataArray type="Float64" Name="Sigma" NumberOfComponents="6" format="ascii" RangeMin="1.6350166081660756e-11" RangeMax="0.0005516267554646833">
          0.00007947070656701492 2.3859208676280202e-9 0 -3.370924928120759e-8 0 0
          0.00016139878413409187 -0.0000835550862066922 0 0.00009595695577158255 0 0
          -0.000001768336664756021 -7.932714566612981e-9 0 0.00007155075852189024 0 0
          -0.000023775359881842302 -0.00001684340008938932 0 0.0000517843193121719 0 0
          0.00021407072454266335 -0.00007628684850234858 0 0.00030078962966605783 0 0
          -0.000009012612739222221 4.2759020381958646e-9 0 0.00005530108909720657 0 0
          -0.000009455115797011057 0.000026086572091160646 0 -0.0000030244791652920503 0 0
          -0.0000411849171245178 -0.0000074640217389423495 0 0.00006562215582668566 0 0
          -0.000009574236127222908 0.000027959833548051482 0 -0.00006360603750342813 0 0
          0.00012794451738074784 -0.00005005203144417665 0 0.0004824636908452734 0 0
          -0.000008601925282566698 -7.995293500473024e-10 0 0.000040719110341499895 0 0
          -0.00000982902443629426 0.000007861343633237145 0 0.000007542994202718875 0 0
          -0.000023538577961144222 -0.0000054413577912074434 0 0.00010772751416509099 0 0
          -0.000009569994014582233 0.0000029661401272062786 0 -0.0000048394949898803115 0 0
          -0.000007089738433975475 0.000018658731190185978 0 -0.00008790295800083422 0 0
          -0.0000011715791155853179 3.992541807286635e-8 0 0.0005516255098822301 0 0
          -0.000006471607728570394 4.215177621422226e-11 0 0.000027288481128761445 0 0
          -0.000006070674679040134 0.000009384638470522261 0 3.0520847407828775e-7 0 0
          0.0000041269381888472086 -4.9920570630525174e-8 0 0.00011090890991373328 0 0
          -0.000005527027061025875 0.000002434507746303692 0 0.000009582391489195265 0 0
          -0.000004887540189090853 0.000006585584052123088 0 -0.000018733184873929515 0 0
          -0.000001117868925985749 2.856637050594087e-8 0 -0.000112497316370981 0 0
          -0.00013028036480721908 0.00005004361925447235 0 0.00048141518316366865 0 0
          -0.000004864878543043242 4.980292176603307e-11 0 0.00001763544778733482 0 0
          -0.000002829396321348244 0.000004166185777117 0 -0.000018308194961316156 0 0
          2.9926957802661866e-7 -9.22657451481758e-9 0 0.000004575094696981529 0 0
          -0.000004601443642946016 0.000005541459169216047 0 8.312072309342285e-7 0 0
          0.000029870305045447 0.000005435600043527676 0 0.00010874260491761482 0 0
          -0.000003669300037772019 0.00000278004003419573 0 -0.000007902844775573191 0 0
          0.000005374735311491043 -0.000018639734420152496 0 -0.00008826761526449276 0 0
          -7.9775529031797e-8 2.7671951451650224e-9 0 -0.00002537219271542886 0 0
          -0.0000020312925878947178 0.0000018376038271219632 0 -0.000004006792248032847 0 0
          0.000005986564551024729 -0.0000024405608641822026 0 0.000009687674651449561 0 0
          -0.00021478588803802817 0.00007610744405335316 0 0.00029973221498724847 0 0
          -0.000003407143143000914 -3.06581655652852e-11 0 0.000010415660129018496 0 0
          -0.000003147549295709595 0.0000045336839002105325 0 0.0000010327786721647452 0 0
          0.00004345888885452767 0.000007644617600700351 0 0.00006663796904905138 0 0
          -0.000002422843917310934 0.0000025605956175038573 0 -0.000004430311274143196 0 0
          0.000008950315724746986 -0.000028021399392864814 0 -0.00006395922777003516 0 0
          2.1477280315285175e-8 -4.5513225760870206e-10 0 -0.000007137947023845174 0 0
          0.0000027068028788701245 -0.000004163890885728186 0 -0.00001833719332041111 0 0
          -0.000001327260528086907 0.0000016128788759510056 0 -0.0000025547310233387516 0 0
          0.000009737781586879883 -0.000002946655528769912 0 -0.000004733408335285191 0 0
          -0.00016178620184057385 0.00008341147427763029 0 0.0000957337113307824 0 0
          -0.0000036648001310078285 1.3808147130850341e-11 0 0.000004832270491957277 0 0
          -0.00000339220787506305 0.000003553790573197984 0 -6.554213932357442e-7 0 0
          0.00000206429961918381 -0.0000018374864717325915 0 -0.000003998724806541353 0 0
          0.000023889399515258178 0.000016970462553839563 0 0.00005199474232467448 0 0
          -5.720546760070324e-9 5.352921112339584e-10 0 -0.000004591525260539232 0 0
          0.000004842503914016635 -0.000006590181595963734 0 -0.00001876007194992995 0 0
          -0.000002606795571219931 0.0000018717058053272404 0 -0.000003901559545453068 0 0
          0.000009422651182612456 -0.00002612871681396531 0 -0.0000030961697028297404 0 0
          -0.0000014150157171976966 0.0000011888465549508005 0 -0.0000034075040951354936 0 0
          0.000009837220742974358 -0.00000784549638910937 0 0.000007561390022579132 0 0
          0.000001318458280126125 -0.0000016120322910266723 0 -0.0000025571421678384 0 0
          0.0000036814017630484378 -0.0000027779013759568035 0 -0.000007893756284000024 0 0
          5.107073574616874e-12 -8.428562843393087e-12 0 -1.9528309704400717e-11 0 0
          -0.00007887384245240997 1.9913128281386753e-8 0 7.333502855088082e-9 0 0
          5.098511868007035e-11 0.000003348840604810424 0 -0.000004738044555274984 0 0
          0.0000017057409339303594 -1.4772663488755574e-8 0 0.00007149167295316961 0 0
          1.6640907809146574e-9 2.799535112201562e-10 0 -0.000004470820684980823 0 0
          0.000006067968155858714 -0.000009387202519356657 0 2.9978574025929766e-7 0 0
          -1.4065520145729757e-10 0.0000018102645849607464 0 -0.000008817645111580846 0 0
          0.0000090226792109708 2.5574819035002672e-9 0 0.000055304605438009776 0 0
          0.000002419578959506951 -0.0000025603361850168095 0 -0.000004432003477268769 0 0
          -5.896061057918516e-10 0.0000011398311910889794 0 -0.00001157089993160468 0 0
          0.000008597752909142695 -1.339222286074118e-9 0 0.000040706986830473125 0 0
          0.000001417573117668095 -0.0000011881675662789061 0 -0.000003406846763548556 0 0
          0.00000460202129627337 -0.000005539265994344729 0 8.318408460939786e-7 0 0
          -8.256695151554988e-10 3.8445647583083923e-10 0 -0.000012541390469855116 0 0
          0.000006472143077290678 5.254504610539018e-10 0 0.00002728370594349573 0 0
          0.0000026077288635273087 -0.0000018708974330636612 0 -0.000003900565857019388 0 0
          0.0000031473092884504383 -0.0000045329868906905615 0 0.000001032016051944897 0 0
          -6.788909724782489e-10 -0.0000011390749299882435 0 -0.000011571233699898187 0 0
          0.000004864483345928525 -2.0171606495675324e-10 0 0.000017631022863265325 0 0
          0.0000033922340425473513 -0.00000355272309113534 0 -6.555495440733459e-7 0 0
          -3.208043756202091e-10 -0.0000018096514841947439 0 -0.000008817957216602959 0 0
          0.000003407140005471951 7.145663007735578e-11 0 0.000010413047494060849 0 0
          -7.430714729826112e-11 -0.0000033479305720888064 0 -0.00000473804501648161 0 0
          0.00000366474071455396 -2.5432716609728033e-11 0 0.000004830924220212054 0 0
          1.5467073357257728e-12 1.4227039405728931e-11 0 -7.907400145644468e-12 0 0
          <InformationKey name="L2_NORM_RANGE" location="vtkDataArray" length="2">
            <Value index="0">
              1.6350166082e-11
            </Value>
            <Value index="1">
              0.00055162675546
            </Value>
          </InformationKey>
        </DataArray>
      </PointData>
      <CellData>
        <DataArray type="UInt8" Name="vtkGhostType" format="ascii" RangeMin="0" RangeMax="0">
          0 0 0 0 0 0
          0 0 0 0 0 0
          0 0 0 0 0 0
          0 0 0 0 0 0
          0 0 0 0 0 0
          0 0 0 0 0 0
          0 0 0 0 0 0
          0 0 0 0 0 0
          0 0 0 0 0 0
          0 0 0 0 0 0
          0 0 0 0
        </DataArray>
        <DataArray type="Float64" Name="NN-Viscosity" format="ascii" RangeMin="3.8277799473094876e-10" RangeMax="0.000038751267785591535">
          3.8277799473094876e-10 7.512320624790565e-10 8.498716683320508e-10 7.109015525822904e-10 7.118076440720453e-10 8.524755767753524e-10
          7.552802635533821e-10 3.855243299401495e-10 2.498884776104396e-9 3.2425031309155115e-9 3.432631805524196e-9 3.019669409440385e-9
          3.0210581108126404e-9 3.4349759004838237e-9 3.244431194131493e-9 2.491868128231652e-9 5.449376076689649e-9 4.2658300717754845e-9
          5.543306538844937e-9 5.2641646832678216e-9 5.265820953676035e-9 5.5440571558690416e-9 4.260788928153571e-9 5.413311766663037e-9
          1.5084144954215356e-8 3.113099885753554e-8 3.502827779742307e-8 2.4548243123704434e-8 2.4582315179820055e-8 3.515224613701091e-8
          3.1307614671397484e-8 1.5168379842404636e-8 4.107734724163791e-7 5.178254369265055e-7 4.799463874538796e-7 3.5371408351208557e-7
          3.5324284518619214e-7 4.782314370011099e-7 5.136069689096966e-7 4.085147960535708e-7 0.0000012828332968237913 0.0000024228941608470458
          0.0000026817391692042584 0.000002093631327137909 0.000002094090872122744 0.000002685656629027532 0.0000024276905618552373 0.0000012860135379464076
          0.0000068394756350401436 0.000006914351598620711 0.00000405088158253662 0.0000015072090260569368 0.0000017050471945128959 0.000004265936087123955
          0.000006969170222065744 0.000006795837180145377 0.000008095025993759807 0.000026138091029649164 0.00003741718495918626 0.00003045653437494714
          0.000032696988124988625 0.000038751267785591535 0.000026273398914211496 0.000008090316234615888
        </DataArray>
      </CellData>
      <Points>
        <DataArray type="Float32" Name="Points" NumberOfComponents="3" format="ascii" RangeMin="0" RangeMax="1.4142135623730951">
          0 1 0 0.125 1 0
          0 0.875 0 0.125 0.875 0
          0.25 1 0 0 0.75 0
          0.125 0.75 0 0.25 0.875 0
          0.25 0.75 0 0.375 1 0
          0 0.625 0 0.125 0.625 0
          0.375 0.875 0 0.25 0.625 0
          0.375 0.75 0 0.5 1 0
          0 0.5 0 0.125 0.5 0
          0.5 0.875 0 0.375 0.625 0
          0.25 0.5 0 0.5 0.75 0
          0.625 1 0 0 0.375 0
          0.375 0.5 0 0.5 0.625 0
          0.125 0.375 0 0.625 0.875 0
          0.25 0.375 0 0.625 0.75 0
          0.5 0.5 0 0.375 0.375 0
          0.625 0.625 0 0.75 1 0
          0 0.25 0 0.125 0.25 0
          0.75 0.875 0 0.25 0.25 0
          0.75 0.75 0 0.5 0.375 0
          0.625 0.5 0 0.375 0.25 0
          0.75 0.625 0 0.875 1 0
          0 0.125 0 0.125 0.125 0
          0.625 0.375 0 0.875 0.875 0
          0.5 0.25 0 0.75 0.5 0
          0.25 0.125 0 0.875 0.75 0
          0.375 0.125 0 0.875 0.625 0
          0.625 0.25 0 0.75 0.375 0
          0 0 0 1 1 0
          0.125 0 0 1 0.875 0
          0.5 0.125 0 0.875 0.5 0
          0.25 0 0 1 0.75 0
          0.75 0.25 0 0.375 0 0
          1 0.625 0 0.625 0.125 0
          0.875 0.375 0 0.5 0 0
          1 0.5 0 0.75 0.125 0
          0.875 0.25 0 0.625 0 0
          1 0.375 0 0.875 0.125 0
          0.75 0 0 1 0.25 0
          0.875 0 0 1 0.125 0
          1 0 0
          <InformationKey name="L2_NORM_RANGE" location="vtkDataArray" length="2">
            <Value index="0">
              0
            </Value>
            <Value index="1">
              1.4142135624
            </Value>
          </InformationKey>
        </DataArray>
      </Points>
      <Cells>
        <DataArray type="Int64" Name="connectivity" format="ascii" RangeMin="0" RangeMax="80">
          58 45 44 56 62 50
          45 58 65 52 50 62
          69 60 52 65 73 67
          60 69 76 71 67 73
          78 75 71 76 80 79
          75 78 45 35 34 44
          50 37 35 45 52 41
          37 50 60 48 41 52
          67 54 48 60 71 64
          54 67 75 72 64 71
          79 77 72 75 35 26
          23 34 37 28 26 35
          41 31 28 37 48 39
          31 41 54 46 39 48
          64 55 46 54 72 68
          55 64 77 74 68 72
          26 17 16 23 28 20
          17 26 31 24 20 28
          39 30 24 31 46 40
          30 39 55 49 40 46
          68 61 49 55 74 70
          61 68 17 11 10 16
          20 13 11 17 24 19
          13 20 30 25 19 24
          40 32 25 30 49 42
          32 40 61 53 42 49
          70 66 53 61 11 6
          5 10 13 8 6 11
          19 14 8 13 25 21
          14 19 32 29 21 25
          42 38 29 32 53 51
          38 42 66 63 51 53
          6 3 2 5 8 7
          3 6 14 12 7 8
          21 18 12 14 29 27
          18 21 38 36 27 29
          51 47 36 38 63 59
          47 51 3 1 0 2
          7 4 1 3 12 9
          4 7 18 15 9 12
          27 22 15 18 36 33
          22 27 47 43 33 36
          59 57 43 47
        </DataArray>
        <DataArray type="Int64" Name="offsets" format="ascii" RangeMin="4" RangeMax="256">
          4 8 12 16 20 24
          28 32 36 40 44 48
          52 56 60 64 68 72
          76 80 84 88 92 96
          100 104 108 112 116 120
          124 128 132 136 140 144
          148 152 156 160 164 168
          172 176 180 184 188 192
          196 200 204 208 212 216
          220 224 228 232 236 240
          244 248 252 256
        </DataArray>
        <DataArray type="UInt8" Name="types" format="ascii" RangeMin="9" RangeMax="9">
          9 9 9 9 9 9
          9 9 9 9 9 9
          9 9 9 9 9 9
          9 9 9 9 9 9
          9 9 9 9 9 9
          9 9 9 9 9 9
          9 9 9 9 9 9
          9 9 9 9 9 9
          9 9 9 9 9 9
          9 9 9 9 9 9
          9 9 9 9
        </DataArray>
      </Cells>
    </Piece>
  </UnstructuredGrid>
</VTKFile>
