<?xml version="1.0"?>
<VTKFile type="UnstructuredGrid" version="0.1" byte_order="LittleEndian" header_type="UInt32" compressor="vtkZLibDataCompressor">
  <UnstructuredGrid>
    <Piece NumberOfPoints="45" NumberOfCells="32">
      <PointData>
        <DataArray type="Float64" Name="nsi_SBC" NumberOfComponents="3" format="ascii" RangeMin="0" RangeMax="25.6">
          25.6 0 0 6.4 0 0
          0 0 0 0 0 0
          0 0 0 6.4 0 0
          0 0 0 0 0 0
          25.6 0 0 0 0 0
          0 0 0 0 0 0
          0 0 0 0 0 0
          0 0 0 0 0 0
          0 0 0 0 0 0
          0 0 0 0 0 0
          0 0 0 0 0 0
          0 0 0 0 0 0
          0 0 0 0 0 0
          0 0 0 0 0 0
          0 0 0 0 0 0
          0 0 0 0 0 0
          0 0 0 0 0 0
          0 0 0 0 0 0
          0 0 0 0 0 0
          0 0 0 0 0 0
          25.6 0 0 0 0 0
          0 0 0 0 0 0
          25.6 0 0
          <InformationKey name="L2_NORM_RANGE" location="vtkDataArray" length="2">
            <Value index="0">
              0
            </Value>
            <Value index="1">
              25.6
            </Value>
          </InformationKey>
        </DataArray>
        <DataArray type="Float64" Name="nsi_SFIXNO" NumberOfComponents="3" format="ascii" RangeMin="0" RangeMax="1.7320508075688772">
          1 1 1 1 1 1
          1 1 1 0 0 0
          -1 -1 -1 1 1 1
          -1 -1 -1 -1 -1 -1
          1 1 1 0 0 0
          0 0 0 -1 -1 -1
          -1 -1 -1 -1 -1 -1
          0 0 0 0 0 0
          -1 -1 -1 -1 -1 -1
          -1 -1 -1 0 0 0
          0 0 0 -1 -1 -1
          -1 -1 -1 -1 -1 -1
          0 0 0 0 0 0
          -1 -1 -1 -1 -1 -1
          -1 -1 -1 0 0 0
          0 0 0 -1 -1 -1
          -1 -1 -1 -1 -1 -1
          0 0 0 0 0 0
          -1 -1 -1 -1 -1 -1
          -1 -1 -1 0 0 0
          0 1 0 0 1 0
          0 1 0 0 1 0
          0 1 0
          <InformationKey name="L2_NORM_RANGE" location="vtkDataArray" length="2">
            <Value index="0">
              0
            </Value>
            <Value index="1">
              1.7320508076
            </Value>
          </InformationKey>
        </DataArray>
        <DataArray type="Float64" Name="nsi_UBC" NumberOfComponents="3" format="ascii" RangeMin="0" RangeMax="1">
          0 0 0 0.75 0 0
          1 0 0 0 0 0
          0 0 0 0.75 0 0
          0 0 0 0 0 0
          0 0 0 0 0 0
          0 0 0 0 0 0
          0 0 0 0 0 0
          0 0 0 0 0 0
          0 0 0 0 0 0
          0 0 0 0 0 0
          0 0 0 0 0 0
          0 0 0 0 0 0
          0 0 0 0 0 0
          0 0 0 0 0 0
          0 0 0 0 0 0
          0 0 0 0 0 0
          0 0 0 0 0 0
          0 0 0 0 0 0
          0 0 0 0 0 0
          0 0 0 0 0 0
          0 0 0 0 0 0
          0 0 0 0 0 0
          0 0 0
          <InformationKey name="L2_NORM_RANGE" location="vtkDataArray" length="2">
            <Value index="0">
              0
            </Value>
            <Value index="1">
              1
            </Value>
          </InformationKey>
        </DataArray>
        <DataArray type="Float64" Name="nsi_UFIXNO" NumberOfComponents="3" format="ascii" RangeMin="1" RangeMax="1.4142135623730951">
          1 1 0 1 1 0
          1 1 0 1 1 0
          -1 -1 0 1 1 0
          -1 -1 0 -1 -1 0
          1 1 0 1 1 0
          1 1 0 -1 -1 0
          -1 -1 0 -1 -1 0
          1 1 0 1 1 0
          -1 -1 0 -1 -1 0
          -1 -1 0 1 1 0
          1 1 0 -1 -1 0
          -1 -1 0 -1 -1 0
          1 1 0 1 1 0
          -1 -1 0 -1 -1 0
          -1 -1 0 1 1 0
          1 1 0 -1 -1 0
          -1 -1 0 -1 -1 0
          1 1 0 1 1 0
          -1 -1 0 -1 -1 0
          -1 -1 0 1 1 0
          1 1 0 0 1 0
          0 1 0 0 1 0
          1 1 0
          <InformationKey name="L2_NORM_RANGE" location="vtkDataArray" length="2">
            <Value index="0">
              1
            </Value>
            <Value index="1">
              1.4142135624
            </Value>
          </InformationKey>
        </DataArray>
        <DataArray type="Float64" Name="Velocity" NumberOfComponents="3" format="ascii" RangeMin="0" RangeMax="1.0156122358981705">
          0 0 0 0.7500000000000002 0 0
          1.0000000000000004 0 0 0 0 0
          0.46439248365928465 0.016223907268455982 0 0.7500000000000002 0 0
          0.5757923713936473 2.5537187249501493e-10 0 0.46439248362583985 -0.016223907189877852 0
          0 0 0 0 0 0
          0 0 0 0.5686369758232633 -0.009747843010259303 0
          0.7017181506388488 5.604859338009792e-10 0 0.5686369751001925 0.009747843364988953 0
          0 0 0 0 0 0
          0.5494071648612816 -0.0004270064012187809 0 0.6924275337648294 6.129213521674771e-11 0
          0.5494071656065106 0.0004270068390633242 0 0 0 0
          0 0 0 0.5606729689394209 -0.002422326611271306 0
          0.6894682472659401 3.6159813388918865e-10 0 0.5606729699940949 0.0024223271674053584 0
          0 0 0 0 0 0
          0.5567329222524653 -0.0023345516025967336 0 0.6947488939946523 1.680897960331878e-10 0
          0.5567329225038395 0.0023345518605706597 0 0 0 0
          0 0 0 0.5528549953270905 0.004160669046991965 0
          0.6824984433384672 -2.8977356801907025e-10 0 0.5528549951750736 -0.004160669481961129 0
          0 0 0 0 0 0
          0.5471166472516787 -0.026077501928317467 0 0.6676254810764557 -5.186376751284861e-10 0
          0.5471166474240547 0.026077501371372727 0 0 0 0
          0 0 0 0.5763801213032284 0 0
          1.0156122358981705 0 0 0.5763801221258766 0 0
          0 0 0
          <InformationKey name="L2_NORM_RANGE" location="vtkDataArray" length="2">
            <Value index="0">
              0
            </Value>
            <Value index="1">
              1.0156122359
            </Value>
          </InformationKey>
        </DataArray>
        <DataArray type="Float64" Name="Pressure" format="ascii" RangeMin="2.531060081442135" RangeMax="22.001823163557937">
          21.59287885257649 21.819145517588368 22.001823163557937 19.863157334616027 19.87292275683155 21.819145509679547
          19.876806380241902 19.87292274581725 21.59287884015678 19.863157323320724 16.73902318164633 16.7075581976454
          16.685545101002013 16.707558191056446 16.739023176672077 14.134598021177727 14.150522722407484 14.16491640882048
          14.150522729644177 14.134598032166952 11.585535357615143 11.59031106006407 11.598651560993886 11.590311065887018
          11.585535363473717 9.05952690228214 9.066969427136168 9.070194857581605 9.066969427344544 9.059526902839021
          6.488502979011708 6.4971027956401874 6.516955393940956 6.4971027926048 6.488502973734644 3.9969914042236043
          3.9810145915983584 3.944738602608524 3.9810145891014725 3.9969913992808452 2.9282596737459894 2.7657815954623883
          2.531060081442135 2.7657815943819024 2.928259672032407
        </DataArray>
        <DataArray type="Float64" Name="stream" format="ascii" RangeMin="-0.5968965027307715" RangeMax="-0.01513062644233358">
          -0.02038545528199097 -0.09375000000000003 -0.30204288472790075 -0.05124133378443533 -0.130338716840884 -0.5031465027307715
          -0.3151142788651109 -0.49328283416676527 -0.5968965027307715 -0.5741141986753834 -0.07857832615347222 -0.14552806134663754
          -0.30837342753363406 -0.47930851292493803 -0.5622511667439227 -0.10012178207509329 -0.1627600240074954 -0.31871270198391705
          -0.4823841043343251 -0.5575022153979948 -0.10460565316201986 -0.17173323722134973 -0.3268295001561122 -0.4847789977288464
          -0.5564663221636482 -0.10683727753650218 -0.17461949716666292 -0.3301271360769881 -0.48684306343829714 -0.5563140260572533
          -0.11243878111080619 -0.18148971055352542 -0.33366333544302285 -0.48541537851546945 -0.5560803385625642 -0.06537313553342525
          -0.14693400080170235 -0.31471392703579976 -0.48184694043363013 -0.5572237462741525 -0.01513062644233358 -0.11298146152717013
          -0.3004455565645688 -0.487586195310301 -0.5572237462741525
        </DataArray>
        <DataArray type="Float64" Name="Sigma" NumberOfComponents="6" format="ascii" RangeMin="0" RangeMax="25.799224794555368">
          25.60000000000001 0 0 -3.200000000000001 0 0
          6.400000000000002 0 0 -1.6000000000000005 0 0
          0 0 0 0 0 0
          -0.05391476689042764 -0.3230814273348286 0 1.2393662989636027 0 0
          2.575458587959364 -0.039659295884256575 0 -1.0662459637646673 0 0
          6.400000000000003 0 0 1.6000000000000008 0 0
          -0.42426316720070745 0.053638735665486575 0 1.1970731768792432e-9 0 0
          2.575458589617578 -0.03965929463538932 0 1.0662459652414338 0 0
          25.60000000000001 0 0 3.200000000000001 0 0
          -0.053914767642205715 -0.3230814257670125 0 -1.2393662987912553 0 0
          3.2843009264897267 0.29680840633251093 0 -2.0145406483403794 0 0
          1.9407009549929721 -0.1156549514735708 0 -0.6067329530092268 0 0
          -0.09642848790507923 -0.09988311089559568 0 2.0227138835222288e-9 0 0
          1.9407009624180027 -0.11565494969161735 0 0.6067329573422996 0 0
          3.284300928183687 0.2968084073582491 0 2.0145406519165214 0 0
          4.176845816855968 -0.27207109479394276 0 -1.046670414583729 0 0
          1.779441967854793 -0.04154146084515119 0 -0.8188526155497833 0 0
          -0.43413004298619373 -0.06391247286277923 0 8.506923330959858e-10 0 0
          1.779441978694291 -0.04154146058524307 0 0.81885261708386 0 0
          4.176845822887349 -0.2720710938618669 0 1.0466704176221016 0 0
          3.7396785814229885 -0.021718842654130974 0 -1.1362359416128505 0 0
          1.8610149849417796 -0.0740252501542761 0 -0.8100046349378355 0 0
          -0.5400136838439253 -0.04338637873137635 0 -3.351046009107726e-10 0 0
          1.8610149906339608 -0.07402524913068334 0 0.8100046367428142 0 0
          3.7396785990519046 -0.021718841211092948 0 1.1362359461075098 0 0
          3.7846806538201587 -0.10460075673670431 0 -1.159901164233313 0 0
          1.829582285387755 -0.07041434635156373 0 -0.802407990203752 0 0
          -0.5430120462301736 -0.05935555728581919 0 7.572443160558214e-11 0 0
          1.8295822881062902 -0.07041434489029746 0 0.8024079919631 0 0
          3.784680659874872 -0.10460075567394991 0 1.1599011641934616 0 0
          3.7935395265409033 -0.06818336395686721 0 -1.1494796703233352 0 0
          1.7504607814332238 -0.05852948306181741 0 -0.7855213637155384 0 0
          -0.6046143304341304 -0.02495666630451404 0 1.0716829557338677e-10 0 0
          1.7504607790521547 -0.05852948390993952 0 0.7855213619369755 0 0
          3.7935395215077294 -0.06818336523047966 0 1.1494796669597644 0 0
          4.09202978806428 -0.008033138902939406 0 -1.3173169789140489 0 0
          1.8557959181195376 -0.07127080794689357 0 -0.8560868423366654 0 0
          -0.6273361926326251 -0.12327265347939012 0 -1.998058661326056e-9 0 0
          1.8557959098535521 -0.0712708098646371 0 0.8560868386092962 0 0
          4.092029786943389 -0.008033139602500176 0 1.317316977032169 0 0
          4.214071317926842 0 0 -1.2930472244733386 0 0
          2.782535838502689 0 0 -1.0379953443764731 0 0
          0.6179911184222978 0 0 -2.091522052101145e-9 0 0
          2.782535832936796 0 0 1.0379953436611058 0 0
          4.214071328452806 0 0 1.293047226670289 0 0
          <InformationKey name="L2_NORM_RANGE" location="vtkDataArray" length="2">
            <Value index="0">
              0
            </Value>
            <Value index="1">
              25.799224795
            </Value>
          </InformationKey>
        </DataArray>
      </PointData>
      <CellData>
        <DataArray type="UInt8" Name="vtkGhostType" format="ascii" RangeMin="0" RangeMax="0">
          0 0 0 0 0 0
          0 0 0 0 0 0
          0 0 0 0 0 0
          0 0 0 0 0 0
          0 0 0 0 0 0
          0 0
        </DataArray>
      </CellData>
      <Points>
        <DataArray type="Float32" Name="Points" NumberOfComponents="3" format="ascii" RangeMin="0" RangeMax="5.024937810560445">
          0 0.5 0 0 0.25 0
          0 0 0 0.625 0.5 0
          0.625 0.25 0 0 -0.25 0
          0.625 0 0 0.625 -0.25 0
          0 -0.5 0 0.625 -0.5 0
          1.25 0.5 0 1.25 0.25 0
          1.25 0 0 1.25 -0.25 0
          1.25 -0.5 0 1.875 0.5 0
          1.875 0.25 0 1.875 0 0
          1.875 -0.25 0 1.875 -0.5 0
          2.5 0.5 0 2.5 0.25 0
          2.5 0 0 2.5 -0.25 0
          2.5 -0.5 0 3.125 0.5 0
          3.125 0.25 0 3.125 0 0
          3.125 -0.25 0 3.125 -0.5 0
          3.75 0.5 0 3.75 0.25 0
          3.75 0 0 3.75 -0.25 0
          3.75 -0.5 0 4.375 0.5 0
          4.375 0.25 0 4.375 0 0
          4.375 -0.25 0 4.375 -0.5 0
          5 0.5 0 5 0.25 0
          5 0 0 5 -0.25 0
          5 -0.5 0
          <InformationKey name="L2_NORM_RANGE" location="vtkDataArray" length="2">
            <Value index="0">
              0
            </Value>
            <Value index="1">
              5.0249378106
            </Value>
          </InformationKey>
        </DataArray>
      </Points>
      <Cells>
        <DataArray type="Int64" Name="connectivity" format="ascii" RangeMin="0" RangeMax="44">
          9 7 5 8 14 13
          7 9 19 18 13 14
          24 23 18 19 29 28
          23 24 34 33 28 29
          39 38 33 34 44 43
          38 39 7 6 2 5
          13 12 6 7 18 17
          12 13 23 22 17 18
          28 27 22 23 33 32
          27 28 38 37 32 33
          43 42 37 38 6 4
          1 2 12 11 4 6
          17 16 11 12 22 21
          16 17 27 26 21 22
          32 31 26 27 37 36
          31 32 42 41 36 37
          4 3 0 1 11 10
          3 4 16 15 10 11
          21 20 15 16 26 25
          20 21 31 30 25 26
          36 35 30 31 41 40
          35 36
        </DataArray>
        <DataArray type="Int64" Name="offsets" format="ascii" RangeMin="4" RangeMax="128">
          4 8 12 16 20 24
          28 32 36 40 44 48
          52 56 60 64 68 72
          76 80 84 88 92 96
          100 104 108 112 116 120
          124 128
        </DataArray>
        <DataArray type="UInt8" Name="types" format="ascii" RangeMin="9" RangeMax="9">
          9 9 9 9 9 9
          9 9 9 9 9 9
          9 9 9 9 9 9
          9 9 9 9 9 9
          9 9 9 9 9 9
          9 9
        </DataArray>
      </Cells>
    </Piece>
  </UnstructuredGrid>
</VTKFile>
