<?xml version="1.0"?>
<VTKFile type="UnstructuredGrid" version="0.1" byte_order="LittleEndian" header_type="UInt32" compressor="vtkZLibDataCompressor">
  <UnstructuredGrid>
    <Piece NumberOfPoints="99" NumberOfCells="80">
      <PointData>
        <DataArray type="Float64" Name="Velocity" NumberOfComponents="3" format="ascii" RangeMin="0" RangeMax="1.0985345345813584">
          0 0 0 0.43749999999999994 0 0
          0.75 0 0 0.9375000000000001 0 0
          0 0 0 1 0 0
          0.36015328368959626 -0.014258016646931207 0 0.6895394922962593 -0.014566228154932786 0
          0.9456526401663844 -0.01037772097488175 0 0.9374999999999999 0 0
          1.0544186001884512 1.7342159885959384e-15 0 0.75 0 0
          0.9456526401663862 0.010377720974883703 0 0.43749999999999994 0 0
          0.6895394922962584 0.014566228154936257 0 0 0 0
          0 0 0 0.360153283689595 0.014258016646935016 0
          0.4211895582488685 -0.008968825203533978 0 0.7913249710466048 0.0072714050963228714 0
          1.0144514571011787 0.006136985702825446 0 0 0 0
          1.0985345345813584 -1.3955534317810398e-15 0 1.0144514571011785 -0.006136985702829827 0
          0.7913249710466077 -0.007271405096327454 0 0.42118955824887155 0.008968825203529198 0
          0 0 0 0 0 0
          0.35991906232748067 0.0025092755117350945 0 0.7924018749801025 -0.005522521257466029 0
          1.000995763539813 -0.004309144448971154 0 1.074791389597435 -2.39562318454877e-16 0
          1.0009957635398132 0.0043091444489689705 0 0.7924018749801027 0.005522521257466288 0
          0.35991906232748233 -0.0025092755117374524 0 0 0 0
          0 0 0 0.3634540282232061 0.0009552495878238855 0
          0.7804394659238488 0.002395693966680381 0 0.995051389814442 0.0015299809560117166 0
          1.081361985247959 2.4851673098634145e-15 0 0.995051389814442 -0.0015299809560076582 0
          0.7804394659238452 -0.0023956939666835222 0 0.36345402822320455 -0.0009552495878250576 0
          0 0 0 0 0 0
          0.36617941704864027 -0.0006629655555839081 0 0.7893646284405305 -0.0006301026348077167 0
          0.9998697177921204 -0.0002991806600457268 0 1.0807677293266107 9.788284624250865e-16 0
          0.9998697177921204 0.0002991806600486428 0 0.7893646284405325 0.0006301026348075378 0
          0.3661794170486414 0.0006629655555855504 0 0 0 0
          0 0 0 0.3639967447670522 0.0002930816211388655 0
          0.786163417721827 0.0000722814699647594 0 0.9973760493907914 0.000005850119503576385 0
          1.0804514376231895 -5.108228654885727e-16 0 0.9973760493907924 -0.000005850119500224672 0
          0.7861634177218269 -0.00007228146996371398 0 0.3639967447670532 -0.0002930816211392974 0
          0 0 0 0 0 0
          0.3653185696028614 -0.00017180016209018887 0 0.7871984529760868 0.00003377959742252453 0
          0.9985029081444519 0.000006305294044776972 0 1.080814757454787 1.2183468015179912e-15 0
          0.9985029081444502 -0.000006305294044662236 0 0.7871984529760866 -0.00003377959742437384 0
          0.36531856960286047 0.00017180016209080156 0 0 0 0
          0 0 0 0.3624544105499502 0.00016730698872841125 0
          0.7870974599211122 -0.00011386853587094487 0 0.9978852625116913 0.00013489199010841547 0
          1.080652393000751 2.962779333611238e-16 0 0.9978852625116919 -0.00013489199010528193 0
          0.7870974599211124 0.00011386853587217644 0 0.36245441054995076 -0.00016730698872755134 0
          0 0 0 0 0 0
          0.37354368873839955 -0.0003370056063946193 0 0.7868518800160509 0.000036761974099464294 0
          0.99901121032129 -0.00043910519378778965 0 1.0813854319058904 2.555176529346268e-16 0
          0.9990112103212894 0.0004391051937879528 0 0.7868518800160511 -0.000036761974099420655 0
          0.3735436887384 0.0003370056063951158 0 0 0 0
          0 0 0 0.32554348705568065 0 0
          0.7898727049518159 0 0 1.0005977060850246 0 0
          1.0790720702751408 0 0 1.000597706085025 0 0
          0.7898727049518164 0 0 0.3255434870556799 0 0
          0 0 0
          <InformationKey name="L2_NORM_RANGE" location="vtkDataArray" length="2">
            <Value index="0">
              0
            </Value>
            <Value index="1">
              1.0985345346
            </Value>
          </InformationKey>
        </DataArray>
        <DataArray type="Float64" Name="Pressure" format="ascii" RangeMin="0" RangeMax="25.695090615529388">
          25.489079310095793 25.627233021100015 25.69509061552937 25.65724382318464 22.45015194206272 25.626732201192855
          22.348020599071273 22.192621494840864 22.087775565118882 25.65724382318463 22.053820993618267 25.695090615529388
          22.087775565118903 25.627233021100032 22.19262149484087 25.489079310095796 18.071845699354302 22.34802059907131
          18.029390005796763 18.01714220280542 18.03055661843529 22.45015194206277 18.039084078302384 18.030556618435295
          18.017142202805427 18.029390005796753 18.071845699354284 15.910306799116784 15.925347534129406 15.921458660487477
          15.91156759859904 15.907372138624169 15.911567598599039 15.921458660487465 15.925347534129399 15.91030679911677
          13.711294659891365 13.709381041858572 13.713109001933045 13.715989913966402 13.716697728828152 13.715989913966407
          13.713109001933073 13.709381041858606 13.711294659891392 11.409859585693487 11.409753175170877 11.408557312438878
          11.408597466560746 11.40890092955875 11.408597466560757 11.408557312438893 11.409753175170902 11.409859585693525
          9.133271764993307 9.133360755027923 9.133481785899422 9.13306933520592 9.132795330398523 9.133069335205906
          9.133481785899425 9.133360755027939 9.133271764993317 6.851858505620526 6.851832409715242 6.851758197855428
          6.851922473109112 6.85204310771379 6.851922473109121 6.851758197855429 6.8518324097152385 6.851858505620524
          4.572357848800195 4.572244012847717 4.572548296086588 4.572712701018081 4.57271245434603 4.572712701018088
          4.572548296086599 4.572244012847731 4.572357848800212 2.2964268532132386 2.2963652778573995 2.2943227317692645
          2.2926733229702965 2.292334136266107 2.2926733229702947 2.2943227317692636 2.296365277857398 2.2964268532132395
          0 0 0 0 0 0
          0 0 0
        </DataArray>
        <DataArray type="Float64" Name="stream" format="ascii" RangeMin="-0.660260003654026" RangeMax="0.013373914503594294">
          -0.000634832803833715 -0.02734375 -0.10049551267201455 -0.204954883451249 0.0034367886616052546 -0.32620826026099
          -0.024788749197926292 -0.09713280726631665 -0.201682688168036 -0.4477572876844245 -0.32671309767627177 -0.5527284935644229
          -0.45267790996423685 -0.6255168178105069 -0.5591842462113772 -0.6528605678105069 0.006182197525284443 -0.6288117076813764
          -0.019298492439745622 -0.09151229605670338 -0.20001974561129202 -0.6520909278612416 -0.3270506894053634 -0.45326221782657555
          -0.5615617575812215 -0.6329741813322746 -0.6556947282920353 0.004613220461519317 -0.01767089297805842 -0.09046241965397349
          -0.20139159647449548 -0.32878498161313086 -0.4550699479985658 -0.5648513127002215 -0.6362198021558793 -0.6572047359216912
          0.007146284947865112 -0.016335766373683405 -0.08808704573410174 -0.19931621742038996 -0.3286275809825191 -0.4570583302573594
          -0.5662818191036706 -0.6365369515101498 -0.6582287820978957 0.009737388981601165 -0.01395284127489299 -0.08634449842220118
          -0.19785059664694316 -0.32747301029113884 -0.45624991607102167 -0.5663919670365842 -0.6372092296474657 -0.6591621126554508
          0.011061041202089728 -0.012244732504077684 -0.08446776126346613 -0.19605477532995463 -0.3259225523552453 -0.45555129444618214
          -0.5665222586666667 -0.6376931927223187 -0.6598025509628552 0.011896472112333084 -0.011226245421227653 -0.08336044998141029
          -0.19493273380251908 -0.32485165160222607 -0.4547138912227783 -0.5661016968443354 -0.6376396687740165 -0.660082473679476
          0.013373914503594294 -0.009949771284103657 -0.08225091577545565 -0.1939337402175781 -0.3238609628548471 -0.45376044623888345
          -0.5653167822440787 -0.637244899091669 -0.6601354034412893 0.009258474984689444 -0.012313900527624353 -0.08347098435925654
          -0.19493280279118377 -0.32494812377395055 -0.4549070725611263 -0.5665789876016766 -0.6382583529115073 -0.660260003654026
          0.0036274796534968047 -0.014474318706754467 -0.0849563375703666 -0.19657996373524558 -0.32663219288710765 -0.45665623594117416
          -0.5683849104103647 -0.6391280700130761 -0.660260003654026
        </DataArray>
        <DataArray type="Float64" Name="Sigma" NumberOfComponents="6" format="ascii" RangeMin="0" RangeMax="16.1245154965971">
          16 0 0 -2 0 0
          9 0 0 -1.5 0 0
          4 0 0 -1 0 0
          1 0 0 -0.5 0 0
          0.19203678301441887 0 0 -0.2936683988467135 0 0
          0 0 0 0 0 0
          0.36072849809953456 0.001571187318557666 0 -0.30899303912048637 0 0
          0.34866994437288545 -0.008002495693202744 0 -0.24497639613908287 0 0
          0.1689783542877845 0.01178622129167871 0 -0.1755046988125152 0 0
          1 0 0 0.5 0 0
          0.026814585575729032 0.029403784822761004 0 2.729995978676588e-16 0 0
          4 0 0 1 0 0
          0.16897835428778288 0.011786221291681099 0 0.17550469881251363 0 0
          9 0 0 1.5000000000000002 0 0
          0.34866994437288623 -0.008002495693209957 0 0.24497639613907732 0 0
          16 0 0 2 0 0
          0.7170851353646964 0 0 -0.45592268484304166 0 0
          0.360728498099538 0.0015711873185575247 0 0.308993039120486 0 0
          0.09698329406037787 -0.005552477140694405 0 -0.2671539026159643 0 0
          -0.18374483324165944 -0.007253577301947169 0 0.011261252721437428 0 0
          -0.05210046661144724 0.014598061365811247 0 -0.02925443765821654 0 0
          0.19203678301442104 0 0 0.2936683988467112 0 0
          0.001428928520165961 0.018778036701017492 0 -2.420868807691059e-15 0 0
          -0.05210046661144804 0.014598061365813266 0 0.02925443765821815 0 0
          -0.18374483324166144 -0.007253577301948511 0 -0.01126125272143751 0 0
          0.09698329406037964 -0.0055524771406975345 0 0.26715390261595634 0 0
          0.7170851353647075 0 0 0.4559226848430408 0 0
          0.5248575312025008 0 0 -0.5109689994545517 0 0
          0.16732762733424858 0.003829790952054396 0 -0.24019991255834636 0 0
          0.02709543302271605 0.00012737695738843877 0 -0.05508944069627042 0 0
          0.0336409430057458 -0.005828967252208946 0 -0.046182398687878976 0 0
          -0.00630215316659292 -0.007862752869778378 0 4.497916346873751e-16 0 0
          0.033640943005745695 -0.005828967252211685 0 0.04618239868788061 0 0
          0.02709543302271809 0.00012737695739095821 0 0.05508944069627373 0 0
          0.1673276273342476 0.003829790952048102 0 0.2401999125583476 0 0
          0.5248575312024931 0 0 0.5109689994545398 0 0
          0.535180407530954 0 0 -0.5481999131993901 0 0
          0.12170301457692538 -0.0008088333587116282 0 -0.21180651800647607 0 0
          -0.05175458034958575 0.0013601728820823425 0 -0.04235615863200267 0 0
          -0.004667310534210824 0.0008691981308854821 0 -0.03965110201096273 0 0
          0.005179632191808028 0.0009661362413050111 0 1.2415789394176315e-15 0 0
          -0.004667310534211174 0.0008691981308833491 0 0.03965110201096118 0 0
          -0.05175458034958391 0.0013601728820808558 0 0.04235615863200448 0 0
          0.12170301457692476 -0.0008088333587082063 0 0.21180651800647785 0 0
          0.5351804075309505 0 0 0.5481999131993877 0 0
          0.5165570224293378 0 0 -0.5564542812304678 0 0
          0.1403878182830534 -0.00000407857486556312 0 -0.21561418650475644 0 0
          -0.016218344163625043 -0.0007121396681065238 0 -0.047504988630004186 0 0
          0.011516287660385108 0.00019380548124280048 0 -0.0413344562817438 0 0
          0.00011448030433502267 0.0003098125835588435 0 -1.4852420788869814e-15 0 0
          0.011516287660385002 0.0001938054812418729 0 0.041334456281742565 0 0
          -0.01621834416362501 -0.0007121396681087245 0 0.04750498863000417 0 0
          0.14038781828305616 -0.000004078574865356575 0 0.21561418650475753 0 0
          0.5165570224293387 0 0 0.5564542812304668 0 0
          0.5209712633666155 0 0 -0.555038971363013 0 0
          0.13281281930871364 0.00009062570315543859 0 -0.21223430405443053 0 0
          -0.031143885657848747 0.0002717250090477239 0 -0.04680843398274484 0 0
          0.004843911331094803 -0.00025601964006008817 0 -0.04105168155542253 0 0
          0.0014883227950465232 -0.00027186766320315517 0 2.6541731775372057e-16 0 0
          0.004843911331094096 -0.00025601964006762305 0 0.04105168155542246 0 0
          -0.031143885657849982 0.00027172500904801093 0 0.046808433982745264 0 0
          0.13281281930871294 0.00009062570315822744 0 0.21223430405443164 0 0
          0.5209712633666095 0 0 0.555038971363014 0 0
          0.519055855659517 0 0 -0.556476837662143 0 0
          0.1350600022066927 -0.0000650475657447326 0 -0.2134474189851407 0 0
          -0.024951288718213456 -0.00008836005333721491 0 -0.046453854909023665 0 0
          0.007393775605453504 0.00018113534842459126 0 -0.040817368193854606 0 0
          0.001283117737072619 0.00013436181762422735 0 1.649722025653943e-15 0 0
          0.007393775605453747 0.0001811353484237884 0 0.04081736819385382 0 0
          -0.024951288718213376 -0.00008836005333665413 0 0.04645385490902201 0 0
          0.13506000220669287 -0.00006504756574631852 0 0.21344741898513872 0 0
          0.519055855659524 0 0 0.5564768376621411 0 0
          0.5190353916289798 0 0 -0.5544627958722386 0 0
          0.13658418891919333 0.00007951611926640424 0 -0.2135447171860448 0 0
          -0.027017739061994346 0.000011807450512007293 0 -0.047504891631339204 0 0
          0.007137582165673167 -0.00018260768720253454 0 -0.040702431105937686 0 0
          0.0009002080315665036 0.000046246858188366356 0 -3.8403753599080967e-16 0 0
          0.007137582165673325 -0.00018260768720115887 0 0.04070243110593828 0 0
          -0.027017739061993392 0.000011807450512259573 0 0.047504891631340876 0 0
          0.13658418891919352 0.00007951611926644044 0 0.21354471718604698 0 0
          0.5190353916289733 0 0 0.5544627958722373 0 0
          0.5272597148910882 0 0 -0.5589910728285288 0 0
          0.13700606117178127 -0.00020230779101170437 0 -0.2111293830476369 0 0
          -0.02048524580141713 0.00007277522083123876 0 -0.04361001857610291 0 0
          0.007706469589472245 0.00030104550837299106 0 -0.04152460184358142 0 0
          -0.00007908685006518761 -0.00040344870192554643 0 1.6415440435529099e-16 0 0
          0.007706469589471925 0.0003010455083718892 0 0.041524601843580713 0 0
          -0.02048524580141778 0.00007277522083119717 0 0.043610018576102375 0 0
          0.13700606117178224 -0.00020230779101084205 0 0.21112938304763654 0 0
          0.5272597148910906 0 0 0.5589910728285293 0 0
          0.47321893536818305 0.00016435932756481416 0 -0.5346088758334989 0 0
          0.10600058812763705 -0.00004537686015021083 0 -0.22178404461898873 0 0
          -0.0059300365779739374 0.000014857765651435246 0 -0.035258288857314836 0 0
          0.0073329132948954275 0.000022369994614007724 0 -0.04376930955667045 0 0
          -0.0025373713108936685 -0.00010721991897342006 0 1.2177758801357189e-16 0 0
          0.007332913294895877 0.00002236999461346611 0 0.04376930955667038 0 0
          -0.0059300365779737544 0.000014857765651896984 0 0.03525828885731482 0 0
          0.10600058812763606 -0.000045376860150127415 0 0.221784044618989 0 0
          0.47321893536818027 0.00016435932756416144 0 0.5346088758334991 0 0
          <InformationKey name="L2_NORM_RANGE" location="vtkDataArray" length="2">
            <Value index="0">
              0
            </Value>
            <Value index="1">
              16.124515497
            </Value>
          </InformationKey>
        </DataArray>
      </PointData>
      <CellData>
        <DataArray type="UInt8" Name="vtkGhostType" format="ascii" RangeMin="0" RangeMax="0">
          0 0 0 0 0 0
          0 0 0 0 0 0
          0 0 0 0 0 0
          0 0 0 0 0 0
          0 0 0 0 0 0
          0 0 0 0 0 0
          0 0 0 0 0 0
          0 0 0 0 0 0
          0 0 0 0 0 0
          0 0 0 0 0 0
          0 0 0 0 0 0
          0 0 0 0 0 0
          0 0 0 0 0 0
          0 0
        </DataArray>
        <DataArray type="Float64" Name="NN-Viscosity" format="ascii" RangeMin="0.002278690916287159" RangeMax="0.24902672313151003">
          0.00456701083877033 0.24902672313151003 0.009764918493288643 0.004503255733650277 0.0030207203508422933 0.0028494839908354912
          0.002828384719021947 0.00281424464853686 0.0028603372805212995 0.002966742798643136 0.004414823872425623 0.04216820022712579
          0.010303011325369654 0.010150609260691544 0.010604131912060917 0.010605854936786308 0.010656803928763794 0.010604154946865932
          0.010652277429615772 0.010877250589098084 0.00266023794090735 0.013403830740484748 0.013836823314567016 0.024659216233786307
          0.017456253326472524 0.019581232033092835 0.01826424885515201 0.018773416889752703 0.019846674906758024 0.02531717917046932
          0.002278690916287159 0.0024583267805878247 0.0034993542290982964 0.0026916602809576107 0.0026221335127152717 0.0026500536010496374
          0.0026256639358184274 0.0026598891984127393 0.002637618648318945 0.0025744303406876447 0.002278690916287169 0.0024583267805879314
          0.0034993542290986048 0.0026916602809575144 0.0026221335127151702 0.002650053601049649 0.0026256639358182552 0.0026598891984126643
          0.002637618648318974 0.0025744303406876157 0.002660237940907356 0.013403830740484818 0.01383682331456709 0.024659216233785933
          0.017456253326472316 0.01958123203309283 0.0182642488551523 0.018773416889752616 0.019846674906757893 0.025317179170469606
          0.004414823872425626 0.04216820022712662 0.010303011325369597 0.01015060926069172 0.010604131912061077 0.010605854936786435
          0.010656803928763817 0.010604154946865974 0.01065227742961585 0.010877250589098105 0.004567010838770304 0.24902672313150784
          0.009764918493288675 0.004503255733650171 0.0030207203508423055 0.0028494839908355394 0.0028283847190219537 0.0028142446485368592
          0.0028603372805213207 0.0029667427986431374
        </DataArray>
      </CellData>
      <Points>
        <DataArray type="Float32" Name="Points" NumberOfComponents="3" format="ascii" RangeMin="0" RangeMax="5.024937810560445">
          0 0.5 0 0 0.375 0
          0 0.25 0 0 0.125 0
          0.5 0.5 0 0 0 0
          0.5 0.375 0 0.5 0.25 0
          0.5 0.125 0 0 -0.125 0
          0.5 0 0 0 -0.25 0
          0.5 -0.125 0 0 -0.375 0
          0.5 -0.25 0 0 -0.5 0
          1 0.5 0 0.5 -0.375 0
          1 0.375 0 1 0.25 0
          1 0.125 0 0.5 -0.5 0
          1 0 0 1 -0.125 0
          1 -0.25 0 1 -0.375 0
          1 -0.5 0 1.5 0.5 0
          1.5 0.375 0 1.5 0.25 0
          1.5 0.125 0 1.5 0 0
          1.5 -0.125 0 1.5 -0.25 0
          1.5 -0.375 0 1.5 -0.5 0
          2 0.5 0 2 0.375 0
          2 0.25 0 2 0.125 0
          2 0 0 2 -0.125 0
          2 -0.25 0 2 -0.375 0
          2 -0.5 0 2.5 0.5 0
          2.5 0.375 0 2.5 0.25 0
          2.5 0.125 0 2.5 0 0
          2.5 -0.125 0 2.5 -0.25 0
          2.5 -0.375 0 2.5 -0.5 0
          3 0.5 0 3 0.375 0
          3 0.25 0 3 0.125 0
          3 0 0 3 -0.125 0
          3 -0.25 0 3 -0.375 0
          3 -0.5 0 3.5 0.5 0
          3.5 0.375 0 3.5 0.25 0
          3.5 0.125 0 3.5 0 0
          3.5 -0.125 0 3.5 -0.25 0
          3.5 -0.375 0 3.5 -0.5 0
          4 0.5 0 4 0.375 0
          4 0.25 0 4 0.125 0
          4 0 0 4 -0.125 0
          4 -0.25 0 4 -0.375 0
          4 -0.5 0 4.5 0.5 0
          4.5 0.375 0 4.5 0.25 0
          4.5 0.125 0 4.5 0 0
          4.5 -0.125 0 4.5 -0.25 0
          4.5 -0.375 0 4.5 -0.5 0
          5 0.5 0 5 0.375 0
          5 0.25 0 5 0.125 0
          5 0 0 5 -0.125 0
          5 -0.25 0 5 -0.375 0
          5 -0.5 0
          <InformationKey name="L2_NORM_RANGE" location="vtkDataArray" length="2">
            <Value index="0">
              0
            </Value>
            <Value index="1">
              5.0249378106
            </Value>
          </InformationKey>
        </DataArray>
      </Points>
      <Cells>
        <DataArray type="Int64" Name="connectivity" format="ascii" RangeMin="0" RangeMax="98">
          21 17 13 15 26 25
          17 21 35 34 25 26
          44 43 34 35 53 52
          43 44 62 61 52 53
          71 70 61 62 80 79
          70 71 89 88 79 80
          98 97 88 89 17 14
          11 13 25 24 14 17
          34 33 24 25 43 42
          33 34 52 51 42 43
          61 60 51 52 70 69
          60 61 79 78 69 70
          88 87 78 79 97 96
          87 88 14 12 9 11
          24 23 12 14 33 32
          23 24 42 41 32 33
          51 50 41 42 60 59
          50 51 69 68 59 60
          78 77 68 69 87 86
          77 78 96 95 86 87
          12 10 5 9 23 22
          10 12 32 31 22 23
          41 40 31 32 50 49
          40 41 59 58 49 50
          68 67 58 59 77 76
          67 68 86 85 76 77
          95 94 85 86 10 8
          3 5 22 20 8 10
          31 30 20 22 40 39
          30 31 49 48 39 40
          58 57 48 49 67 66
          57 58 76 75 66 67
          85 84 75 76 94 93
          84 85 8 7 2 3
          20 19 7 8 30 29
          19 20 39 38 29 30
          48 47 38 39 57 56
          47 48 66 65 56 57
          75 74 65 66 84 83
          74 75 93 92 83 84
          7 6 1 2 19 18
          6 7 29 28 18 19
          38 37 28 29 47 46
          37 38 56 55 46 47
          65 64 55 56 74 73
          64 65 83 82 73 74
          92 91 82 83 6 4
          0 1 18 16 4 6
          28 27 16 18 37 36
          27 28 46 45 36 37
          55 54 45 46 64 63
          54 55 73 72 63 64
          82 81 72 73 91 90
          81 82
        </DataArray>
        <DataArray type="Int64" Name="offsets" format="ascii" RangeMin="4" RangeMax="320">
          4 8 12 16 20 24
          28 32 36 40 44 48
          52 56 60 64 68 72
          76 80 84 88 92 96
          100 104 108 112 116 120
          124 128 132 136 140 144
          148 152 156 160 164 168
          172 176 180 184 188 192
          196 200 204 208 212 216
          220 224 228 232 236 240
          244 248 252 256 260 264
          268 272 276 280 284 288
          292 296 300 304 308 312
          316 320
        </DataArray>
        <DataArray type="UInt8" Name="types" format="ascii" RangeMin="9" RangeMax="9">
          9 9 9 9 9 9
          9 9 9 9 9 9
          9 9 9 9 9 9
          9 9 9 9 9 9
          9 9 9 9 9 9
          9 9 9 9 9 9
          9 9 9 9 9 9
          9 9 9 9 9 9
          9 9 9 9 9 9
          9 9 9 9 9 9
          9 9 9 9 9 9
          9 9 9 9 9 9
          9 9 9 9 9 9
          9 9
        </DataArray>
      </Cells>
    </Piece>
  </UnstructuredGrid>
</VTKFile>
