<?xml version="1.0"?>
<VTKFile type="UnstructuredGrid" version="0.1" byte_order="LittleEndian" header_type="UInt32" compressor="vtkZLibDataCompressor">
  <UnstructuredGrid>
    <Piece NumberOfPoints="177" NumberOfCells="282">
      <PointData>
        <DataArray type="Float64" Name="ale_BC" NumberOfComponents="3" format="ascii" RangeMin="0" RangeMax="0">
          0 0 0 0 0 0
          0 0 0 0 0 0
          0 0 0 0 0 0
          0 0 0 0 0 0
          0 0 0 0 0 0
          0 0 0 0 0 0
          0 0 0 0 0 0
          0 0 0 0 0 0
          0 0 0 0 0 0
          0 0 0 0 0 0
          0 0 0 0 0 0
          0 0 0 0 0 0
          0 0 0 0 0 0
          0 0 0 0 0 0
          0 0 0 0 0 0
          0 0 0 0 0 0
          0 0 0 0 0 0
          0 0 0 0 0 0
          0 0 0 0 0 0
          0 0 0 0 0 0
          0 0 0 0 0 0
          0 0 0 0 0 0
          0 0 0 0 0 0
          0 0 0 0 0 0
          0 0 0 0 0 0
          0 0 0 0 0 0
          0 0 0 0 0 0
          0 0 0 0 0 0
          0 0 0 0 0 0
          0 0 0 0 0 0
          0 0 0 0 0 0
          0 0 0 0 0 0
          0 0 0 0 0 0
          0 0 0 0 0 0
          0 0 0 0 0 0
          0 0 0 0 0 0
          0 0 0 0 0 0
          0 0 0 0 0 0
          0 0 0 0 0 0
          0 0 0 0 0 0
          0 0 0 0 0 0
          0 0 0 0 0 0
          0 0 0 0 0 0
          0 0 0 0 0 0
          0 0 0 0 0 0
          0 0 0 0 0 0
          0 0 0 0 0 0
          0 0 0 0 0 0
          0 0 0 0 0 0
          0 0 0 0 0 0
          0 0 0 0 0 0
          0 0 0 0 0 0
          0 0 0 0 0 0
          0 0 0 0 0 0
          0 0 0 0 0 0
          0 0 0 0 0 0
          0 0 0 0 0 0
          0 0 0 0 0 0
          0 0 0 0 0 0
          0 0 0 0 0 0
          0 0 0 0 0 0
          0 0 0 0 0 0
          0 0 0 0 0 0
          0 0 0 0 0 0
          0 0 0 0 0 0
          0 0 0 0 0 0
          0 0 0 0 0 0
          0 0 0 0 0 0
          0 0 0 0 0 0
          0 0 0 0 0 0
          0 0 0 0 0 0
          0 0 0 0 0 0
          0 0 0 0 0 0
          0 0 0 0 0 0
          0 0 0 0 0 0
          0 0 0 0 0 0
          0 0 0 0 0 0
          0 0 0 0 0 0
          0 0 0 0 0 0
          0 0 0 0 0 0
          0 0 0 0 0 0
          0 0 0 0 0 0
          0 0 0 0 0 0
          0 0 0 0 0 0
          0 0 0 0 0 0
          0 0 0 0 0 0
          0 0 0 0 0 0
          0 0 0 0 0 0
          0 0 0
          <InformationKey name="L2_NORM_RANGE" location="vtkDataArray" length="2">
            <Value index="0">
              0
            </Value>
            <Value index="1">
              0
            </Value>
          </InformationKey>
        </DataArray>
        <DataArray type="Float64" Name="ale_FIXNO" NumberOfComponents="3" format="ascii" RangeMin="1.4142135623730951" RangeMax="5.656854249492381">
          1 1 0 1 1 0
          1 1 0 1 1 0
          -1 -1 0 1 1 0
          -1 -1 0 -1 -1 0
          1 1 0 1 1 0
          1 1 0 -1 -1 0
          -1 -1 0 -1 -1 0
          1 1 0 1 1 0
          -1 -1 0 -1 -1 0
          -1 -1 0 1 1 0
          1 1 0 -1 -1 0
          -1 -1 0 -1 -1 0
          1 1 0 1 1 0
          -1 -1 0 -1 -1 0
          -1 -1 0 -1 -1 0
          -1 -1 0 1 1 0
          1 1 0 -1 -1 0
          -1 -1 0 -1 -1 0
          -1 -1 0 -1 -1 0
          1 1 0 1 1 0
          -1 -1 0 -1 -1 0
          -1 -1 0 -1 -1 0
          -1 -1 0 1 1 0
          -1 -1 0 -1 -1 0
          -1 -1 0 -1 -1 0
          -1 -1 0 -1 -1 0
          -1 -1 0 4 4 0
          4 4 0 4 4 0
          1 1 0 -1 -1 0
          -1 -1 0 -1 -1 0
          4 4 0 4 4 0
          -1 -1 0 -1 -1 0
          -1 -1 0 1 1 0
          1 1 0 -1 -1 0
          -1 -1 0 -1 -1 0
          4 4 0 4 4 0
          -1 -1 0 -1 -1 0
          -1 -1 0 1 1 0
          1 1 0 -1 -1 0
          -1 -1 0 -1 -1 0
          4 4 0 4 4 0
          -1 -1 0 -1 -1 0
          -1 -1 0 1 1 0
          1 1 0 -1 -1 0
          -1 -1 0 -1 -1 0
          4 4 0 4 4 0
          -1 -1 0 -1 -1 0
          -1 -1 0 1 1 0
          1 1 0 -1 -1 0
          -1 -1 0 -1 -1 0
          4 4 0 -1 -1 0
          4 4 0 -1 -1 0
          -1 -1 0 -1 -1 0
          -1 -1 0 -1 -1 0
          -1 -1 0 -1 -1 0
          -1 -1 0 -1 -1 0
          -1 -1 0 -1 -1 0
          -1 -1 0 -1 -1 0
          -1 -1 0 4 4 0
          4 4 0 -1 -1 0
          -1 -1 0 -1 -1 0
          -1 -1 0 -1 -1 0
          -1 -1 0 1 1 0
          -1 -1 0 -1 -1 0
          4 4 0 -1 -1 0
          -1 -1 0 4 4 0
          -1 -1 0 -1 -1 0
          1 1 0 -1 -1 0
          -1 -1 0 4 4 0
          1 1 0 1 1 0
          4 4 0 -1 -1 0
          1 1 0 1 1 0
          -1 -1 0 1 1 0
          1 1 0 -1 -1 0
          1 1 0 1 1 0
          -1 -1 0 -1 -1 0
          1 1 0 1 1 0
          -1 -1 0 -1 -1 0
          1 1 0 1 1 0
          -1 -1 0 -1 -1 0
          1 1 0 1 1 0
          1 1 0 -1 -1 0
          1 1 0 -1 -1 0
          1 1 0 -1 -1 0
          -1 -1 0 -1 -1 0
          1 1 0 -1 -1 0
          1 1 0 1 1 0
          1 1 0 1 1 0
          1 1 0
          <InformationKey name="L2_NORM_RANGE" location="vtkDataArray" length="2">
            <Value index="0">
              1.4142135624
            </Value>
            <Value index="1">
              5.6568542495
            </Value>
          </InformationKey>
        </DataArray>
        <DataArray type="Float64" Name="nsi_BC" NumberOfComponents="3" format="ascii" RangeMin="0" RangeMax="1.5">
          0 0 0 1.5 0 0
          1.5 0 0 0 0 0
          1.5 0 0 1.5 0 0
          1.5 0 0 1.5 0 0
          0 0 0 0 0 0
          0 0 0 1.5 0 0
          1.5 0 0 1.5 0 0
          0 0 0 0 0 0
          1.5 0 0 1.5 0 0
          1.5 0 0 0 0 0
          0 0 0 1.5 0 0
          1.5 0 0 1.5 0 0
          0 0 0 0 0 0
          1.5 0 0 1.5 0 0
          1.5 0 0 1.5 0 0
          1.5 0 0 0 0 0
          0 0 0 1.5 0 0
          1.5 0 0 1.5 0 0
          1.5 0 0 1.5 0 0
          0 0 0 0 0 0
          1.5 0 0 1.5 0 0
          1.5 0 0 1.5 0 0
          1.5 0 0 0 0 0
          1.5 0 0 1.5 0 0
          1.5 0 0 1.5 0 0
          1.5 0 0 1.5 0 0
          1.5 0 0 0 0 0
          0 0 0 0 0 0
          0 0 0 1.5 0 0
          1.5 0 0 1.5 0 0
          0 0 0 0 0 0
          1.5 0 0 1.5 0 0
          1.5 0 0 0 0 0
          0 0 0 1.5 0 0
          1.5 0 0 1.5 0 0
          0 0 0 0 0 0
          1.5 0 0 1.5 0 0
          1.5 0 0 0 0 0
          0 0 0 1.5 0 0
          1.5 0 0 1.5 0 0
          0 0 0 0 0 0
          1.5 0 0 1.5 0 0
          1.5 0 0 0 0 0
          0 0 0 1.5 0 0
          1.5 0 0 1.5 0 0
          0 0 0 0 0 0
          1.5 0 0 1.5 0 0
          1.5 0 0 0 0 0
          0 0 0 1.5 0 0
          1.5 0 0 1.5 0 0
          0 0 0 1.5 0 0
          0 0 0 1.5 0 0
          1.5 0 0 1.5 0 0
          1.5 0 0 1.5 0 0
          1.5 0 0 1.5 0 0
          1.5 0 0 1.5 0 0
          1.5 0 0 1.5 0 0
          1.5 0 0 1.5 0 0
          1.5 0 0 0 0 0
          0 0 0 1.5 0 0
          1.5 0 0 1.5 0 0
          1.5 0 0 1.5 0 0
          1.5 0 0 0 0 0
          1.5 0 0 1.5 0 0
          0 0 0 1.5 0 0
          1.5 0 0 0 0 0
          1.5 0 0 1.5 0 0
          0 0 0 1.5 0 0
          1.5 0 0 0 0 0
          0 0 0 0 0 0
          0 0 0 1.5 0 0
          0 0 0 0 0 0
          1.5 0 0 0 0 0
          0 0 0 1.5 0 0
          0 0 0 0 0 0
          1.5 0 0 1.5 0 0
          0 0 0 0 0 0
          1.5 0 0 1.5 0 0
          0 0 0 0 0 0
          1.5 0 0 1.5 0 0
          0 0 0 0 0 0
          0 0 0 1.5 0 0
          0 0 0 1.5 0 0
          0 0 0 1.5 0 0
          1.5 0 0 1.5 0 0
          0 0 0 1.5 0 0
          0 0 0 1.339432 0 0
          1.498641 0 0 1.313156 0 0
          0 0 0
          <InformationKey name="L2_NORM_RANGE" location="vtkDataArray" length="2">
            <Value index="0">
              0
            </Value>
            <Value index="1">
              1.5
            </Value>
          </InformationKey>
        </DataArray>
        <DataArray type="Float64" Name="nsi_FIXNO" NumberOfComponents="3" format="ascii" RangeMin="0" RangeMax="1.4142135623730951">
          1 1 0 0 0 0
          0 0 0 1 1 0
          0 0 0 0 0 0
          0 0 0 0 0 0
          1 1 0 1 1 0
          1 1 0 0 0 0
          0 0 0 0 0 0
          1 1 0 1 1 0
          0 0 0 0 0 0
          0 0 0 1 1 0
          1 1 0 0 0 0
          0 0 0 0 0 0
          1 1 0 1 1 0
          0 0 0 0 0 0
          0 0 0 0 0 0
          0 0 0 1 1 0
          1 1 0 0 0 0
          0 0 0 0 0 0
          0 0 0 0 0 0
          1 1 0 1 1 0
          0 0 0 0 0 0
          0 0 0 0 0 0
          0 0 0 1 1 0
          0 0 0 0 0 0
          0 0 0 0 0 0
          0 0 0 0 0 0
          0 0 0 1 1 0
          1 1 0 1 1 0
          1 1 0 0 0 0
          0 0 0 0 0 0
          1 1 0 1 1 0
          0 0 0 0 0 0
          0 0 0 1 1 0
          1 1 0 0 0 0
          0 0 0 0 0 0
          1 1 0 1 1 0
          0 0 0 0 0 0
          0 0 0 1 1 0
          1 1 0 0 0 0
          0 0 0 0 0 0
          1 1 0 1 1 0
          0 0 0 0 0 0
          0 0 0 1 1 0
          1 1 0 0 0 0
          0 0 0 0 0 0
          1 1 0 1 1 0
          0 0 0 0 0 0
          0 0 0 1 1 0
          1 1 0 0 0 0
          0 0 0 0 0 0
          1 1 0 0 0 0
          1 1 0 0 0 0
          0 0 0 0 0 0
          0 0 0 0 0 0
          0 0 0 0 0 0
          0 0 0 0 0 0
          0 0 0 0 0 0
          0 0 0 0 0 0
          0 0 0 1 1 0
          1 1 0 0 0 0
          0 0 0 0 0 0
          0 0 0 0 0 0
          0 0 0 1 1 0
          0 0 0 0 0 0
          1 1 0 0 0 0
          0 0 0 1 1 0
          0 0 0 0 0 0
          1 1 0 0 0 0
          0 0 0 1 1 0
          1 1 0 1 1 0
          1 1 0 0 0 0
          1 1 0 1 1 0
          0 0 0 1 1 0
          1 1 0 0 0 0
          1 1 0 1 1 0
          0 0 0 0 0 0
          1 1 0 1 1 0
          0 0 0 0 0 0
          1 1 0 1 1 0
          0 0 0 0 0 0
          1 1 0 1 1 0
          1 1 0 0 0 0
          1 1 0 0 0 0
          1 1 0 0 0 0
          0 0 0 0 0 0
          1 1 0 0 0 0
          1 1 0 1 1 0
          1 1 0 1 1 0
          1 1 0
          <InformationKey name="L2_NORM_RANGE" location="vtkDataArray" length="2">
            <Value index="0">
              0
            </Value>
            <Value index="1">
              1.4142135624
            </Value>
          </InformationKey>
        </DataArray>
        <DataArray type="Float64" Name="Velocity" NumberOfComponents="3" format="ascii" RangeMin="0" RangeMax="2.0699124715357518">
          0 0 0 1.1455499582434379 0.06775237556878937 0
          1.2733922647097697 -0.031801212767891406 0 0 0 0
          1.5360751703122562 -0.0002052384033927826 0 1.2570014774872185 -0.014020122088286636 0
          1.5374673573214934 -0.008166635769108515 0 1.5294104976821437 0.0010678082366186105 0
          0 0 0 0 0 0
          0 0 0 1.4920291312947966 0.006132552760941895 0
          1.493264966621015 0.007813456366382216 0 1.491270323758692 0.002039754022789791 0
          0 0 0 0 0 0
          1.475146835541294 0.0066146219050977504 0 1.4813876270485358 0.006605892713731913 0
          1.4717608876307942 0.005458928571635533 0 0 0 0
          0 0 0 1.4581725757687023 0.0010776507827526193 0
          1.4686734440877767 0.007301161541162103 0 1.4615675944934243 0.0077242506161019 0
          0 0 0 0 0 0
          1.4337615263816412 0.010152655679702964 0 1.4538712351051915 0.003087903201440172 0
          1.4506278901972318 0.00043058534646876577 0 1.4527602871470315 0.0045505780392163546 0
          1.4319023701666127 0.002161575062054523 0 0 0 0
          0 0 0 1.439910227081073 0.0017554827282594064 0
          1.4475173804558346 0.004001091264497535 0 1.4476493830993007 -0.0018463998497143083 0
          1.4544512237018343 0.004265319558586064 0 1.4270445565879235 0.004473628647595566 0
          0 0 0 0 0 0
          1.4325497042455355 -0.0028729223107434305 0 1.4509442884465766 -0.0029842832401377668 0
          1.4371100381201363 -0.0019050945119678398 0 1.445596056856248 0.018174091025793527 0
          1.448298058967321 0.006929350131085621 0 0 0 0
          1.4575828287174801 -0.018575138533211397 0 1.480810548774725 -0.04816264021051204 0
          1.4486285015507139 -0.053578439364895356 0 1.4121379011269855 0.017537102623611425 0
          1.4574489477129648 0.07088781995621223 0 1.4777922475935703 0.05916790583812299 0
          1.4535882982241637 0.018436010966048105 0 0.020245879178235168 -0.05516308181977381 0
          0.003340693327008212 -0.031009121592894904 0 -0.006215467800843921 -0.023851244150503617 0
          0 0 0 1.47462549044164 -0.015112861233583236 0
          1.4863355684206945 -0.03709058684484574 0 1.476350630050693 -0.04514981761118593 0
          -0.00026254325493607194 -0.00022372376278105013 0 0.0001500674826170503 -0.00009157696117068046 0
          1.4831118668646648 0.044573270669347714 0 1.4805248452404212 0.0601755139012386 0
          1.4670756125702098 0.021475085429617062 0 0 0 0
          0 0 0 1.4705178952861029 -0.014724937272338905 0
          1.4824990179625943 -0.027293090181102393 0 1.480704256263463 -0.029427916500367524 0
          -0.0000025291961893746316 0.000005252590510050333 0 0.0000033682826660214532 0.000006257105947444768 0
          1.4842254311431025 0.027571947351957272 0 1.4905611951164273 0.04188833770298663 0
          1.4740160468852797 0.01913595510250999 0 0 0 0
          0 0 0 1.471075809722759 -0.016143551744726918 0
          1.484371156669501 -0.03237406205601903 0 1.4553944936070382 -0.01736696514504332 0
          2.1048178584640783e-8 -3.5329512305144718e-9 0 -1.9873355736518176e-8 -1.7941672685906921e-9 0
          1.462489979295094 0.03461458266456883 0 1.485155797644942 0.030524758015892106 0
          1.4744330573787796 0.02351825584441596 0 0 0 0
          0 0 0 1.467408080859283 -0.01897141337087418 0
          1.4616148611297524 -0.04389212813017076 0 1.4494595267241512 -0.038101754565015265 0
          6.477334491932217e-10 -1.1211079335428062e-9 0 -6.190450330710919e-10 -1.0858844570115739e-9 0
          1.439088599876677 0.04852489541339344 0 1.4741519340494442 0.027501219644860204 0
          1.471480208745479 0.03419788167062794 0 0 0 0
          0 0 0 1.518130237659537 -0.03889641843156418 0
          1.4605043643415612 -0.08114750723239653 0 1.342981788194265 -0.05323725016241921 0
          6.896538526426459e-12 -3.02702758385787e-11 0 1.358695902871902 -0.09637916354764801 0
          -6.951675206355943e-12 -3.004090475526117e-11 0 1.341921781207669 0.055004700728717916 0
          1.4463258420095553 -0.13546777627687698 0 1.320111029213561 -0.10683543017983975 0
          1.3638157330065008 -0.11159313145391181 0 1.4552696452209 0.09926657172822946 0
          1.3209767489720392 -0.08557261210995432 0 1.3060524719876536 -0.13061612180675683 0
          1.3100131921025155 0.10716598980047885 0 1.3271735369980078 -0.13958780450954716 0
          1.5200951034545234 0.032993664381389 0 1.4273876949780224 -0.1602468124372078 0
          1.4191060498876906 0.12858078809029827 0 1.3065621358583748 -0.12262738782392292 0
          1.2031558168283925 0.022688881560714583 0 -4.406984325598245e-12 7.468206563824157e-12 0
          4.436647275215599e-12 7.442834257962572e-12 0 1.3920768599183695 0.1852322805341988 0
          1.3957873639638267 -0.16761370760916575 0 1.1006622531124675 -0.056573502542608664 0
          1.2066702727635696 0.2733112274002299 0 1.4440581213519161 0.1654262549873556 0
          1.5246571432858977 0.11861175556215048 0 0 0 0
          1.545225139033742 0.15548233215460114 0 1.4964299589475547 0.18530714805562382 0
          -1.1811531964348628e-12 -1.5632097767960848e-12 0 1.0929326522350529 0.0330960221576932 0
          1.3524372688618755 0.25115905534362143 0 1.0437798438819886e-12 -1.3866514717363759e-12 0
          1.0816517759290616 -0.0032333133545237674 0 1.2349340179541919 -0.20674229907599848 0
          0 0 0 1.4793888002928783 -0.4528755662619891 0
          1.3872189338048049 0.2950686692159467 0 9.448688874435088e-28 -1.2454215892114058e-27 0
          0 0 0 0 0 0
          1.9903278281755254e-27 2.6341205606726536e-27 0 1.4813531545356087 0.4995248439314667 0
          0 0 0 0 0 0
          1.5889277759065252 -0.02757771271397228 0 0 0 0
          0 0 0 1.9501022064616689 -0.35024165863545886 0
          0 0 0 0 0 0
          1.59524125259551 0.023598116204936428 0 2.0414978632448237 0.3417954273919766 0
          0 0 0 0 0 0
          1.5849790880042718 0.01613033377790266 0 1.6984401214024065 0.2262496616573783 0
          0 0 0 0 0 0
          1.6947852087687707 -0.2791894919463223 0 1.58945352466515 -0.027696790059741086 0
          0 0 0 0 0 0
          0 0 0 1.3019726759825043 0.32597215971849497 0
          0 0 0 1.2741143926399796 -0.3532617879998275 0
          0 0 0 1.4938077645481282 0.0473707994826848 0
          1.1668586012611069 0.02397001005560374 0 1.4951686199759124 -0.08260472870517213 0
          0 0 0 1.4275145004844063 0.019739400514888265 0
          0 0 0 1.339432 0 0
          1.4986410000000001 0 0 1.313156 0 0
          0 0 0
          <InformationKey name="L2_NORM_RANGE" location="vtkDataArray" length="2">
            <Value index="0">
              0
            </Value>
            <Value index="1">
              2.0699124715
            </Value>
          </InformationKey>
        </DataArray>
        <DataArray type="Float64" Name="Pressure" format="ascii" RangeMin="-70150.2065381279" RangeMax="-11148.488785083591">
          -15198.083751695802 -11897.198709336773 -11148.488785083591 -16196.552147806386 -16651.211290018968 -13615.446296317872
          -17273.164697558783 -17335.79532247392 -14526.623333981393 -17338.879126737418 -16398.798203369708 -16150.094345213709
          -15338.513916488575 -15084.286573232659 -15003.786607409673 -19279.794685892502 -19091.947363372787 -18601.016718936065
          -18100.571164822857 -17961.9386624954 -23674.251319151772 -23684.66034882715 -23349.767023759916 -22789.06778562548
          -22447.20135414048 -31358.596303374023 -31083.01464306741 -30729.957859299575 -30682.576457317766 -30504.57999001345
          -30296.42803017645 -30293.57154951193 -39905.354635641146 -39853.86144765624 -39699.99302213765 -39667.53745642671
          -39660.07375328425 -39539.699084299704 -39410.23749636092 -47917.92754976582 -48159.609876560375 -48423.448143241905
          -48595.447670164824 -48353.088614075554 -47698.69649952139 -47315.81753617923 -50306.61536681746 -51232.29674640487
          -52828.84871522205 -53453.26573693779 -52757.023825388 -50665.93228658383 -49820.01153539108 -54318.80931455738
          -54418.117393377004 -54307.16876396384 -51704.129457143266 -52540.755943085176 -53122.38103727652 -54491.96935018365
          -54799.858162267614 -54889.50476642558 -54763.220775859445 -52983.016220386955 -52194.89812818482 -51260.83735478506
          -52679.38200789716 -53469.573121987094 -53953.71585934974 -54938.294350938195 -55075.609360610426 -55033.30393966134
          -54882.70652601228 -53762.81442498408 -53192.378534060554 -52253.30091826124 -53482.09454873571 -54385.73239570159
          -54911.703047023184 -55822.037352004154 -55931.12566762138 -55642.846414880885 -55486.406394563004 -54525.83549563253
          -54033.29653720184 -52950.85276563298 -54155.58167212468 -55334.44303313699 -56122.15814142442 -57363.17883071794
          -57489.46623913147 -57208.49424220788 -56985.43766412843 -55645.58784396118 -54917.24505963238 -53470.01479271953
          -54114.34833488134 -55840.035016983726 -57519.689161104114 -59994.06938432613 -60180.304045722296 -59098.31856339773
          -59780.483185335754 -59530.8744084297 -58599.775064725196 -60026.39858740065 -59692.457549165476 -57043.879413605144
          -61039.26877440118 -60510.92065819851 -59243.07353387205 -60283.60635660018 -55353.78669236184 -59623.31327607242
          -58659.6505078877 -62048.05000690237 -62427.14925156659 -62408.17081222464 -62346.74238453132 -59583.44319298897
          -57278.056397822234 -62436.22817593218 -62228.043975808614 -58256.63138201804 -56999.7575325514 -53771.83465238104
          -59033.35097701916 -57406.47964060764 -68861.67374082575 -68604.86903492107 -68571.29814607318 -68087.33394709381
          -68323.9320966333 -68248.17387632567 -53520.52308708662 -61974.88527845814 -56474.106399685894 -69971.22807723336
          -70150.2065381279 -69968.03384966399 -70072.90478107228 -62556.322686946805 -69944.72604975168 -68989.03422058036
          -53790.50019957259 -65568.09427376172 -65806.47352983286 -56749.709712567885 -53362.89155296379 -57733.924461881725
          -53190.38950018203 -56180.78015323566 -56307.36741800828 -52045.53855192233 -51379.79055132829 -49702.38932837069
          -49896.34514152771 -48233.15739522645 -48884.318940593184 -50847.7212390891 -52166.92439165033 -41598.585455039654
          -40479.57230225664 -42985.83718735767 -35979.369851031865 -42077.19121473564 -50253.80926439127 -48091.99542585492
          -39445.253455025224 -47129.195456932495 -50733.3623635819 -45632.77614881347 -50091.01192272096 -48649.17700005949
          -47666.890339312056 -48066.32152876761 -49957.01261356894
        </DataArray>
        <DataArray type="Float64" Name="BTraction" NumberOfComponents="3" format="ascii" RangeMin="0" RangeMax="70085.62262247714">
          4228.016664066472 10857.865892814467 0 12330.805559477138 -5.789070059405146 0
          11677.790502492007 -0.4560408963172482 0 -14.076433325390541 16088.549676350849 0
          0 0 0 13352.7842655972 6.319389929038607 0
          0 0 0 0 0 0
          4095.1789000219514 -10997.89579494146 0 -14.147336210145713 -16491.733260722263 0
          -13.780201401251679 16792.712404337457 0 0 0 0
          0 0 0 0 0 0
          -15.106672431286798 -15874.66987943484 0 -13.574323981396347 19480.626487643298 0
          0 0 0 0 0 0
          0 0 0 -14.741325694748172 -18157.16658790275 0
          -17.697631333721592 24232.53173468414 0 0 0 0
          0 0 0 0 0 0
          -18.039106587623667 -23029.341522637467 0 -21.92368375041947 31423.981578804807 0
          0 0 0 0 0 0
          0 0 0 0 0 0
          0 0 0 -21.393563066587607 -30435.325511857714 0
          -20.082985268629972 39802.11141239614 0 0 0 0
          0 0 0 0 0 0
          0 0 0 0 0 0
          -21.23643896934694 -39164.30879535998 0 -15.794387091931233 47099.462979955846 0
          0 0 0 0 0 0
          0 0 0 0 0 0
          0 0 0 -17.31137945028325 -46556.964485031225 0
          0 0 0 0 0 0
          0 0 0 0 0 0
          0 0 0 0 0 0
          0 0 0 -8084.063362351744 -46498.68254506261 0
          -54433.287026820166 93.98490696253718 0 -8188.731541141051 46364.04003876845 0
          -13.151690654273938 50828.95011688763 0 0 0 0
          0 0 0 0 0 0
          -125.58576579578713 -54768.72030027332 0 -89.48474700983068 54817.666114623484 0
          0 0 0 0 0 0
          0 0 0 -13.200479879166206 -50351.71188869333 0
          -13.264512767343446 52643.80400378988 0 0 0 0
          0 0 0 0 0 0
          -93.88707165077157 -55163.85225223194 0 -103.12340125471754 55102.225543323286 0
          0 0 0 0 0 0
          0 0 0 -13.406841383408066 -52195.140724010475 0
          -13.255649078583337 53451.940898678724 0 0 0 0
          0 0 0 0 0 0
          -93.96864870566311 -56032.21455427497 0 -101.85567116836228 55786.847249309125 0
          0 0 0 0 0 0
          0 0 0 -13.492018012441072 -52916.31941396567 0
          -13.451499982086126 54028.020901549404 0 0 0 0
          0 0 0 0 0 0
          -91.62713829548846 -57604.079926245184 0 -99.81608258287022 57303.34615437556 0
          0 0 0 0 0 0
          0 0 0 -13.526849327058862 -53419.4764484087 0
          -13.701601121792049 54015.56316389507 0 0 0 0
          0 0 0 0 0 0
          -88.31187245605457 -59741.6867470079 0 0 0 0
          -91.9042931683802 59408.56396826244 0 0 0 0
          0 0 0 0 0 0
          0 0 0 0 0 0
          0 0 0 0 0 0
          0 0 0 0 0 0
          0 0 0 0 0 0
          0 0 0 0 0 0
          0 0 0 -120.83960000800631 -63210.06412201243 0
          -116.74600684715027 63206.387715566634 0 0 0 0
          0 0 0 0 0 0
          0 0 0 0 0 0
          0 0 0 -13.798152639258445 -53652.66012221424 0
          0 0 0 0 0 0
          -86.69206594928728 67757.83649156771 0 0 0 0
          0 0 0 -90.49658119888092 -67127.096250575 0
          0 0 0 0 0 0
          -14.024194702369051 53374.262952616315 0 0 0 0
          0 0 0 -14770.246565925181 -57963.329770966964 0
          -67179.64549993357 -19972.223934342772 0 -58611.4338919028 -35473.718538723464 0
          -11646.553826182584 60571.89077552576 0 0 0 0
          -67201.4030548864 18916.57943582783 0 -58247.05909514862 34934.37257544759 0
          0 0 0 -44335.99482790774 -45528.43425608402 0
          -44081.3082122172 45221.29749930962 0 0 0 0
          -14.404812859213786 -53232.24398083845 0 -21876.24772863189 -52690.50588241462 0
          0 0 0 0 0 0
          -21692.600667994986 51903.392719114694 0 -14.32903309169735 51938.43241169744 0
          0 0 0 0 0 0
          9274.838806850008 -46235.18586012107 0 10203.232035516023 44467.945026493224 0
          0 0 0 0 0 0
          -14.770517298017202 -52081.59594712861 0 26754.214628693026 -27914.452591212143 0
          25948.133471305675 27524.03806412262 0 0 0 0
          34566.78875469163 -494.1433593587933 0 0 0 0
          -12.006877956968266 50420.16561504032 0 0 0 0
          0 0 0 0 0 0
          -11.52137892301063 -50720.34162386977 0 0 0 0
          -25372.31617376962 24510.403503195623 0 -48851.866938237705 6.736636812639228 0
          -47902.61574916372 -0.474093910900856 0 -48441.95956679743 -7.604870995417796 0
          -24529.51191219841 -25254.17927037937 0
          <InformationKey name="L2_NORM_RANGE" location="vtkDataArray" length="2">
            <Value index="0">
              0
            </Value>
            <Value index="1">
              70085.622622
            </Value>
          </InformationKey>
        </DataArray>
        <DataArray type="Float64" Name="ALEdispl" NumberOfComponents="3" format="ascii" RangeMin="0" RangeMax="0.00014840853236258768">
          0 0 0 0 0 0
          0 0 0 0 0 0
          0.000003979028762323109 5.001076960724384e-7 0 0 0 0
          0.00000792591757392481 -7.817596217318591e-7 0 0.000009523099606396837 -0.0000017581009205780904 0
          0 0 0 0 0 0
          0 0 0 0.000005208474057280402 -3.5981342058510633e-7 0
          0.00001356111048466797 -0.0000012300915004679156 0 0.000012773077156704826 -0.0000013569752627255711 0
          0 0 0 0 0 0
          0.000009270554086407322 -5.31434018839777e-7 0 0.00001953447872007357 -0.0000021800121324334156 0
          0.00001236406546018714 -0.000004361023841079458 0 0 0 0
          0 0 0 0.000017984124418729618 0.000011150035242523006 0
          0.000024166305133852683 0.000014898638048437546 0 0.000029021005393991123 0.000009296965899496152 0
          0 0 0 0 0 0
          0.000010050813746539369 0.000008222426240193825 0 0.0000254693768664284 0.000013857237336857581 0
          0.00004586984397268513 0.00001373211150721852 0 0.00006470146337246761 -7.475273323273799e-7 0
          0.00007233532192334524 -0.000013271892273848644 0 0 0 0
          0 0 0 -0.000015547086656319495 -0.00001076552934061709 0
          0.000029728651625645614 -0.000016842326300714854 0 0.000056709834193614 -0.000021493075800782042 0
          0.0001096490975981434 -0.000029181271573572184 0 0.00008720113781423943 -0.000005780321997027982 0
          0 0 0 0 0 0
          0.000017306468250388327 -0.000065755599520884 0 0.00004515351034885428 -0.00010636404470880559 0
          0.00007124989299756584 -0.00011258061360383194 0 0.00004509366643516739 -0.00012656681920468593 0
          0.000026998832350701307 -0.00007906363559629726 0 0 0 0
          0.00006148158925159387 -0.00011605755611603787 0 0.00006333224158028117 -0.00013143604387057625 0
          0.00005122157346389854 -0.00013928906234841155 0 0.00010021507378750698 -0.00010039739446417046 0
          0.00003914725363745885 -0.00007558908240308025 0 0.00000523571205548866 -0.0000646384297298857 0
          -0.0000029431417263861265 -0.00005615900454087722 0 0.000026994505570980225 -0.00007355077575969841 0
          0.000004454257769344282 -0.00004134549545719321 0 -0.00000828729040112523 -0.00003180165886733815 0
          0 0 0 0.000060138605736697535 -0.000013722500160866262 0
          0.0000600818497994552 -0.000012687739361633967 0 0.00002716027765982617 -0.0000070463744047117 0
          -3.5005767324809587e-7 -2.982983503747335e-7 0 2.0008997682273375e-7 -1.221026148942406e-7 0
          -0.000023836990385500973 0.000010423569946420668 0 -0.000014247496471764317 0.00001780015823226509 0
          -0.000014071280425977027 0.000016252140708433376 0 0 0 0
          0 0 0 0.000060693145844667584 -0.000005834964928693419 0
          0.00005196194860451974 0.000003184852735874429 0 0.000009623507159461865 0.00002205456040527584 0
          -3.3722615858328423e-9 7.003454013400445e-9 0 4.491043554695271e-9 8.342807929926358e-9 0
          -0.000005939280955441147 -1.6688662641054331e-7 0 -0.000010952342612559725 -0.0000018352122264469102 0
          -0.000012884060909410564 -7.221437904772834e-7 0 0 0 0
          0 0 0 0.000053743524998805676 -8.282356979250298e-7 0
          0.000036644016075351096 0.000006315030494920361 0 0.000028793888554276446 8.32164398323836e-7 0
          2.8064238112854376e-11 -4.710601640685963e-12 0 -2.6497807648690904e-11 -2.3922230247875893e-12 0
          -0.0000024972182724264114 -3.831653499983264e-8 0 -0.000009143597542216181 -5.02064464776136e-7 0
          -0.000011371414130151797 -7.358544132707954e-7 0 0 0 0
          0 0 0 0.000046101079882767384 -0.0000030406798682993294 0
          0.000032171921555606586 -6.228917574355424e-7 0 0.000020663650570522162 0.0000012261843176066744 0
          8.636445989242956e-13 -1.4948105780570749e-12 0 -8.253933774281226e-13 -1.4478459426820985e-12 0
          -0.0000018018256732425978 1.8033905252295498e-7 0 -0.00000739605670632082 3.7344248699385494e-7 0
          -0.00000948132202023778 -6.788397298781608e-8 0 0 0 0