<?xml version="1.0"?>
<VTKFile type="UnstructuredGrid" version="0.1" byte_order="LittleEndian" header_type="UInt32" compressor="vtkZLibDataCompressor">
  <UnstructuredGrid>
    <Piece NumberOfPoints="177" NumberOfCells="282">
      <PointData>
        <DataArray type="Float64" Name="ale_BC" NumberOfComponents="3" format="ascii" RangeMin="0" RangeMax="0">
          0 0 0 0 0 0
          0 0 0 0 0 0
          0 0 0 0 0 0
          0 0 0 0 0 0
          0 0 0 0 0 0
          0 0 0 0 0 0
          0 0 0 0 0 0
          0 0 0 0 0 0
          0 0 0 0 0 0
          0 0 0 0 0 0
          0 0 0 0 0 0
          0 0 0 0 0 0
          0 0 0 0 0 0
          0 0 0 0 0 0
          0 0 0 0 0 0
          0 0 0 0 0 0
          0 0 0 0 0 0
          0 0 0 0 0 0
          0 0 0 0 0 0
          0 0 0 0 0 0
          0 0 0 0 0 0
          0 0 0 0 0 0
          0 0 0 0 0 0
          0 0 0 0 0 0
          0 0 0 0 0 0
          0 0 0 0 0 0
          0 0 0 0 0 0
          0 0 0 0 0 0
          0 0 0 0 0 0
          0 0 0 0 0 0
          0 0 0 0 0 0
          0 0 0 0 0 0
          0 0 0 0 0 0
          0 0 0 0 0 0
          0 0 0 0 0 0
          0 0 0 0 0 0
          0 0 0 0 0 0
          0 0 0 0 0 0
          0 0 0 0 0 0
          0 0 0 0 0 0
          0 0 0 0 0 0
          0 0 0 0 0 0
          0 0 0 0 0 0
          0 0 0 0 0 0
          0 0 0 0 0 0
          0 0 0 0 0 0
          0 0 0 0 0 0
          0 0 0 0 0 0
          0 0 0 0 0 0
          0 0 0 0 0 0
          0 0 0 0 0 0
          0 0 0 0 0 0
          0 0 0 0 0 0
          0 0 0 0 0 0
          0 0 0 0 0 0
          0 0 0 0 0 0
          0 0 0 0 0 0
          0 0 0 0 0 0
          0 0 0 0 0 0
          0 0 0 0 0 0
          0 0 0 0 0 0
          0 0 0 0 0 0
          0 0 0 0 0 0
          0 0 0 0 0 0
          0 0 0 0 0 0
          0 0 0 0 0 0
          0 0 0 0 0 0
          0 0 0 0 0 0
          0 0 0 0 0 0
          0 0 0 0 0 0
          0 0 0 0 0 0
          0 0 0 0 0 0
          0 0 0 0 0 0
          0 0 0 0 0 0
          0 0 0 0 0 0
          0 0 0 0 0 0
          0 0 0 0 0 0
          0 0 0 0 0 0
          0 0 0 0 0 0
          0 0 0 0 0 0
          0 0 0 0 0 0
          0 0 0 0 0 0
          0 0 0 0 0 0
          0 0 0 0 0 0
          0 0 0 0 0 0
          0 0 0 0 0 0
          0 0 0 0 0 0
          0 0 0 0 0 0
          0 0 0
          <InformationKey name="L2_NORM_RANGE" location="vtkDataArray" length="2">
            <Value index="0">
              0
            </Value>
            <Value index="1">
              0
            </Value>
          </InformationKey>
        </DataArray>
        <DataArray type="Float64" Name="ale_FIXNO" NumberOfComponents="3" format="ascii" RangeMin="1.4142135623730951" RangeMax="5.656854249492381">
          1 1 0 1 1 0
          1 1 0 1 1 0
          -1 -1 0 1 1 0
          -1 -1 0 -1 -1 0
          1 1 0 1 1 0
          1 1 0 -1 -1 0
          -1 -1 0 -1 -1 0
          1 1 0 1 1 0
          -1 -1 0 -1 -1 0
          -1 -1 0 1 1 0
          1 1 0 -1 -1 0
          -1 -1 0 -1 -1 0
          1 1 0 1 1 0
          -1 -1 0 -1 -1 0
          -1 -1 0 -1 -1 0
          -1 -1 0 1 1 0
          1 1 0 -1 -1 0
          -1 -1 0 -1 -1 0
          -1 -1 0 -1 -1 0
          1 1 0 1 1 0
          -1 -1 0 -1 -1 0
          -1 -1 0 -1 -1 0
          -1 -1 0 1 1 0
          -1 -1 0 -1 -1 0
          -1 -1 0 -1 -1 0
          -1 -1 0 -1 -1 0
          -1 -1 0 4 4 0
          4 4 0 4 4 0
          1 1 0 -1 -1 0
          -1 -1 0 -1 -1 0
          4 4 0 4 4 0
          -1 -1 0 -1 -1 0
          -1 -1 0 1 1 0
          1 1 0 -1 -1 0
          -1 -1 0 -1 -1 0
          4 4 0 4 4 0
          -1 -1 0 -1 -1 0
          -1 -1 0 1 1 0
          1 1 0 -1 -1 0
          -1 -1 0 -1 -1 0
          4 4 0 4 4 0
          -1 -1 0 -1 -1 0
          -1 -1 0 1 1 0
          1 1 0 -1 -1 0
          -1 -1 0 -1 -1 0
          4 4 0 4 4 0
          -1 -1 0 -1 -1 0
          -1 -1 0 1 1 0
          1 1 0 -1 -1 0
          -1 -1 0 -1 -1 0
          4 4 0 -1 -1 0
          4 4 0 -1 -1 0
          -1 -1 0 -1 -1 0
          -1 -1 0 -1 -1 0
          -1 -1 0 -1 -1 0
          -1 -1 0 -1 -1 0
          -1 -1 0 -1 -1 0
          -1 -1 0 -1 -1 0
          -1 -1 0 4 4 0
          4 4 0 -1 -1 0
          -1 -1 0 -1 -1 0
          -1 -1 0 -1 -1 0
          -1 -1 0 1 1 0
          -1 -1 0 -1 -1 0
          4 4 0 -1 -1 0
          -1 -1 0 4 4 0
          -1 -1 0 -1 -1 0
          1 1 0 -1 -1 0
          -1 -1 0 4 4 0
          1 1 0 1 1 0
          4 4 0 -1 -1 0
          1 1 0 1 1 0
          -1 -1 0 1 1 0
          1 1 0 -1 -1 0
          1 1 0 1 1 0
          -1 -1 0 -1 -1 0
          1 1 0 1 1 0
          -1 -1 0 -1 -1 0
          1 1 0 1 1 0
          -1 -1 0 -1 -1 0
          1 1 0 1 1 0
          1 1 0 -1 -1 0
          1 1 0 -1 -1 0
          1 1 0 -1 -1 0
          -1 -1 0 -1 -1 0
          1 1 0 -1 -1 0
          1 1 0 1 1 0
          1 1 0 1 1 0
          1 1 0
          <InformationKey name="L2_NORM_RANGE" location="vtkDataArray" length="2">
            <Value index="0">
              1.4142135624
            </Value>
            <Value index="1">
              5.6568542495
            </Value>
          </InformationKey>
        </DataArray>
        <DataArray type="Float64" Name="nsi_BC" NumberOfComponents="3" format="ascii" RangeMin="0" RangeMax="1.5">
          0 0 0 1.5 0 0
          1.5 0 0 0 0 0
          1.5 0 0 1.5 0 0
          1.5 0 0 1.5 0 0
          0 0 0 0 0 0
          0 0 0 1.5 0 0
          1.5 0 0 1.5 0 0
          0 0 0 0 0 0
          1.5 0 0 1.5 0 0
          1.5 0 0 0 0 0
          0 0 0 1.5 0 0
          1.5 0 0 1.5 0 0
          0 0 0 0 0 0
          1.5 0 0 1.5 0 0
          1.5 0 0 1.5 0 0
          1.5 0 0 0 0 0
          0 0 0 1.5 0 0
          1.5 0 0 1.5 0 0
          1.5 0 0 1.5 0 0
          0 0 0 0 0 0
          1.5 0 0 1.5 0 0
          1.5 0 0 1.5 0 0
          1.5 0 0 0 0 0
          1.5 0 0 1.5 0 0
          1.5 0 0 1.5 0 0
          1.5 0 0 1.5 0 0
          1.5 0 0 0 0 0
          0 0 0 0 0 0
          0 0 0 1.5 0 0
          1.5 0 0 1.5 0 0
          0 0 0 0 0 0
          1.5 0 0 1.5 0 0
          1.5 0 0 0 0 0
          0 0 0 1.5 0 0
          1.5 0 0 1.5 0 0
          0 0 0 0 0 0
          1.5 0 0 1.5 0 0
          1.5 0 0 0 0 0
          0 0 0 1.5 0 0
          1.5 0 0 1.5 0 0
          0 0 0 0 0 0
          1.5 0 0 1.5 0 0
          1.5 0 0 0 0 0
          0 0 0 1.5 0 0
          1.5 0 0 1.5 0 0
          0 0 0 0 0 0
          1.5 0 0 1.5 0 0
          1.5 0 0 0 0 0
          0 0 0 1.5 0 0
          1.5 0 0 1.5 0 0
          0 0 0 1.5 0 0
          0 0 0 1.5 0 0
          1.5 0 0 1.5 0 0
          1.5 0 0 1.5 0 0
          1.5 0 0 1.5 0 0
          1.5 0 0 1.5 0 0
          1.5 0 0 1.5 0 0
          1.5 0 0 1.5 0 0
          1.5 0 0 0 0 0
          0 0 0 1.5 0 0
          1.5 0 0 1.5 0 0
          1.5 0 0 1.5 0 0
          1.5 0 0 0 0 0
          1.5 0 0 1.5 0 0
          0 0 0 1.5 0 0
          1.5 0 0 0 0 0
          1.5 0 0 1.5 0 0
          0 0 0 1.5 0 0
          1.5 0 0 0 0 0
          0 0 0 0 0 0
          0 0 0 1.5 0 0
          0 0 0 0 0 0
          1.5 0 0 0 0 0
          0 0 0 1.5 0 0
          0 0 0 0 0 0
          1.5 0 0 1.5 0 0
          0 0 0 0 0 0
          1.5 0 0 1.5 0 0
          0 0 0 0 0 0
          1.5 0 0 1.5 0 0
          0 0 0 0 0 0
          0 0 0 1.5 0 0
          0 0 0 1.5 0 0
          0 0 0 1.5 0 0
          1.5 0 0 1.5 0 0
          0 0 0 1.5 0 0
          0 0 0 1.339432 0 0
          1.498641 0 0 1.313156 0 0
          0 0 0
          <InformationKey name="L2_NORM_RANGE" location="vtkDataArray" length="2">
            <Value index="0">
              0
            </Value>
            <Value index="1">
              1.5
            </Value>
          </InformationKey>
        </DataArray>
        <DataArray type="Float64" Name="nsi_FIXNO" NumberOfComponents="3" format="ascii" RangeMin="0" RangeMax="1.4142135623730951">
          1 1 0 0 0 0
          0 0 0 1 1 0
          0 0 0 0 0 0
          0 0 0 0 0 0
          1 1 0 1 1 0
          1 1 0 0 0 0
          0 0 0 0 0 0
          1 1 0 1 1 0
          0 0 0 0 0 0
          0 0 0 1 1 0
          1 1 0 0 0 0
          0 0 0 0 0 0
          1 1 0 1 1 0
          0 0 0 0 0 0
          0 0 0 0 0 0
          0 0 0 1 1 0
          1 1 0 0 0 0
          0 0 0 0 0 0
          0 0 0 0 0 0
          1 1 0 1 1 0
          0 0 0 0 0 0
          0 0 0 0 0 0
          0 0 0 1 1 0
          0 0 0 0 0 0
          0 0 0 0 0 0
          0 0 0 0 0 0
          0 0 0 1 1 0
          1 1 0 1 1 0
          1 1 0 0 0 0
          0 0 0 0 0 0
          1 1 0 1 1 0
          0 0 0 0 0 0
          0 0 0 1 1 0
          1 1 0 0 0 0
          0 0 0 0 0 0
          1 1 0 1 1 0
          0 0 0 0 0 0
          0 0 0 1 1 0
          1 1 0 0 0 0
          0 0 0 0 0 0
          1 1 0 1 1 0
          0 0 0 0 0 0
          0 0 0 1 1 0
          1 1 0 0 0 0
          0 0 0 0 0 0
          1 1 0 1 1 0
          0 0 0 0 0 0
          0 0 0 1 1 0
          1 1 0 0 0 0
          0 0 0 0 0 0
          1 1 0 0 0 0
          1 1 0 0 0 0
          0 0 0 0 0 0
          0 0 0 0 0 0
          0 0 0 0 0 0
          0 0 0 0 0 0
          0 0 0 0 0 0
          0 0 0 0 0 0
          0 0 0 1 1 0
          1 1 0 0 0 0
          0 0 0 0 0 0
          0 0 0 0 0 0
          0 0 0 1 1 0
          0 0 0 0 0 0
          1 1 0 0 0 0
          0 0 0 1 1 0
          0 0 0 0 0 0
          1 1 0 0 0 0
          0 0 0 1 1 0
          1 1 0 1 1 0
          1 1 0 0 0 0
          1 1 0 1 1 0
          0 0 0 1 1 0
          1 1 0 0 0 0
          1 1 0 1 1 0
          0 0 0 0 0 0
          1 1 0 1 1 0
          0 0 0 0 0 0
          1 1 0 1 1 0
          0 0 0 0 0 0
          1 1 0 1 1 0
          1 1 0 0 0 0
          1 1 0 0 0 0
          1 1 0 0 0 0
          0 0 0 0 0 0
          1 1 0 0 0 0
          1 1 0 1 1 0
          1 1 0 1 1 0
          1 1 0
          <InformationKey name="L2_NORM_RANGE" location="vtkDataArray" length="2">
            <Value index="0">
              0
            </Value>
            <Value index="1">
              1.4142135624
            </Value>
          </InformationKey>
        </DataArray>
        <DataArray type="Float64" Name="Velocity" NumberOfComponents="3" format="ascii" RangeMin="0" RangeMax="2.65235613423064">
          0 0 0 1.168252124676358 0.10955012048696598 0
          1.2939717613155444 -0.02201385614747252 0 0 0 0
          1.3600342516101134 0.02450064543744881 0 1.2175228438593348 -0.035553740719412544 0
          1.4019874608028777 -0.004704266534577423 0 1.3212488051959748 -0.012643946397809917 0
          0 0 0 0 0 0
          0 0 0 1.3051445665927308 0.010784711758165868 0
          1.3732796909894498 -0.0011469798527505716 0 1.3083647705807604 -0.002631455984411408 0
          0 0 0 0 0 0
          1.2934150642998454 0.0010164800785815364 0 1.3669162785764946 -0.0003388881223833113 0
          1.3045809575037346 0.011226066879009431 0 0 0 0
          0 0 0 1.2273112736942053 -0.024902399797973974 0
          1.311788197425942 0.007971544231492317 0 1.277125039826642 0.02393817337623676 0
          0 0 0 0 0 0
          1.1154931927904939 0.02973487137652031 0 1.2389963724992996 -0.002070951802370938 0
          1.2176653421411001 -0.01490889683456172 0 1.236141239390959 0.006146416887827097 0
          1.103665403632514 0.0005745470942578887 0 0 0 0
          0 0 0 1.1513261667229733 0.022107485997807014 0
          1.2151344201465892 -0.0006156116683639472 0 1.218418420540135 -0.00396574014845514 0
          1.2521112721543053 -0.016794432990531794 0 1.0929798413433107 0.009551342201329072 0
          0 0 0 0 0 0
          1.1457438800004687 -0.010437341177571597 0 1.2537742013388613 0.004207766932476209 0
          1.1852448145391778 -0.017577449112056324 0 1.2600546670367987 0.04375042681297961 0
          1.1784353030380208 0.010286511638756593 0 0 0 0
          1.3218727193782405 -0.07798756234785795 0 1.414644171478436 -0.14132285586739748 0
          1.2032299781449844 -0.18026902956212834 0 1.1211378944355193 0.2527164305223842 0
          1.4157516153037493 0.14482406492275526 0 1.4249387689050295 0.14807884413573358 0
          1.2427304108751842 0.06317083486289672 0 -0.015747951947945094 -0.18038648279104044 0
          -0.002838710307317256 -0.1716704252456325 0 0.020728063829218824 -0.16362305852292833 0
          0 0 0 1.4006878538081806 -0.03991264504452287 0
          1.4706978553120487 -0.07009124458208545 0 1.3985385442556941 -0.07977959834008448 0
          0.04647248453821841 -0.040685613643177056 0 -0.03863514619454705 -0.04034237043372892 0
          1.3974814152047226 0.009531310054430926 0 1.486382634374955 0.015587599354046059 0
          1.3900726015985276 0.02475403165865149 0 0 0 0
          0 0 0 1.4089248802793832 -0.0380495052425929 0
          1.4685504615742555 -0.01770618456437206 0 1.4180068061050848 -0.002236134047445687 0
          -0.014735243970345847 0.013211615665206834 0 0.022178347507938328 0.011838708751564668 0
          1.3444792590404417 -0.0025801009777680056 0 1.4827514967459559 -0.017375793321374004 0
          1.4086765947245137 0.019319983377008368 0 0 0 0
          0 0 0 1.4344601697782895 -0.0351723269007321 0
          1.4836662569825412 -0.025184578227506315 0 1.3451905957015817 0.008851048819243095 0
          0.0010592119681750495 0.0031463398595985154 0 -0.0032680584165523377 0.003083149183562231 0
          1.3210179148360017 0.0055288564805923805 0 1.4607489005035859 -0.006440019411180704 0
          1.4178491503994926 0.038217198933381956 0 0 0 0
          0 0 0 1.4472105603171237 -0.055264489679908414 0
          1.4276049291603037 -0.07394366015862296 0 1.3252687748799488 -0.0035193687506293926 0
          -0.00020386172451024578 -0.0003478979160601379 0 -0.0000707030406216775 -0.00044477340690546704 0
          1.2617402821396053 0.010069054521643056 0 1.4404262348406607 0.05364438435603081 0
          1.428211411984301 0.0693317832676914 0 0 0 0
          0 0 0 1.529072517391751 -0.11531593147532483 0
          1.3672541203553092 -0.1886169965919184 0 1.1830685114883297 -0.015478261657490939 0
          -0.00000918883393409052 0.000035551125461872105 0 1.2943253649484665 -0.1827114032373226 0
          -0.000002997833403845509 0.000030571964715398585 0 1.1061458289746238 0.03845778257471595 0
          1.277320521574817 -0.2530271441760053 0 1.2299609453278588 -0.15915870561878773 0
          1.2395033029164213 -0.2507511349909137 0 1.4350674984697342 0.18798357746404903 0
          1.1827385885120716 -0.16790057521643376 0 1.2227065961007084 -0.24011894811501208 0
          1.2463552114423608 0.1969574762046315 0 1.2608186156804855 -0.30248697646480954 0
          1.5277990144473546 0.09263085917592881 0 1.2907778158776533 -0.3474441716899579 0
          1.3409304124401624 0.3007207268681216 0 1.0524105943669249 -0.4008181599587033 0
          0.7816766156991051 -0.12608490892818566 0 -0.00001278969921042162 -0.000005724857845574229 0
          0.00001009153622324204 -0.000006829793703522794 0 1.2938495134577623 0.29956254233726226 0
          1.4053849582460514 -0.6417023270855511 0 0.8768815253265781 0.005756884991219005 0
          0.9812004550074375 0.2579892044234982 0 1.3632742179308392 0.41196767349960656 0
          1.3928440045683392 0.4223202327993822 0 0 0 0
          1.271791667613608 0.5171445756053117 0 1.410237652094549 0.6028524275242495 0
          -0.0000010501826894982213 -0.000002933514808884404 0 0.16869781589155938 0.021730231505067112 0
          0.4114931669515543 0.43495879458168624 0 6.07381630571801e-7 -0.0000024498576719078286 0
          -0.026069533014879083 -0.09666169989947994 0 0.12480692888967783 -0.43066245998145924 0
          0 0 0 1.4624748650685264 -0.6318685252903141 0
          1.588774072981893 0.7943193944667043 0 5.606399401230359e-22 -1.970236010461872e-21 0
          0 0 0 0 0 0
          1.7696331330139995e-21 4.943182794671142e-21 0 1.2921026286158444 0.48589200188994286 0
          0 0 0 0 0 0
          1.890261889097204 -0.10913446412032025 0 0 0 0
          0 0 0 2.6431352629102833 -0.22097295027014657 0
          0 0 0 0 0 0
          1.9154312448356012 0.09017714025313828 0 2.6381029547013286 0.09313808974781772 0
          0 0 0 0 0 0
          1.9531753140825572 0.05715554001655063 0 2.2013213179751054 0.956920156066666 0
          0 0 0 0 0 0
          2.0940868251523184 -1.0101788188762713 0 1.9523304838701396 -0.13837688972470283 0
          0 0 0 0 0 0
          0 0 0 0.937688100753084 0.9776273914048161 0
          0 0 0 0.97385744618869 -0.9471002889996352 0
          0 0 0 1.4834382144477591 0.28501274084450495 0
          0.638547928289339 -0.031775222062368116 0 1.5051094892098729 -0.43422822444306486 0
          0 0 0 1.2620896701882913 0.06002384611267368 0
          0 0 0 1.339432 0 0
          1.4986410000000001 0 0 1.313156 0 0
          0 0 0
          <InformationKey name="L2_NORM_RANGE" location="vtkDataArray" length="2">
            <Value index="0">
              0
            </Value>
            <Value index="1">
              2.6523561342
            </Value>
          </InformationKey>
        </DataArray>
        <DataArray type="Float64" Name="Pressure" format="ascii" RangeMin="-12090.64295286676" RangeMax="331.6475235678395">
          315.79706155880467 326.1575129850517 331.6475235678395 -1005.9230979346604 -955.8510555499544 325.32534814060165
          -955.3822881919534 -959.2297499455249 244.0273186633169 -982.5973146947771 -2706.7244028852415 -2728.0194047793516
          -2759.531063191911 -2780.170767466855 -2754.5317342644175 -4040.102707551351 -4095.3964574474057 -4131.088674801693
          -4127.026512041635 -4095.0201334651197 -5110.039724414467 -5232.1654930126315 -5259.126128425431 -5201.052423065596
          -5162.612722906869 -6513.632486758527 -6499.760232035318 -6511.163986618513 -6591.935004277639 -6618.289240536917
          -6625.1574024272495 -6642.483412565412 -8241.47531785374 -8225.738586591888 -8194.432200658272 -8182.1755537543
          -8198.586455133927 -8282.131110910823 -8305.319458033438 -9708.043453158754 -9715.606524190389 -9543.558321840299
          -9452.08443886842 -9494.665242586423 -9660.134882634067 -9705.346070575859 -10000.263262052693 -10005.724383032055
          -10052.033393365338 -10228.435834654896 -9927.349540205323 -9909.571418087658 -9852.315765436024 -10209.47956358213
          -10069.217119624233 -9798.753109790843 -10209.780078062362 -10173.277893787828 -10187.328168543665 -10247.852398800842
          -10318.37465247035 -9402.14299912209 -9434.883364300062 -9650.028104627061 -9778.722338117193 -9962.409078838706
          -10176.545672915703 -10104.149532370524 -10045.261785395103 -10051.486490392246 -10018.673891793118 -9745.849992274876
          -9699.043405695029 -9707.42801682706 -9753.970000425423 -9913.903996313933 -10090.723933616098 -9996.513542824288
          -9939.673296802077 -9875.096500807245 -9816.209550182433 -9849.576782061125 -9839.87059516519 -9782.590006711589
          -9794.152680496545 -9899.201580504485 -9950.24811347736 -9860.182694818737 -9818.899690723352 -9717.234825335789
          -9694.878895060949 -9783.950043073404 -9786.18446425326 -9747.934228872813 -9778.63625259959 -9861.136833262462
          -9803.516645193245 -9766.399430114983 -9701.516527073221 -9662.596411321696 -9620.552387710919 -9698.962870038487
          -9742.01727124434 -9753.85576725076 -9618.327419523199 -9679.866016587446 -9658.63912396647 -9772.141639377707
          -9674.083145892966 -9774.58512904221 -9782.643504495361 -9820.089586495389 -9816.854767296738 -9727.19118395294
          -9737.685352618348 -9546.679855798797 -9531.748057526978 -9486.92142157564 -9604.398676753406 -9795.275188363701
          -9779.952228712547 -9630.783722666985 -9720.52596659703 -9728.115513394492 -9720.771682576275 -9771.267544040997
          -9633.341808463094 -9718.990108543718 -9625.405318178508 -9694.025453346785 -9868.678390632118 -9846.763297244685
          -9921.254324282809 -10058.973299712598 -9628.510265666295 -10298.172280421508 -9917.410204682965 -10766.57482267819
          -10890.556121775386 -11111.838784219799 -10316.177126716719 -10283.374455377798 -10421.553684538412 -10652.599755088993
          -9895.616633879326 -11541.487441406452 -11374.285904709559 -11708.823847802594 -9661.76276414125 -11722.041398858746
          -9936.766702890915 -12090.64295286676 -11950.112675284678 -9493.027577579864 -9871.017602615826 -10357.105765178949
          -10892.387347757109 -10767.670803407433 -10419.322298651066 -9882.738776612918 -9620.17588665097 -8590.660054795937
          -8615.870155256669 -8015.412956841676 -7498.948543177924 -8331.693534441432 -9231.548971986052 -8769.172544513616
          -7623.241786488237 -8837.62966905866 -9531.566006727924 -8133.077805158926 -9221.020478467217 -8987.621093978278
          -8610.406117315446 -8833.470590963156 -9189.946224300671
        </DataArray>
        <DataArray type="Float64" Name="BTraction" NumberOfComponents="3" format="ascii" RangeMin="0" RangeMax="11570.874334040027">
          -105.2754223028159 83.75411432912516 0 -326.80819640525425 -5.818345731620121 0
          -330.8979416715459 -0.10507321895877725 0 -12.356192922672868 1131.1278423266513 0
          0 0 0 -313.3331395216439 6.434718769583426 0
          0 0 0 0 0 0
          -86.93431663932132 -113.24324488606958 0 -12.879258416949082 -1141.2424617191132 0
          -12.082291902344473 2593.77615427649 0 0 0 0
          0 0 0 0 0 0
          -13.226355788858072 -2625.740531885629 0 -11.714562048368514 3979.4485967381497 0
          0 0 0 0 0 0
          0 0 0 -12.94455605536971 -4030.410058775298 0
          -14.225892401325607 5167.4971645603 0 0 0 0
          0 0 0 0 0 0
          -14.737418797559302 -5235.961532215428 0 -17.254637750024358 6551.800657641834 0
          0 0 0 0 0 0
          0 0 0 0 0 0
          0 0 0 -16.595781493874252 -6660.021236030623 0
          -15.866120860943427 8194.977570528465 0 0 0 0
          0 0 0 0 0 0
          0 0 0 0 0 0
          -16.386101866733153 -8253.716527739361 0 -12.98647075582338 9528.957284826383 0
          0 0 0 0 0 0
          0 0 0 0 0 0
          0 0 0 -13.97087823795601 -9501.716134162456 0
          0 0 0 0 0 0
          0 0 0 0 0 0
          0 0 0 0 0 0
          0 0 0 -1878.4207368723155 -8680.33007476421 0
          -10077.579964420902 420.8996187408997 0 -1274.269622782173 8263.952470133734 0
          -11.853992782241562 10081.772201151502 0 0 0 0
          0 0 0 0 0 0
          -257.1104702762131 -10243.233125942188 0 56.95068641722774 9513.551251859062 0
          0 0 0 0 0 0
          0 0 0 -11.82557718862824 -9894.846597161051 0
          -12.800303818629656 10168.91650127363 0 0 0 0
          0 0 0 0 0 0
          -84.14305171675362 -10036.78100410732 0 -99.71054644859817 9701.362917031689 0
          0 0 0 0 0 0
          0 0 0 -12.792934896570426 -9920.293175835286 0
          -12.986608069659031 10083.792873744831 0 0 0 0
          0 0 0 0 0 0
          -87.39755771737609 -9831.570619010383 0 -90.37369439129411 9822.007158976314 0
          0 0 0 0 0 0
          0 0 0 -12.944844672431149 -9896.055763955894 0
          -13.386599018546027 9954.762174841288 0 0 0 0
          0 0 0 0 0 0
          -81.60748361449468 -9704.70267560223 0 -89.8330223120543 9788.8146194911 0
          0 0 0 0 0 0
          0 0 0 -13.059492762108793 -9855.771207173286 0
          -13.788116830987024 9797.140561729775 0 0 0 0
          0 0 0 0 0 0
          -77.68841049174516 -9623.619389801805 0 0 0 0
          -78.94614931680859 9737.685280637696 0 0 0 0
          0 0 0 0 0 0
          0 0 0 0 0 0
          0 0 0 0 0 0
          0 0 0 0 0 0
          0 0 0 0 0 0
          0 0 0 0 0 0
          0 0 0 -29.996005413566234 -9559.876220233264 0
          -39.02848383976823 9624.514661982528 0 0 0 0
          0 0 0 0 0 0
          0 0 0 0 0 0
          0 0 0 -13.64937269934926 -9767.023662065241 0
          0 0 0 0 0 0
          -13.449429172671104 9713.793133097286 0 0 0 0
          0 0 0 2.1712067476398276 -9868.618442467028 0
          0 0 0 0 0 0
          -15.42306222271743 9637.122185706352 0 0 0 0
          0 0 0 -2279.5008327720097 -8756.273078429651 0
          -10440.981837112771 -3105.230316163198 0 -9595.811276318193 -5796.120806617602 0
          -1721.4992923471164 8777.517066637349 0 0 0 0
          -10052.088250753262 2832.2566335900765 0 -9275.70561828582 5562.480665981765 0
          0 0 0 -7867.226164158968 -8141.234001191782 0
          -7703.60867899976 8031.181942342855 0 0 0 0
          -15.930317601314533 -9674.773362888232 0 -4398.987103471314 -10544.716298152623 0
          0 0 0 0 0 0
          -4477.907781067937 10669.277143199415 0 -17.38142164881919 9465.738783315452 0
          0 0 0 0 0 0
          1898.3506989006637 -9940.600121526595 0 2143.346113363593 9833.47322065668 0
          0 0 0 0 0 0
          -17.964575778333856 -9609.4098518086 0 5492.5961798648505 -5912.45126332953 0
          5445.992621701719 5987.361144285294 0 0 0 0
          7157.612760562882 -88.44738189852912 0 0 0 0
          -13.098519030465297 9255.737890367405 0 0 0 0
          0 0 0 0 0 0
          -12.645437978592728 -9464.713908169282 0 0 0 0
          -4681.3171564888435 4509.860309018815 0 -8997.018508583655 4.936323939251266 0
          -8710.572115951794 -1.6164609216453387 0 -8886.36099161599 -7.7427557103988285 0
          -4515.002568529885 -4683.022252395772 0
          <InformationKey name="L2_NORM_RANGE" location="vtkDataArray" length="2">
            <Value index="0">
              0
            </Value>
            <Value index="1">
              11570.874334
            </Value>
          </InformationKey>
        </DataArray>
        <DataArray type="Float64" Name="ALEdispl" NumberOfComponents="3" format="ascii" RangeMin="0" RangeMax="0.003914932349688689">
          0 0 0 0 0 0
          0 0 0 0 0 0
          -0.00012030222879883707 -0.0004892963227332912 0 0 0 0
          0.0002495427218105681 -0.0015074393444152686 0 -0.0005214748505851374 -0.0011438628973615473 0
          0 0 0 0 0 0
          0 0 0 0.00009389989914602993 0.000020310359904292184 0
          0.0005113248028463225 -0.000008629284755648612 0 -0.0011200792620160293 -0.00003522761818506992 0
          0 0 0 0 0 0
          0.00004536176601185878 0.0002836974104465305 0 0.00006423655133543792 0.0005435518697601013 0
          -0.0003919956716168675 0.0008864383570522806 0 0 0 0
          0 0 0 -0.0003549391379007574 0.00046050526533535975 0
          -0.0003911698057063963 0.0008288991957984342 0 0.00018391904215845427 0.0006469047912338879 0
          0 0 0 0 0 0
          -0.00026525939205523035 0.000059110540352278454 0 -0.0003256445803241113 0.00014826773858419017 0
          -0.00004814022308519324 0.0001337125654815049 0 0.0006712624723936577 -0.00011284850614453217 0
          0.0017283721840710992 -0.00044196217072787873 0 0 0 0
          0 0 0 -0.000850294977983844 -0.0003135384765183994 0
          -0.00027367559791406036 -0.0005794640221324849 0 0.000040340992891842485 -0.0008270451471197131 0
          0.0009518208989023705 -0.000830937688615553 0 0.0018226763953623436 -0.00012661254748920682 0
          0 0 0 0 0 0
          0.00010655361187429199 -0.0017712698897545762 0 0.00045812507360470836 -0.0027372380899065418 0
          0.000036044263193648634 -0.0029489237640410613 0 -0.00028841827617712 -0.002753131014250993 0
          0.0000018545687698952995 -0.0017372641711923395 0 0 0 0
          0.0011595814706349575 -0.003056989360512861 0 0.0011180877392388884 -0.003470949905236321 0
          0.0007071336939316803 -0.003784532533718882 0 -0.00013989954236849763 -0.00391243190620413 0
          -0.000823122787248038 -0.0038118763052517736 0 -0.001069021948509954 -0.0032840497840381216 0
          -0.0010899237075104253 -0.0028944023875633897 0 0.0003944608242853979 -0.0020575544125013877 0
          -0.000028470344554664714 -0.002041484459526325 0 -0.00045294046499310976 -0.002031251966209168 0
          0 0 0 0.0013242234326645954 -0.00032556141117158526 0
          0.0014002348008874629 -0.00027713371594800904 0 0.00080519901262283 -0.000151957342273164 0
          0.0002044965954377034 0.00005326887478730433 0 -0.00018228292725935846 0.00005918658023588187 0
          -0.0007108213795116007 -0.00009876059661972095 0 -0.0016004927629726326 -0.0003812734807442941 0
          -0.001679451804322208 -0.00040914202386598014 0 0 0 0
          0 0 0 0.001340169748358322 -0.00024307644484478089 0
          0.0012080082133336934 -0.00015601736187920235 0 0.00025942935206396857 0.00013906053661891934 0
          -0.00004001201384683896 -0.000014549467187397793 0 0.00005009047407506018 -0.000012874053720969802 0
          -0.00018145449884304115 -0.000028021654088424464 0 -0.0010222163618148234 -0.00019007503985305046 0
          -0.0014097040166104107 -0.0001986783730563337 0 0 0 0
          0 0 0 0.001251049731584129 -0.00008505733905706072 0
          0.0008929579928364362 0.00006714943297605463 0 0.0004380244266809516 0.00006233945799858754 0
          1.954497889458182e-7 0.0000073265165343393105 0 -0.000005435013419846957 0.0000065207604457306725 0
          -0.00016573397326151838 0.000029538395663642384 0 -0.000820180932985079 0.00009400610626850136 0
          -0.001197490221457521 0.0000036850484880575644 0 0 0 0
          0 0 0 0.0010892872071149174 -0.000091139179359564 0
          0.0007434725199027863 -0.000021882960905636786 0 0.0003656610532290553 0.00003964597455069766 0
          -1.9658579314124894e-7 -5.380957723186009e-7 0 -2.390711201698986e-7 -6.949369934678209e-7 0
          -0.00015941102772447022 0.000026687689402792032 0 -0.0007277418529367507 0.00008860785355672912 0
          -0.0009810942760237207 0.00003874709501230575 0 0 0 0
          0 0 0 0.0009498455425634164 -0.00010335038340822091 0