<?xml version="1.0"?>
<VTKFile type="UnstructuredGrid" version="0.1" byte_order="LittleEndian" header_type="UInt32" compressor="vtkZLibDataCompressor">
  <UnstructuredGrid>
    <Piece NumberOfPoints="177" NumberOfCells="282">
      <PointData>
        <DataArray type="Float64" Name="ale_BC" NumberOfComponents="3" format="ascii" RangeMin="0" RangeMax="0">
          0 0 0 0 0 0
          0 0 0 0 0 0
          0 0 0 0 0 0
          0 0 0 0 0 0
          0 0 0 0 0 0
          0 0 0 0 0 0
          0 0 0 0 0 0
          0 0 0 0 0 0
          0 0 0 0 0 0
          0 0 0 0 0 0
          0 0 0 0 0 0
          0 0 0 0 0 0
          0 0 0 0 0 0
          0 0 0 0 0 0
          0 0 0 0 0 0
          0 0 0 0 0 0
          0 0 0 0 0 0
          0 0 0 0 0 0
          0 0 0 0 0 0
          0 0 0 0 0 0
          0 0 0 0 0 0
          0 0 0 0 0 0
          0 0 0 0 0 0
          0 0 0 0 0 0
          0 0 0 0 0 0
          0 0 0 0 0 0
          0 0 0 0 0 0
          0 0 0 0 0 0
          0 0 0 0 0 0
          0 0 0 0 0 0
          0 0 0 0 0 0
          0 0 0 0 0 0
          0 0 0 0 0 0
          0 0 0 0 0 0
          0 0 0 0 0 0
          0 0 0 0 0 0
          0 0 0 0 0 0
          0 0 0 0 0 0
          0 0 0 0 0 0
          0 0 0 0 0 0
          0 0 0 0 0 0
          0 0 0 0 0 0
          0 0 0 0 0 0
          0 0 0 0 0 0
          0 0 0 0 0 0
          0 0 0 0 0 0
          0 0 0 0 0 0
          0 0 0 0 0 0
          0 0 0 0 0 0
          0 0 0 0 0 0
          0 0 0 0 0 0
          0 0 0 0 0 0
          0 0 0 0 0 0
          0 0 0 0 0 0
          0 0 0 0 0 0
          0 0 0 0 0 0
          0 0 0 0 0 0
          0 0 0 0 0 0
          0 0 0 0 0 0
          0 0 0 0 0 0
          0 0 0 0 0 0
          0 0 0 0 0 0
          0 0 0 0 0 0
          0 0 0 0 0 0
          0 0 0 0 0 0
          0 0 0 0 0 0
          0 0 0 0 0 0
          0 0 0 0 0 0
          0 0 0 0 0 0
          0 0 0 0 0 0
          0 0 0 0 0 0
          0 0 0 0 0 0
          0 0 0 0 0 0
          0 0 0 0 0 0
          0 0 0 0 0 0
          0 0 0 0 0 0
          0 0 0 0 0 0
          0 0 0 0 0 0
          0 0 0 0 0 0
          0 0 0 0 0 0
          0 0 0 0 0 0
          0 0 0 0 0 0
          0 0 0 0 0 0
          0 0 0 0 0 0
          0 0 0 0 0 0
          0 0 0 0 0 0
          0 0 0 0 0 0
          0 0 0 0 0 0
          0 0 0
          <InformationKey name="L2_NORM_RANGE" location="vtkDataArray" length="2">
            <Value index="0">
              0
            </Value>
            <Value index="1">
              0
            </Value>
          </InformationKey>
        </DataArray>
        <DataArray type="Float64" Name="ale_FIXNO" NumberOfComponents="3" format="ascii" RangeMin="1.4142135623730951" RangeMax="5.656854249492381">
          1 1 0 1 1 0
          1 1 0 1 1 0
          -1 -1 0 1 1 0
          -1 -1 0 -1 -1 0
          1 1 0 1 1 0
          1 1 0 -1 -1 0
          -1 -1 0 -1 -1 0
          1 1 0 1 1 0
          -1 -1 0 -1 -1 0
          -1 -1 0 1 1 0
          1 1 0 -1 -1 0
          -1 -1 0 -1 -1 0
          1 1 0 1 1 0
          -1 -1 0 -1 -1 0
          -1 -1 0 -1 -1 0
          -1 -1 0 1 1 0
          1 1 0 -1 -1 0
          -1 -1 0 -1 -1 0
          -1 -1 0 -1 -1 0
          1 1 0 1 1 0
          -1 -1 0 -1 -1 0
          -1 -1 0 -1 -1 0
          -1 -1 0 1 1 0
          -1 -1 0 -1 -1 0
          -1 -1 0 -1 -1 0
          -1 -1 0 -1 -1 0
          -1 -1 0 4 4 0
          4 4 0 4 4 0
          1 1 0 -1 -1 0
          -1 -1 0 -1 -1 0
          4 4 0 4 4 0
          -1 -1 0 -1 -1 0
          -1 -1 0 1 1 0
          1 1 0 -1 -1 0
          -1 -1 0 -1 -1 0
          4 4 0 4 4 0
          -1 -1 0 -1 -1 0
          -1 -1 0 1 1 0
          1 1 0 -1 -1 0
          -1 -1 0 -1 -1 0
          4 4 0 4 4 0
          -1 -1 0 -1 -1 0
          -1 -1 0 1 1 0
          1 1 0 -1 -1 0
          -1 -1 0 -1 -1 0
          4 4 0 4 4 0
          -1 -1 0 -1 -1 0
          -1 -1 0 1 1 0
          1 1 0 -1 -1 0
          -1 -1 0 -1 -1 0
          4 4 0 -1 -1 0
          4 4 0 -1 -1 0
          -1 -1 0 -1 -1 0
          -1 -1 0 -1 -1 0
          -1 -1 0 -1 -1 0
          -1 -1 0 -1 -1 0
          -1 -1 0 -1 -1 0
          -1 -1 0 -1 -1 0
          -1 -1 0 4 4 0
          4 4 0 -1 -1 0
          -1 -1 0 -1 -1 0
          -1 -1 0 -1 -1 0
          -1 -1 0 1 1 0
          -1 -1 0 -1 -1 0
          4 4 0 -1 -1 0
          -1 -1 0 4 4 0
          -1 -1 0 -1 -1 0
          1 1 0 -1 -1 0
          -1 -1 0 4 4 0
          1 1 0 1 1 0
          4 4 0 -1 -1 0
          1 1 0 1 1 0
          -1 -1 0 1 1 0
          1 1 0 -1 -1 0
          1 1 0 1 1 0
          -1 -1 0 -1 -1 0
          1 1 0 1 1 0
          -1 -1 0 -1 -1 0
          1 1 0 1 1 0
          -1 -1 0 -1 -1 0
          1 1 0 1 1 0
          1 1 0 -1 -1 0
          1 1 0 -1 -1 0
          1 1 0 -1 -1 0
          -1 -1 0 -1 -1 0
          1 1 0 -1 -1 0
          1 1 0 1 1 0
          1 1 0 1 1 0
          1 1 0
          <InformationKey name="L2_NORM_RANGE" location="vtkDataArray" length="2">
            <Value index="0">
              1.4142135624
            </Value>
            <Value index="1">
              5.6568542495
            </Value>
          </InformationKey>
        </DataArray>
        <DataArray type="Float64" Name="nsi_BC" NumberOfComponents="3" format="ascii" RangeMin="0" RangeMax="1.5">
          0 0 0 1.5 0 0
          1.5 0 0 0 0 0
          1.5 0 0 1.5 0 0
          1.5 0 0 1.5 0 0
          0 0 0 0 0 0
          0 0 0 1.5 0 0
          1.5 0 0 1.5 0 0
          0 0 0 0 0 0
          1.5 0 0 1.5 0 0
          1.5 0 0 0 0 0
          0 0 0 1.5 0 0
          1.5 0 0 1.5 0 0
          0 0 0 0 0 0
          1.5 0 0 1.5 0 0
          1.5 0 0 1.5 0 0
          1.5 0 0 0 0 0
          0 0 0 1.5 0 0
          1.5 0 0 1.5 0 0
          1.5 0 0 1.5 0 0
          0 0 0 0 0 0
          1.5 0 0 1.5 0 0
          1.5 0 0 1.5 0 0
          1.5 0 0 0 0 0
          1.5 0 0 1.5 0 0
          1.5 0 0 1.5 0 0
          1.5 0 0 1.5 0 0
          1.5 0 0 0 0 0
          0 0 0 0 0 0
          0 0 0 1.5 0 0
          1.5 0 0 1.5 0 0
          0 0 0 0 0 0
          1.5 0 0 1.5 0 0
          1.5 0 0 0 0 0
          0 0 0 1.5 0 0
          1.5 0 0 1.5 0 0
          0 0 0 0 0 0
          1.5 0 0 1.5 0 0
          1.5 0 0 0 0 0
          0 0 0 1.5 0 0
          1.5 0 0 1.5 0 0
          0 0 0 0 0 0
          1.5 0 0 1.5 0 0
          1.5 0 0 0 0 0
          0 0 0 1.5 0 0
          1.5 0 0 1.5 0 0
          0 0 0 0 0 0
          1.5 0 0 1.5 0 0
          1.5 0 0 0 0 0
          0 0 0 1.5 0 0
          1.5 0 0 1.5 0 0
          0 0 0 1.5 0 0
          0 0 0 1.5 0 0
          1.5 0 0 1.5 0 0
          1.5 0 0 1.5 0 0
          1.5 0 0 1.5 0 0
          1.5 0 0 1.5 0 0
          1.5 0 0 1.5 0 0
          1.5 0 0 1.5 0 0
          1.5 0 0 0 0 0
          0 0 0 1.5 0 0
          1.5 0 0 1.5 0 0
          1.5 0 0 1.5 0 0
          1.5 0 0 0 0 0
          1.5 0 0 1.5 0 0
          0 0 0 1.5 0 0
          1.5 0 0 0 0 0
          1.5 0 0 1.5 0 0
          0 0 0 1.5 0 0
          1.5 0 0 0 0 0
          0 0 0 0 0 0
          0 0 0 1.5 0 0
          0 0 0 0 0 0
          1.5 0 0 0 0 0
          0 0 0 1.5 0 0
          0 0 0 0 0 0
          1.5 0 0 1.5 0 0
          0 0 0 0 0 0
          1.5 0 0 1.5 0 0
          0 0 0 0 0 0
          1.5 0 0 1.5 0 0
          0 0 0 0 0 0
          0 0 0 1.5 0 0
          0 0 0 1.5 0 0
          0 0 0 1.5 0 0
          1.5 0 0 1.5 0 0
          0 0 0 1.5 0 0
          0 0 0 1.339432 0 0
          1.498641 0 0 1.313156 0 0
          0 0 0
          <InformationKey name="L2_NORM_RANGE" location="vtkDataArray" length="2">
            <Value index="0">
              0
            </Value>
            <Value index="1">
              1.5
            </Value>
          </InformationKey>
        </DataArray>
        <DataArray type="Float64" Name="nsi_FIXNO" NumberOfComponents="3" format="ascii" RangeMin="0" RangeMax="1.4142135623730951">
          1 1 0 0 0 0
          0 0 0 1 1 0
          0 0 0 0 0 0
          0 0 0 0 0 0
          1 1 0 1 1 0
          1 1 0 0 0 0
          0 0 0 0 0 0
          1 1 0 1 1 0
          0 0 0 0 0 0
          0 0 0 1 1 0
          1 1 0 0 0 0
          0 0 0 0 0 0
          1 1 0 1 1 0
          0 0 0 0 0 0
          0 0 0 0 0 0
          0 0 0 1 1 0
          1 1 0 0 0 0
          0 0 0 0 0 0
          0 0 0 0 0 0
          1 1 0 1 1 0
          0 0 0 0 0 0
          0 0 0 0 0 0
          0 0 0 1 1 0
          0 0 0 0 0 0
          0 0 0 0 0 0
          0 0 0 0 0 0
          0 0 0 1 1 0
          1 1 0 1 1 0
          1 1 0 0 0 0
          0 0 0 0 0 0
          1 1 0 1 1 0
          0 0 0 0 0 0
          0 0 0 1 1 0
          1 1 0 0 0 0
          0 0 0 0 0 0
          1 1 0 1 1 0
          0 0 0 0 0 0
          0 0 0 1 1 0
          1 1 0 0 0 0
          0 0 0 0 0 0
          1 1 0 1 1 0
          0 0 0 0 0 0
          0 0 0 1 1 0
          1 1 0 0 0 0
          0 0 0 0 0 0
          1 1 0 1 1 0
          0 0 0 0 0 0
          0 0 0 1 1 0
          1 1 0 0 0 0
          0 0 0 0 0 0
          1 1 0 0 0 0
          1 1 0 0 0 0
          0 0 0 0 0 0
          0 0 0 0 0 0
          0 0 0 0 0 0
          0 0 0 0 0 0
          0 0 0 0 0 0
          0 0 0 0 0 0
          0 0 0 1 1 0
          1 1 0 0 0 0
          0 0 0 0 0 0
          0 0 0 0 0 0
          0 0 0 1 1 0
          0 0 0 0 0 0
          1 1 0 0 0 0
          0 0 0 1 1 0
          0 0 0 0 0 0
          1 1 0 0 0 0
          0 0 0 1 1 0
          1 1 0 1 1 0
          1 1 0 0 0 0
          1 1 0 1 1 0
          0 0 0 1 1 0
          1 1 0 0 0 0
          1 1 0 1 1 0
          0 0 0 0 0 0
          1 1 0 1 1 0
          0 0 0 0 0 0
          1 1 0 1 1 0
          0 0 0 0 0 0
          1 1 0 1 1 0
          1 1 0 0 0 0
          1 1 0 0 0 0
          1 1 0 0 0 0
          0 0 0 0 0 0
          1 1 0 0 0 0
          1 1 0 1 1 0
          1 1 0 1 1 0
          1 1 0
          <InformationKey name="L2_NORM_RANGE" location="vtkDataArray" length="2">
            <Value index="0">
              0
            </Value>
            <Value index="1">
              1.4142135624
            </Value>
          </InformationKey>
        </DataArray>
      </PointData>
      <CellData>
        <DataArray type="UInt8" Name="vtkGhostType" format="ascii" RangeMin="0" RangeMax="0">
          0 0 0 0 0 0
          0 0 0 0 0 0
          0 0 0 0 0 0
          0 0 0 0 0 0
          0 0 0 0 0 0
          0 0 0 0 0 0
          0 0 0 0 0 0
          0 0 0 0 0 0
          0 0 0 0 0 0
          0 0 0 0 0 0
          0 0 0 0 0 0
          0 0 0 0 0 0
          0 0 0 0 0 0
          0 0 0 0 0 0
          0 0 0 0 0 0
          0 0 0 0 0 0
          0 0 0 0 0 0
          0 0 0 0 0 0
          0 0 0 0 0 0
          0 0 0 0 0 0
          0 0 0 0 0 0
          0 0 0 0 0 0
          0 0 0 0 0 0
          0 0 0 0 0 0
          0 0 0 0 0 0
          0 0 0 0 0 0
          0 0 0 0 0 0
          0 0 0 0 0 0
          0 0 0 0 0 0
          0 0 0 0 0 0
          0 0 0 0 0 0
          0 0 0 0 0 0
          0 0 0 0 0 0
          0 0 0 0 0 0
          0 0 0 0 0 0
          0 0 0 0 0 0
          0 0 0 0 0 0
          0 0 0 0 0 0
          0 0 0 0 0 0
          0 0 0 0 0 0
          0 0 0 0 0 0
          0 0 0 0 0 0
          0 0 0 0 0 0
          0 0 0 0 0 0
          0 0 0 0 0 0
          0 0 0 0 0 0
          0 0 0 0 0 0
        </DataArray>
      </CellData>
      <Points>
        <DataArray type="Float32" Name="Points" NumberOfComponents="3" format="ascii" RangeMin="0" RangeMax="2.5333969284475444">
          2.5 0.4099999964237213 0 2.5 0.3032214045524597 0
          2.5 0.19998450577259064 0 2.251660108566284 0.4099999964237213 0
          2.252394914627075 0.3028790056705475 0 2.5 0.09958530962467194 0
          2.253101110458374 0.20000110566616058 0 2.2537879943847656 0.09992396086454391 0
          2.5 0 0 2.254473924636841 0 0
          1.9331790208816528 0.4099999964237213 0 1.9326930046081543 0.302436888217926 0
          1.9322309494018555 0.2000225931406021 0 1.9317810535430908 0.10036689788103104 0
          1.9313280582427979 0 0 1.673666000366211 0.4099999964237213 0
          1.6731959581375122 0.30207809805870056 0 1.672752022743225 0.20003989338874817 0
          1.672320008277893 0.10072369873523712 0 1.6718820333480835 0 0
          1.4352350234985352 0.4099999964237213 0 1.435472011566162 0.30174940824508667 0
          1.4356939792633057 0.200055792927742 0 1.4359110593795776 0.10104890167713165 0
          1.4361319541931152 0 0 1.1943919658660889 0.4099999964237213 0
          1.1945379972457886 0.34446701407432556 0 1.1947040557861328 0.2704690098762512 0
          1.1948620080947876 0.2000720053911209 0 1.1950229406356812 0.1281961053609848 0
          1.195160984992981 0.06694473326206207 0 1.1953109502792358 5.551115123125783e-17 0
          0.9670761823654175 0.4099999964237213 0 0.9669252038002014 0.34446701407432556 0
          0.966754674911499 0.2704690098762512 0 0.9665924906730652 0.20008720457553864 0
          0.9664304256439209 0.12971509993076324 0 0.9662874937057495 0.06772056221961975 0
          0.9661315083503723 -5.551115123125783e-17 0 0.7420911192893982 0.4099999964237213 0
          0.7424538731575012 0.3312579095363617 0 0.7428207993507385 0.25162190198898315 0
          0.7430582046508789 0.20010219514369965 0 0.7432727813720703 0.1535387933254242 0
          0.743596076965332 0.08336073160171509 0 0.7439802289009094 0 0
          0.6563940048217773 0.2989940047264099 0 0.6562384963035583 0.2686634063720703 0
          0.6560214161872864 0.22632619738578796 0 0.6558870077133179 0.2001080960035324 0
          0.6557623744010925 0.1758091002702713 0 0.6555448174476624 0.13336509466171265 0
          0.6554279923439026 0.11058399826288223 0 0.6000000238418579 0.20999999344348907 0
          0.6000000238418579 0.20011180639266968 0 0.6000000238418579 0.1899999976158142 0
          0.5418165922164917 0.4099999964237213 0 0.5421459078788757 0.2990638017654419 0
          0.542235791683197 0.26877841353416443 0 0.5423629283905029 0.22595739364624023 0
          0.5424101948738098 0.20999999344348907 0 0.5424696207046509 0.1899999976158142 0
          0.5425121784210205 0.1756577044725418 0 0.5426375269889832 0.13343630731105804 0
          0.5427075028419495 0.10987050086259842 0 0.5430335998535156 0 0
          0.4773310124874115 0.4099999964237213 0 0.4773310124874115 0.2991034984588623 0
          0.4773310124874115 0.2688438892364502 0 0.4773310124874115 0.2257464975118637 0
          0.4773310124874115 0.20999999344348907 0 0.4773310124874115 0.1899999976158142 0
          0.4773310124874115 0.17557060718536377 0 0.4773310124874115 0.13347749412059784 0
          0.4773310124874115 0.10945670306682587 0 0.4773310124874115 0 0
          0.4158630073070526 0.4099999964237213 0 0.4158630073070526 0.299140989780426 0
          0.4158630073070526 0.268905907869339 0 0.4158630073070526 0.22554700076580048 0
          0.4158630073070526 0.20999999344348907 0 0.4158630073070526 0.1899999976158142 0
          0.4158630073070526 0.1754883974790573 0 0.4158630073070526 0.13351629674434662 0
          0.4158630073070526 0.10906759649515152 0 0.4158630073070526 -5.551115123125783e-17 0
          0.3587017059326172 0.4099999964237213 0 0.358366996049881 0.2991761863231659 0
          0.35827580094337463 0.2689639925956726 0 0.3581441044807434 0.22535979747772217 0
          0.35809770226478577 0.20999999344348907 0 0.3580372929573059 0.1899999976158142 0
          0.3579931855201721 0.17541100084781647 0 0.3578667938709259 0.13355280458927155 0
          0.35779181122779846 0.10869999974966049 0 0.3574635088443756 -5.551115123125783e-17 0
          0.3104879856109619 0.4099999964237213 0 0.3104879856109619 0.2992055118083954 0
          0.3104879856109619 0.2690122127532959 0 0.3104879856109619 0.225205197930336 0
          0.3104879856109619 0.20999999344348907 0 0.3057979941368103 0.24923959374427795 0
          0.3104879856109619 0.1899999976158142 0 0.3104879856109619 0.17534750699996948 0
          0.3019840121269226 0.2607221007347107 0 0.30317288637161255 0.24007770419120789 0
          0.3002147078514099 0.24861890077590942 0 0.3104879856109619 0.1335826963186264 0
          0.2991102933883667 0.23361000418663025 0 0.29848799109458923 0.2413264960050583 0
          0.3056389093399048 0.16064779460430145 0 0.29671400785446167 0.2457897961139679 0
          0.3104879856109619 0.10840050131082535 0 0.2951315939426422 0.25455769896507263 0
          0.3009043037891388 0.14724670350551605 0 0.29172301292419434 0.23629650473594666 0
          0.2916797995567322 0.2251441925764084 0 0.2916210889816284 0.20999999344348907 0
          0.2915436029434204 0.1899999976158142 0 0.29519930481910706 0.15156880021095276 0
          0.28386661410331726 0.2792389988899231 0 0.2914867103099823 0.17532210052013397 0
          0.2914538085460663 0.16684269905090332 0 0.2927626073360443 0.13975539803504944 0
          0.292195588350296 0.12737950682640076 0 0.3104879856109619 -4.8216238791707776e-17 0
          0.28533101081848145 0.1426651030778885 0 0.2798902988433838 0.13068370521068573 0
          0.2667202055454254 0.1899999976158142 0 0.2674362063407898 0.18264539539813995 0
          0.2681522071361542 0.17529089748859406 0 0.2647731900215149 0.20999999344348907 0
          0.2640404999256134 0.21752609312534332 0 0.2633078098297119 0.2250521034002304 0
          0.2550378143787384 0.4099999964237213 0 0.2575215995311737 0.25947999954223633 0
          0.2673490047454834 0.12447500228881836 0 0.24898980557918549 0.20999999344348907 0
          0.2479252964258194 0.21425369381904602 0 0.24649210274219513 0.21839779615402222 0
          0.24898980557918549 0.1899999976158142 0 0.2528896927833557 0.14462240040302277 0
          0.2481268048286438 0.18644249439239502 0 0.247005894780159 0.18295760452747345 0
          0.23452550172805786 0.299251914024353 0 0.23475870490074158 0.23594209551811218 0
          0.23453380167484283 0.16384179890155792 0 0.22403669357299805 0.2690994143486023 0
          0.2559365928173065 -3.9744860454148055e-17 0 0.21642740070819855 0.24722440540790558 0
          0.2289831042289734 0.10788460075855255 0 0.2211223989725113 0.132867693901062 0
          0.21500669419765472 0.15230509638786316 0 0.19958749413490295 0.4099999964237213 0
          0.19980500638484955 0.2992731034755707 0 0.1998641937971115 0.26912379264831543 0
          0.19990180432796478 0.24999989569187164 0 0.20034630596637726 0.15000119805335999 0
          0.2004650980234146 0.13284410536289215 0 0.20063920319080353 0.10770519822835922 0
          0.20138520002365112 -3.1273468881698533e-17 0 0.165517196059227 0.23620690405368805 0
          0.16464470326900482 0.16464470326900482 0 0.15361690521240234 0.24870219826698303 0
          0.1500009000301361 0.19970770180225372 0 0.1530458927154541 0.1530458927154541 0
          0.13183149695396423 0.4099999964237213 0 0.13148370385169983 0.2719421088695526 0
          0.1313181072473526 0.19959840178489685 0 0.1339007019996643 0.1339007019996643 0
          0.13415059447288513 -2.7755578924351364e-17 0 0.09720064699649811 0.19939899444580078 0
          0 0.4099999964237213 0 0 0.27207151055336 0
          0 0.19883060455322266 0 0 0.1326484978199005 0
          0 0 0
          <InformationKey name="L2_NORM_RANGE" location="vtkDataArray" length="2">
            <Value index="0">
              0
            </Value>
            <Value index="1">
              2.5333969284
            </Value>
          </InformationKey>
        </DataArray>
      </Points>
      <Cells>
        <DataArray type="Int64" Name="connectivity" format="ascii" RangeMin="0" RangeMax="176">
          54 55 49 55 50 49
          54 49 53 49 48 53
          3 4 0 4 1 0
          1 4 2 4 6 2
          2 6 5 6 7 5
          8 5 9 5 7 9
          10 11 3 11 4 3
          11 12 4 12 6 4
          12 13 6 13 7 6
          9 7 14 7 13 14
          15 16 10 16 11 10
          17 12 16 12 11 16
          17 18 12 18 13 12
          14 13 19 13 18 19
          20 21 15 21 16 15
          22 17 21 17 16 21
          23 18 22 18 17 22
          19 18 24 18 23 24
          26 27 20 27 21 20
          29 30 23 30 24 23
          37 30 36 30 29 36
          34 27 33 27 26 33
          27 28 21 28 22 21
          28 29 22 29 23 22
          35 28 34 28 27 34
          29 28 36 28 35 36
          39 40 32 40 33 32
          40 41 33 41 34 33
          42 35 41 35 34 41
          43 36 42 36 35 42
          43 44 36 44 37 36
          38 37 45 37 44 45
          47 40 46 40 39 46
          48 41 47 41 40 47
          49 42 48 42 41 48
          50 43 49 43 42 49
          44 43 51 43 50 51
          45 44 52 44 51 52
          64 65 52 65 45 52
          39 56 46 56 57 46
          66 67 56 67 57 56
          67 68 57 68 58 57
          57 58 46 58 47 46
          58 59 47 59 48 47
          48 59 53 59 60 53
          61 62 55 62 50 55
          62 63 50 63 51 50
          76 77 66 77 67 66
          86 87 76 87 77 76
          96 97 86 97 87 86
          96 134 97 134 144 97
          134 153 144 153 154 144
          153 166 154 166 167 154
          166 172 167 172 173 167
          173 174 167 174 171 167
          174 175 171 175 169 171
          176 170 175 170 169 175
          169 170 159 170 160 159
          150 148 112 148 125 112
          159 160 150 160 148 150
          95 94 125 94 112 125
          85 84 95 84 94 95
          75 74 85 74 84 85
          65 64 75 64 74 75
          63 73 64 73 74 64
          63 64 51 64 52 51
          68 69 58 69 59 58
          59 69 60 69 70 60
          78 68 77 68 67 77
          77 87 78 87 88 78
          98 88 97 88 87 97
          79 69 78 69 68 78
          88 89 78 89 79 78
          88 98 89 98 99 89
          72 73 62 73 63 62
          82 83 72 83 73 72
          92 93 82 93 83 82
          103 107 92 107 93 92
          73 83 74 83 84 74
          83 93 84 93 94 84
          93 107 94 107 112 94
          154 167 155 167 163 155
          72 62 71 62 61 71
          82 72 81 72 71 81
          92 82 91 82 81 91
          103 92 102 92 91 102
          79 89 80 89 90 80
          100 90 99 90 89 99
          167 171 163 171 168 163
          168 171 165 171 169 165
          165 169 158 169 159 158
          159 150 158 150 151 158
          150 136 151 136 141 151
          141 136 130 136 122 130
          147 144 155 144 154 155
          135 120 147 120 144 147
          133 115 135 115 120 135
          163 161 155 161 156 155
          168 164 163 164 161 163
          162 164 165 164 168 165
          157 162 158 162 165 158
          152 157 151 157 158 151
          141 146 151 146 152 151
          155 156 147 156 149 147
          149 145 147 145 135 147
          145 139 135 139 133 135
          132 116 133 116 115 133
          131 117 132 117 116 132
          138 132 139 132 133 139
          137 131 138 131 132 138
          130 129 143 129 142 143
          129 128 142 128 140 142
          143 146 130 146 141 130
          122 121 130 121 129 130
          121 118 129 118 128 129
          112 107 124 103 121 122
          124 107 123 112 124 136
          103 122 110 110 122 119
          103 110 107 119 126 123
          110 119 114 119 123 114
          110 114 107 114 123 107
          124 123 127 127 123 126
          124 127 136 126 119 122
          127 126 136 136 126 122
          136 150 112 118 121 102
          121 103 102 115 116 108
          116 99 108 98 97 120
          115 108 109 108 105 109
          98 120 104 115 109 111
          111 109 106 115 111 113
          106 109 105 111 106 113
          105 108 99 106 105 101
          101 105 99 106 101 104
          104 101 98 106 104 113
          98 101 99 104 120 113
          113 120 115 144 120 97
          116 117 99 117 100 99
          69 79 70 79 80 70
          32 33 25 33 26 25
          31 30 38 30 37 38
          31 24 30 20 25 26
        </DataArray>
        <DataArray type="Int64" Name="offsets" format="ascii" RangeMin="3" RangeMax="846">
          3 6 9 12 15 18
          21 24 27 30 33 36
          39 42 45 48 51 54
          57 60 63 66 69 72
          75 78 81 84 87 90
          93 96 99 102 105 108
          111 114 117 120 123 126
          129 132 135 138 141 144
          147 150 153 156 159 162
          165 168 171 174 177 180
          183 186 189 192 195 198
          201 204 207 210 213 216
          219 222 225 228 231 234
          237 240 243 246 249 252
          255 258 261 264 267 270
          273 276 279 282 285 288
          291 294 297 300 303 306
          309 312 315 318 321 324
          327 330 333 336 339 342
          345 348 351 354 357 360
          363 366 369 372 375 378
          381 384 387 390 393 396
          399 402 405 408 411 414
          417 420 423 426 429 432
          435 438 441 444 447 450
          453 456 459 462 465 468
          471 474 477 480 483 486
          489 492 495 498 501 504
          507 510 513 516 519 522
          525 528 531 534 537 540
          543 546 549 552 555 558
          561 564 567 570 573 576
          579 582 585 588 591 594
          597 600 603 606 609 612
          615 618 621 624 627 630
          633 636 639 642 645 648
          651 654 657 660 663 666
          669 672 675 678 681 684
          687 690 693 696 699 702
          705 708 711 714 717 720
          723 726 729 732 735 738
          741 744 747 750 753 756
          759 762 765 768 771 774
          777 780 783 786 789 792
          795 798 801 804 807 810
          813 816 819 822 825 828
          831 834 837 840 843 846
        </DataArray>
        <DataArray type="UInt8" Name="types" format="ascii" RangeMin="5" RangeMax="5">
          5 5 5 5 5 5
          5 5 5 5 5 5
          5 5 5 5 5 5
          5 5 5 5 5 5
          5 5 5 5 5 5
          5 5 5 5 5 5
          5 5 5 5 5 5
          5 5 5 5 5 5
          5 5 5 5 5 5
          5 5 5 5 5 5
          5 5 5 5 5 5
          5 5 5 5 5 5
          5 5 5 5 5 5
          5 5 5 5 5 5
          5 5 5 5 5 5
          5 5 5 5 5 5
          5 5 5 5 5 5
          5 5 5 5 5 5
          5 5 5 5 5 5
          5 5 5 5 5 5
          5 5 5 5 5 5
          5 5 5 5 5 5
          5 5 5 5 5 5
          5 5 5 5 5 5
          5 5 5 5 5 5
          5 5 5 5 5 5
          5 5 5 5 5 5
          5 5 5 5 5 5
          5 5 5 5 5 5
          5 5 5 5 5 5
          5 5 5 5 5 5
          5 5 5 5 5 5
          5 5 5 5 5 5
          5 5 5 5 5 5
          5 5 5 5 5 5
          5 5 5 5 5 5
          5 5 5 5 5 5
          5 5 5 5 5 5
          5 5 5 5 5 5
          5 5 5 5 5 5
          5 5 5 5 5 5
          5 5 5 5 5 5
          5 5 5 5 5 5
          5 5 5 5 5 5
          5 5 5 5 5 5
          5 5 5 5 5 5
          5 5 5 5 5 5
        </DataArray>
      </Cells>
    </Piece>
  </UnstructuredGrid>
</VTKFile>
