<?xml version="1.0"?>
<VTKFile type="UnstructuredGrid" version="0.1" byte_order="LittleEndian" header_type="UInt32" compressor="vtkZLibDataCompressor">
  <UnstructuredGrid>
    <Piece NumberOfPoints="177" NumberOfCells="282">
      <PointData>
        <DataArray type="Float64" Name="ale_BC" NumberOfComponents="3" format="ascii" RangeMin="0" RangeMax="0">
          0 0 0 0 0 0
          0 0 0 0 0 0
          0 0 0 0 0 0
          0 0 0 0 0 0
          0 0 0 0 0 0
          0 0 0 0 0 0
          0 0 0 0 0 0
          0 0 0 0 0 0
          0 0 0 0 0 0
          0 0 0 0 0 0
          0 0 0 0 0 0
          0 0 0 0 0 0
          0 0 0 0 0 0
          0 0 0 0 0 0
          0 0 0 0 0 0
          0 0 0 0 0 0
          0 0 0 0 0 0
          0 0 0 0 0 0
          0 0 0 0 0 0
          0 0 0 0 0 0
          0 0 0 0 0 0
          0 0 0 0 0 0
          0 0 0 0 0 0
          0 0 0 0 0 0
          0 0 0 0 0 0
          0 0 0 0 0 0
          0 0 0 0 0 0
          0 0 0 0 0 0
          0 0 0 0 0 0
          0 0 0 0 0 0
          0 0 0 0 0 0
          0 0 0 0 0 0
          0 0 0 0 0 0
          0 0 0 0 0 0
          0 0 0 0 0 0
          0 0 0 0 0 0
          0 0 0 0 0 0
          0 0 0 0 0 0
          0 0 0 0 0 0
          0 0 0 0 0 0
          0 0 0 0 0 0
          0 0 0 0 0 0
          0 0 0 0 0 0
          0 0 0 0 0 0
          0 0 0 0 0 0
          0 0 0 0 0 0
          0 0 0 0 0 0
          0 0 0 0 0 0
          0 0 0 0 0 0
          0 0 0 0 0 0
          0 0 0 0 0 0
          0 0 0 0 0 0
          0 0 0 0 0 0
          0 0 0 0 0 0
          0 0 0 0 0 0
          0 0 0 0 0 0
          0 0 0 0 0 0
          0 0 0 0 0 0
          0 0 0 0 0 0
          0 0 0 0 0 0
          0 0 0 0 0 0
          0 0 0 0 0 0
          0 0 0 0 0 0
          0 0 0 0 0 0
          0 0 0 0 0 0
          0 0 0 0 0 0
          0 0 0 0 0 0
          0 0 0 0 0 0
          0 0 0 0 0 0
          0 0 0 0 0 0
          0 0 0 0 0 0
          0 0 0 0 0 0
          0 0 0 0 0 0
          0 0 0 0 0 0
          0 0 0 0 0 0
          0 0 0 0 0 0
          0 0 0 0 0 0
          0 0 0 0 0 0
          0 0 0 0 0 0
          0 0 0 0 0 0
          0 0 0 0 0 0
          0 0 0 0 0 0
          0 0 0 0 0 0
          0 0 0 0 0 0
          0 0 0 0 0 0
          0 0 0 0 0 0
          0 0 0 0 0 0
          0 0 0 0 0 0
          0 0 0
          <InformationKey name="L2_NORM_RANGE" location="vtkDataArray" length="2">
            <Value index="0">
              0
            </Value>
            <Value index="1">
              0
            </Value>
          </InformationKey>
        </DataArray>
        <DataArray type="Float64" Name="ale_FIXNO" NumberOfComponents="3" format="ascii" RangeMin="1.4142135623730951" RangeMax="5.656854249492381">
          1 1 0 1 1 0
          1 1 0 1 1 0
          -1 -1 0 1 1 0
          -1 -1 0 -1 -1 0
          1 1 0 1 1 0
          1 1 0 -1 -1 0
          -1 -1 0 -1 -1 0
          1 1 0 1 1 0
          -1 -1 0 -1 -1 0
          -1 -1 0 1 1 0
          1 1 0 -1 -1 0
          -1 -1 0 -1 -1 0
          1 1 0 1 1 0
          -1 -1 0 -1 -1 0
          -1 -1 0 -1 -1 0
          -1 -1 0 1 1 0
          1 1 0 -1 -1 0
          -1 -1 0 -1 -1 0
          -1 -1 0 -1 -1 0
          1 1 0 1 1 0
          -1 -1 0 -1 -1 0
          -1 -1 0 -1 -1 0
          -1 -1 0 1 1 0
          -1 -1 0 -1 -1 0
          -1 -1 0 -1 -1 0
          -1 -1 0 -1 -1 0
          -1 -1 0 4 4 0
          4 4 0 4 4 0
          1 1 0 -1 -1 0
          -1 -1 0 -1 -1 0
          4 4 0 4 4 0
          -1 -1 0 -1 -1 0
          -1 -1 0 1 1 0
          1 1 0 -1 -1 0
          -1 -1 0 -1 -1 0
          4 4 0 4 4 0
          -1 -1 0 -1 -1 0
          -1 -1 0 1 1 0
          1 1 0 -1 -1 0
          -1 -1 0 -1 -1 0
          4 4 0 4 4 0
          -1 -1 0 -1 -1 0
          -1 -1 0 1 1 0
          1 1 0 -1 -1 0
          -1 -1 0 -1 -1 0
          4 4 0 4 4 0
          -1 -1 0 -1 -1 0
          -1 -1 0 1 1 0
          1 1 0 -1 -1 0
          -1 -1 0 -1 -1 0
          4 4 0 -1 -1 0
          4 4 0 -1 -1 0
          -1 -1 0 -1 -1 0
          -1 -1 0 -1 -1 0
          -1 -1 0 -1 -1 0
          -1 -1 0 -1 -1 0
          -1 -1 0 -1 -1 0
          -1 -1 0 -1 -1 0
          -1 -1 0 4 4 0
          4 4 0 -1 -1 0
          -1 -1 0 -1 -1 0
          -1 -1 0 -1 -1 0
          -1 -1 0 1 1 0
          -1 -1 0 -1 -1 0
          4 4 0 -1 -1 0
          -1 -1 0 4 4 0
          -1 -1 0 -1 -1 0
          1 1 0 -1 -1 0
          -1 -1 0 4 4 0
          1 1 0 1 1 0
          4 4 0 -1 -1 0
          1 1 0 1 1 0
          -1 -1 0 1 1 0
          1 1 0 -1 -1 0
          1 1 0 1 1 0
          -1 -1 0 -1 -1 0
          1 1 0 1 1 0
          -1 -1 0 -1 -1 0
          1 1 0 1 1 0
          -1 -1 0 -1 -1 0
          1 1 0 1 1 0
          1 1 0 -1 -1 0
          1 1 0 -1 -1 0
          1 1 0 -1 -1 0
          -1 -1 0 -1 -1 0
          1 1 0 -1 -1 0
          1 1 0 1 1 0
          1 1 0 1 1 0
          1 1 0
          <InformationKey name="L2_NORM_RANGE" location="vtkDataArray" length="2">
            <Value index="0">
              1.4142135624
            </Value>
            <Value index="1">
              5.6568542495
            </Value>
          </InformationKey>
        </DataArray>
        <DataArray type="Float64" Name="nsi_BC" NumberOfComponents="3" format="ascii" RangeMin="0" RangeMax="1.5">
          0 0 0 1.5 0 0
          1.5 0 0 0 0 0
          1.5 0 0 1.5 0 0
          1.5 0 0 1.5 0 0
          0 0 0 0 0 0
          0 0 0 1.5 0 0
          1.5 0 0 1.5 0 0
          0 0 0 0 0 0
          1.5 0 0 1.5 0 0
          1.5 0 0 0 0 0
          0 0 0 1.5 0 0
          1.5 0 0 1.5 0 0
          0 0 0 0 0 0
          1.5 0 0 1.5 0 0
          1.5 0 0 1.5 0 0
          1.5 0 0 0 0 0
          0 0 0 1.5 0 0
          1.5 0 0 1.5 0 0
          1.5 0 0 1.5 0 0
          0 0 0 0 0 0
          1.5 0 0 1.5 0 0
          1.5 0 0 1.5 0 0
          1.5 0 0 0 0 0
          1.5 0 0 1.5 0 0
          1.5 0 0 1.5 0 0
          1.5 0 0 1.5 0 0
          1.5 0 0 0 0 0
          0 0 0 0 0 0
          0 0 0 1.5 0 0
          1.5 0 0 1.5 0 0
          0 0 0 0 0 0
          1.5 0 0 1.5 0 0
          1.5 0 0 0 0 0
          0 0 0 1.5 0 0
          1.5 0 0 1.5 0 0
          0 0 0 0 0 0
          1.5 0 0 1.5 0 0
          1.5 0 0 0 0 0
          0 0 0 1.5 0 0
          1.5 0 0 1.5 0 0
          0 0 0 0 0 0
          1.5 0 0 1.5 0 0
          1.5 0 0 0 0 0
          0 0 0 1.5 0 0
          1.5 0 0 1.5 0 0
          0 0 0 0 0 0
          1.5 0 0 1.5 0 0
          1.5 0 0 0 0 0
          0 0 0 1.5 0 0
          1.5 0 0 1.5 0 0
          0 0 0 1.5 0 0
          0 0 0 1.5 0 0
          1.5 0 0 1.5 0 0
          1.5 0 0 1.5 0 0
          1.5 0 0 1.5 0 0
          1.5 0 0 1.5 0 0
          1.5 0 0 1.5 0 0
          1.5 0 0 1.5 0 0
          1.5 0 0 0 0 0
          0 0 0 1.5 0 0
          1.5 0 0 1.5 0 0
          1.5 0 0 1.5 0 0
          1.5 0 0 0 0 0
          1.5 0 0 1.5 0 0
          0 0 0 1.5 0 0
          1.5 0 0 0 0 0
          1.5 0 0 1.5 0 0
          0 0 0 1.5 0 0
          1.5 0 0 0 0 0
          0 0 0 0 0 0
          0 0 0 1.5 0 0
          0 0 0 0 0 0
          1.5 0 0 0 0 0
          0 0 0 1.5 0 0
          0 0 0 0 0 0
          1.5 0 0 1.5 0 0
          0 0 0 0 0 0
          1.5 0 0 1.5 0 0
          0 0 0 0 0 0
          1.5 0 0 1.5 0 0
          0 0 0 0 0 0
          0 0 0 1.5 0 0
          0 0 0 1.5 0 0
          0 0 0 1.5 0 0
          1.5 0 0 1.5 0 0
          0 0 0 1.5 0 0
          0 0 0 1.339432 0 0
          1.498641 0 0 1.313156 0 0
          0 0 0
          <InformationKey name="L2_NORM_RANGE" location="vtkDataArray" length="2">
            <Value index="0">
              0
            </Value>
            <Value index="1">
              1.5
            </Value>
          </InformationKey>
        </DataArray>
        <DataArray type="Float64" Name="nsi_FIXNO" NumberOfComponents="3" format="ascii" RangeMin="0" RangeMax="1.4142135623730951">
          1 1 0 0 0 0
          0 0 0 1 1 0
          0 0 0 0 0 0
          0 0 0 0 0 0
          1 1 0 1 1 0
          1 1 0 0 0 0
          0 0 0 0 0 0
          1 1 0 1 1 0
          0 0 0 0 0 0
          0 0 0 1 1 0
          1 1 0 0 0 0
          0 0 0 0 0 0
          1 1 0 1 1 0
          0 0 0 0 0 0
          0 0 0 0 0 0
          0 0 0 1 1 0
          1 1 0 0 0 0
          0 0 0 0 0 0
          0 0 0 0 0 0
          1 1 0 1 1 0
          0 0 0 0 0 0
          0 0 0 0 0 0
          0 0 0 1 1 0
          0 0 0 0 0 0
          0 0 0 0 0 0
          0 0 0 0 0 0
          0 0 0 1 1 0
          1 1 0 1 1 0
          1 1 0 0 0 0
          0 0 0 0 0 0
          1 1 0 1 1 0
          0 0 0 0 0 0
          0 0 0 1 1 0
          1 1 0 0 0 0
          0 0 0 0 0 0
          1 1 0 1 1 0
          0 0 0 0 0 0
          0 0 0 1 1 0
          1 1 0 0 0 0
          0 0 0 0 0 0
          1 1 0 1 1 0
          0 0 0 0 0 0
          0 0 0 1 1 0
          1 1 0 0 0 0
          0 0 0 0 0 0
          1 1 0 1 1 0
          0 0 0 0 0 0
          0 0 0 1 1 0
          1 1 0 0 0 0
          0 0 0 0 0 0
          1 1 0 0 0 0
          1 1 0 0 0 0
          0 0 0 0 0 0
          0 0 0 0 0 0
          0 0 0 0 0 0
          0 0 0 0 0 0
          0 0 0 0 0 0
          0 0 0 0 0 0
          0 0 0 1 1 0
          1 1 0 0 0 0
          0 0 0 0 0 0
          0 0 0 0 0 0
          0 0 0 1 1 0
          0 0 0 0 0 0
          1 1 0 0 0 0
          0 0 0 1 1 0
          0 0 0 0 0 0
          1 1 0 0 0 0
          0 0 0 1 1 0
          1 1 0 1 1 0
          1 1 0 0 0 0
          1 1 0 1 1 0
          0 0 0 1 1 0
          1 1 0 0 0 0
          1 1 0 1 1 0
          0 0 0 0 0 0
          1 1 0 1 1 0
          0 0 0 0 0 0
          1 1 0 1 1 0
          0 0 0 0 0 0
          1 1 0 1 1 0
          1 1 0 0 0 0
          1 1 0 0 0 0
          1 1 0 0 0 0
          0 0 0 0 0 0
          1 1 0 0 0 0
          1 1 0 1 1 0
          1 1 0 1 1 0
          1 1 0
          <InformationKey name="L2_NORM_RANGE" location="vtkDataArray" length="2">
            <Value index="0">
              0
            </Value>
            <Value index="1">
              1.4142135624
            </Value>
          </InformationKey>
        </DataArray>
        <DataArray type="Float64" Name="Velocity" NumberOfComponents="3" format="ascii" RangeMin="0" RangeMax="2.705957415609372">
          0 0 0 1.1635092361231236 0.11001641478822496 0
          1.2971502038498512 -0.02200022104621528 0 0 0 0
          1.3741088104788088 0.024023515055519157 0 1.221727964567955 -0.03441235440365015 0
          1.4100038550424094 -0.004637331591739688 0 1.3511257382272623 -0.012202093382005761 0
          0 0 0 0 0 0
          0 0 0 1.3211407869107716 0.011134576719354295 0
          1.3843066262227859 -0.00041541046458001704 0 1.324261246157829 -0.0031001059016280007 0
          0 0 0 0 0 0
          1.3084832808276967 0.0020035699458768033 0 1.3759014522296615 -0.00032840560508783784 0
          1.3177365127244158 0.010172746839398015 0 0 0 0
          0 0 0 1.2447190595511175 -0.022187647059606505 0
          1.3229936667177922 0.007749725231754968 0 1.289800291940992 0.022551345748016965 0
          0 0 0 0 0 0
          1.1372426644940716 0.030251860992227524 0 1.2521489830640617 -0.0008698865936674537 0
          1.2331738445101457 -0.014329968561829958 0 1.2504039581686408 0.006087831971593304 0
          1.1263841982126517 0.0010443561675898031 0 0 0 0
          0 0 0 1.171822819483 0.01925466426682379 0
          1.2301939630538086 0.000051074258117817606 0 1.2324433772774233 -0.005618624070647452 0
          1.265289668168442 -0.013138104482557592 0 1.114958751949836 0.010499734543726266 0
          0 0 0 0 0 0
          1.1651414918527272 -0.010439299556574005 0 1.2647569234670046 0.001947895024605907 0
          1.2017949524967486 -0.019513985767808016 0 1.2666712898101962 0.03982764588783194 0
          1.1982314381590444 0.012574006746290868 0 0 0 0
          1.3278979345843864 -0.07621913743518155 0 1.4171709842911258 -0.14037356590617883 0
          1.2229945695974525 -0.17374831666157273 0 1.144666012427871 0.2370893718658283 0
          1.4091846910004262 0.1480331037512859 0 1.4248756979170312 0.14812310382522137 0
          1.252837587194297 0.0632876654057535 0 0.0056170624257357304 -0.2059650851785062 0
          -0.016104569101202025 -0.2191963379674544 0 -0.0393238158526481 -0.22148185462895853 0
          0 0 0 1.4009409312043242 -0.04067147577628869 0
          1.4657075734811815 -0.07014398953878082 0 1.405721488158108 -0.07785813747430544 0
          0.043697852728897174 -0.009851008914438755 0 -0.04062947071565203 -0.005922492819451204 0
          1.4137812559106577 0.019303306263477083 0 1.4774054184520597 0.03309703584605203 0
          1.38897599957799 0.030950802533123944 0 0 0 0
          0 0 0 1.4057439203885882 -0.03966846230683298 0
          1.463505081683927 -0.019545438361992042 0 1.4239486374593393 -0.003500804847601959 0
          -0.009077571739291279 -0.00853465149621606 0 0.01411838121058083 -0.005950342003841642 0
          1.3650404480026832 -0.0029874576218752325 0 1.4826957379687864 -0.011117325643553647 0
          1.4109907718364705 0.02372775020833391 0 0 0 0
          0 0 0 1.4302903512173513 -0.03781661874377369 0
          1.4785747823232285 -0.02540692196051542 0 1.3484846659835388 0.00796453219429561 0
          -0.0003835140810065179 0.0018935508583949373 0 -0.0009451871460448562 0.0015043305540800383 0
          1.3333494347224757 0.0035846938517149845 0 1.460230876745331 -0.008515242187210411 0
          1.419148245976911 0.04064940756109747 0 0 0 0
          0 0 0 1.4395121674091653 -0.054845361226063115 0
          1.421070751573854 -0.07554983168492753 0 1.332567012859697 -0.006965470790672588 0
          0.000029162995490288336 -0.0000678738804362132 0 -0.00007565002224879765 -0.00008609318426800398 0
          1.2783309045743079 0.011596227563504638 0 1.4383645938314165 0.04758487048827843 0
          1.4272507812656834 0.07134490122356978 0 0 0 0
          0 0 0 1.52485740978639 -0.11515003089436808 0
          1.3702001788970057 -0.16980197292534935 0 1.192757864472777 -0.018327871455944743 0
          -0.000007452903904086828 0.0000026990310180994247 0 1.3079772451099978 -0.1587051759701935 0
          0.000006127394896250155 0.0000021326830051841577 0 1.1224091747304867 0.03304022970104371 0
          1.2884908807741682 -0.21325643285698165 0 1.242540867683448 -0.13263915518815983 0
          1.2481449768261006 -0.1982794261981535 0 1.431436129263344 0.17250445032541803 0
          1.2052630067292858 -0.1345722146483236 0 1.2444341500990845 -0.1943208481553848 0
          1.259390763002648 0.1895208698714816 0 1.282759360404493 -0.24544932854039417 0
          1.5250220076126417 0.08967957513785411 0 1.3134042324766453 -0.2827501714095137 0
          1.3471257252338513 0.273012718273602 0 1.0715036919581218 -0.36632302848357745 0
          0.817221451400915 -0.10537908376978392 0 -0.0000013677636198291905 -0.0000030163387847107287 0
          0.0000011102228440107652 -0.0000031135710242074355 0 1.2956508924433539 0.2555439960228396 0
          1.3750368618862487 -0.5979485656561802 0 0.889397767809164 -0.009841138312735776 0
          1.0076144563683334 0.22947990936701582 0 1.368774218004498 0.3714303691488721 0
          1.3853385414436163 0.3839694860748781 0 0 0 0
          1.287204109449024 0.4652531403452077 0 1.3881086895801416 0.5761716333325799 0
          -7.119899644112363e-7 2.3033155385100514e-8 0 0.2239863081104288 0.02942855772076843 0
          0.5096098553814062 0.43616194671543734 0 6.067161280296436e-7 3.408778392036996e-8 0
          0.053299472668588914 -0.10287603293865562 0 0.19646739789296774 -0.4371419180283329 0
          0 0 0 1.4791183715461047 -0.6878074960692007 0
          1.547928077951739 0.7791573582069063 0 5.501304619639353e-22 1.9968580388585244e-23 0
          0 0 0 0 0 0
          1.1997541418223086e-21 -3.8812518369360195e-23 0 1.3271480884827551 0.549418726790394 0
          0 0 0 0 0 0
          1.8754428144292816 -0.10229580442888354 0 0 0 0
          0 0 0 2.6744642515517905 -0.27743322613397164 0
          0 0 0 0 0 0
          1.9011524497179582 0.08483443784881937 0 2.701985578818235 0.14655874914053618 0
          0 0 0 0 0 0
          1.9377300574437635 0.05788356053826965 0 2.193908181297326 0.9440490507299564 0
          0 0 0 0 0 0
          2.0986192171227667 -1.0044612592007323 0 1.93970286609765 -0.13038327388863544 0
          0 0 0 0 0 0
          0 0 0 0.9312267835553663 0.9787993523465458 0
          0 0 0 0.9587308701855324 -0.9535962697845207 0
          0 0 0 1.4876327105694733 0.26839746906263595 0
          0.6398611346707664 -0.026507826802103635 0 1.5076818205878892 -0.4122652274884502 0
          0 0 0 1.2679397358874105 0.058391744020544485 0
          0 0 0 1.339432 0 0
          1.498641 0 0 1.3131559999999998 0 0
          0 0 0
          <InformationKey name="L2_NORM_RANGE" location="vtkDataArray" length="2">
            <Value index="0">
              0
            </Value>
            <Value index="1">
              2.7059574156
            </Value>
          </InformationKey>
        </DataArray>
        <DataArray type="Float64" Name="Pressure" format="ascii" RangeMin="-14459.372856395277" RangeMax="179.66785597163937">
          -24.511337152624996 108.68929638986035 179.66785597163937 -1418.7845190064893 -1366.2488672532832 116.07248864925205
          -1372.9665375046795 -1397.5684623092627 2.487790461343343 -1419.0128120622767 -3386.5526932303046 -3405.1776816672223
          -3448.8701558697776 -3456.946674660991 -3435.2136485171977 -4936.81486673151 -4994.074819078904 -5029.048525160911
          -5023.924715622776 -4991.933353660589 -6257.058321430478 -6383.31923706978 -6403.036686925797 -6327.390349825535
          -6276.350011822456 -8037.977071064649 -8011.598295863612 -8004.16527354379 -8069.527094540524 -8069.268424497329
          -8057.134153258256 -8072.799134840917 -10167.863709848127 -10148.500682702757 -10093.089849097136 -10049.462907759891
          -10019.431654213256 -10076.043115625944 -10091.476001183857 -12015.896371657911 -12030.715871859105 -11843.14919048967
          -11707.583211519453 -11673.47696899024 -11751.652899070501 -11767.451868092403 -12441.028561643943 -12479.66189250435
          -12536.263329809497 -12573.338688959859 -12069.543289544772 -12060.655318793923 -11978.648717770562 -12717.542845365391
          -12431.912464418814 -11970.12096378172 -12726.94789009042 -12746.038083776279 -12795.84099585151 -12917.454304392584
          -12957.764547025767 -11546.468572088464 -11494.92721095596 -11761.872519823433 -11921.27243744019 -12133.702886063655
          -12724.989146600275 -12705.216778456735 -12674.602323271416 -12733.473461291102 -12773.548963129715 -11718.852439552917
          -11690.695064092877 -11774.20931956211 -11878.553590092468 -12090.660503599707 -12638.298666815685 -12591.069999243939
          -12569.537945139884 -12590.228582377631 -12582.33719160133 -11881.00201156661 -11878.140183678173 -11871.043968232821
          -11923.257844053465 -12080.785590970507 -12474.048788692573 -12413.757616318037 -12404.125610028455 -12407.240753109993
          -12397.602839853816 -11928.892565869175 -11934.824748658992 -11893.472323155607 -11932.048817555202 -12060.867808846322
          -12322.254203473518 -12299.510723010497 -12279.89300134733 -12290.815274094846 -12249.37360499891 -12294.95450217171
          -11958.951180763366 -11965.172318081315 -12199.39593320994 -12283.487526511672 -12239.85600469974 -11956.919031219502
          -12278.143288896203 -12385.985088390418 -11993.766469228602 -12420.966358818074 -12011.305578379945 -12336.672988318647
          -11943.839472104564 -12102.415832715296 -12111.911985083776 -12076.916074747838 -11794.948789334201 -11999.142370350457
          -12340.739313945844 -11815.82056186635 -11914.20986385339 -11933.980599394636 -11919.938471494874 -11993.047880733528
          -11889.122498287386 -11947.964233099154 -11857.83391780559 -11919.559409672984 -12098.624124085512 -12399.598635016571
          -12466.187937770947 -12594.639014973996 -12147.232738810808 -12806.085694383937 -12161.080702475476 -13315.44263783409
          -13436.463508585059 -13648.437337102134 -12626.099909923707 -12524.544183761076 -12732.758173603674 -12960.803037172962
          -12436.299394225809 -14002.93125446874 -13671.580296105238 -14217.350568836462 -11929.804788800064 -14137.215862247318
          -12233.72622515801 -14459.372856395277 -14239.833585299966 -11982.974426224415 -12319.828749906741 -12756.111223138305
          -13256.8932779344 -13021.95207194185 -12676.884241772053 -12157.401647342833 -11913.227315061667 -10849.036063374684
          -10826.395707342084 -10271.647938984328 -9720.720774210182 -10519.927402211062 -11645.414202150729 -11078.563281388178
          -9825.486467500292 -11028.04827071409 -11797.49893499709 -10317.667469107251 -11591.594759110432 -11256.350479297005
          -10809.216246019017 -11021.206464691099 -11428.345208194944
        </DataArray>
        <DataArray type="Float64" Name="BTraction" NumberOfComponents="3" format="ascii" RangeMin="0" RangeMax="13816.012689957011">
          -15.450703957587526 338.66847612710194 0 -99.42865568508515 -5.829131687802341 0
          -158.53474814586818 -0.14549145972847236 0 -12.524015233766187 1583.3931963206617 0
          0 0 0 -108.32151326749542 6.450828829567401 0
          0 0 0 0 0 0
          -20.371265342058084 -331.3024452313661 0 -12.986285059099245 -1595.8961910100472 0
          -12.229585997955427 3257.018191144836 0 0 0 0
          0 0 0 0 0 0
          -13.379641116593087 -3293.36048946176 0 -11.861451352278138 4878.400735938632 0
          0 0 0 0 0 0
          0 0 0 -13.087790607234412 -4923.953635971735 0
          -14.46815572354038 6336.179103945945 0 0 0 0
          0 0 0 0 0 0
          -14.97361459292925 -6367.267430472997 0 -17.577854230882593 8076.545578602905 0
          0 0 0 0 0 0
          0 0 0 0 0 0
          0 0 0 -16.929815064759794 -8094.118932005962 0
          -16.158028795893426 10117.306879555197 0 0 0 0
          0 0 0 0 0 0
          0 0 0 0 0 0
          -16.71427819871799 -10024.939037594517 0 -13.165624158745912 11802.38438928109 0
          0 0 0 0 0 0
          0 0 0 0 0 0
          0 0 0 -14.17208319773531 -11532.825828250046 0
          0 0 0 0 0 0
          0 0 0 0 0 0
          0 0 0 0 0 0
          0 0 0 -2280.4565735890765 -10838.400149906616 0
          -12429.93613446715 545.6501178881091 0 -1577.231821499211 10119.893075273469 0
          -11.910690450262845 12548.687555356673 0 0 0 0
          0 0 0 0 0 0
          -273.08254333351533 -12881.806683709545 0 68.53993667955143 11635.136527180917 0
          0 0 0 0 0 0
          0 0 0 -11.87240684465998 -12039.188537598106 0
          -12.77206275128478 12711.919606373764 0 0 0 0
          0 0 0 0 0 0
          -77.48637483911124 -12774.873584497414 0 -107.27841513517205 11713.691373960079 0
          0 0 0 0 0 0
          0 0 0 -12.793499160058351 -12096.984017216859 0
          -12.933786598915303 12627.720218046867 0 0 0 0
          0 0 0 0 0 0
          -89.91654773034416 -12585.347870496224 0 -90.0187530298407 11860.51139825976 0
          0 0 0 0 0 0
          0 0 0 -12.961381015852064 -12079.824790011573 0
          -13.331214634323754 12482.083937738551 0 0 0 0
          0 0 0 0 0 0
          -82.45197565721541 -12407.453103543916 0 -90.36944935270462 11923.774169497243 0
          0 0 0 0 0 0
          0 0 0 -13.063800449937125 -12055.467615463234 0
          -13.74977688070098 12316.657334073949 0 0 0 0
          0 0 0 0 0 0
          -78.26767561298414 -12266.039910931177 0 0 0 0
          -80.06554367397827 11935.446995306975 0 0 0 0
          0 0 0 0 0 0
          0 0 0 0 0 0
          0 0 0 0 0 0
          0 0 0 0 0 0
          0 0 0 0 0 0
          0 0 0 0 0 0
          0 0 0 -36.44204274189167 -12146.81452557924 0
          -43.66653367859156 11826.519725973281 0 0 0 0
          0 0 0 0 0 0
          0 0 0 0 0 0
          0 0 0 -13.63178705632585 -11993.676845642942 0
          0 0 0 0 0 0
          -17.854787745569762 11947.615534628883 0 0 0 0
          0 0 0 -4.4466293290982195 -12427.723672321972 0
          0 0 0 0 0 0
          -15.33709710423416 12150.988004785077 0 0 0 0
          0 0 0 -2816.874061399398 -10886.494698623965 0
          -12882.43521985269 -3830.472221383276 0 -11738.914025373148 -7093.457244107702 0
          -2105.729793005665 10763.937865208924 0 0 0 0
          -12277.177957329164 3458.5230734099023 0 -11250.169798655623 6747.215723129882 0
          0 0 0 -9538.256549614778 -9874.517438275932 0
          -9257.213943644934 9645.909290995143 0 0 0 0
          -15.850581833943034 -11939.196491525478 0 -5290.03990235506 -12739.801245557283 0
          0 0 0 0 0 0
          -5325.436381429911 12748.409077072945 0 -17.24423985524677 11945.993039007943 0
          0 0 0 0 0 0
          2372.437908814154 -12158.18550214826 0 2658.3476681981956 11950.00496458012 0
          0 0 0 0 0 0
          -17.839983327765953 -11893.77417984196 0 6974.34379498247 -7394.503454262665 0
          6885.934596592283 7448.049163836769 0 0 0 0
          9210.395075431428 -116.25017802107084 0 0 0 0
          -13.070312209934137 11668.836049665995 0 0 0 0
          0 0 0 0 0 0
          -12.60629402635979 -11727.60050685247 0 0 0 0
          -5876.081888915714 5675.5923467406365 0 -11279.900838429036 5.061810573910257 0
          -10919.963907393663 -1.5425797260372682 0 -11086.632276532353 -7.737173149792619 0
          -5619.504566820484 -5813.13775296615 0
          <InformationKey name="L2_NORM_RANGE" location="vtkDataArray" length="2">
            <Value index="0">
              0
            </Value>
            <Value index="1">
              13816.01269
            </Value>
          </InformationKey>
        </DataArray>
        <DataArray type="Float64" Name="ALEdispl" NumberOfComponents="3" format="ascii" RangeMin="0" RangeMax="0.0035857940679333315">
          0 0 0 0 0 0
          0 0 0 0 0 0
          0.00012484349857239916 -0.000025564000095541137 0 0 0 0
          2.638982228965467e-7 -0.000493209010467838 0 -0.0007841661399443854 -0.00007665506803512451 0
          0 0 0 0 0 0
          0 0 0 0.00013588005697610367 0.00006283993537246259 0
          0.0004432814220195067 0.00009643780799495957 0 -0.0011716716264822589 0.00003217709328781266 0
          0 0 0 0 0 0
          0.00003729160091832668 0.00027982053895189387 0 0.0000721088244633709 0.0005238836543403318 0
          -0.00034959679755046033 0.0008333234319421391 0 0 0 0
          0 0 0 -0.0003613802787569583 0.000398663557474526 0
          -0.0003741449036552829 0.0007646590867054179 0 0.00016767187778112913 0.0006019941430715895 0
          0 0 0 0 0 0
          -0.0002494386154933199 0.000046255203773176396 0 -0.00032385142031992557 0.00011458580187317003 0
          -0.00008645810448157794 0.00009134298198566559 0 0.0005875534408463601 -0.0001207105472798355 0
          0.0015871669095748825 -0.00041215454634394336 0 0 0 0
          0 0 0 -0.0007688620133045408 -0.0002911710116565229 0
          -0.00024196717214538315 -0.00054949112833772 0 -0.000010070924292459194 -0.0007910914946949352 0
          0.0008013701480245408 -0.0007926714526788054 0 0.0016793569935434315 -0.00011420548616790287 0
          0 0 0 0 0 0
          0.00015973169773384963 -0.001630744714468142 0 0.0004987629127470436 -0.002530893901490706 0
          -0.00001816488244278707 -0.002767433246998577 0 -0.00039035431828269304 -0.0025918592576428035 0
          -0.00007131681798932347 -0.0016251101006350256 0 0 0 0
          0.0011381613245804649 -0.0027783025248918265 0 0.0011051496813392785 -0.003154160332064233 0
          0.0007252516909277774 -0.003424938576632099 0 -0.0001375249143560382 -0.003583155870954714 0
          -0.0008579922877643179 -0.003480218448742897 0 -0.0010958985016087696 -0.0030096739417543256 0
          -0.0011058319270331471 -0.002650034385273542 0 0.00041545809354932465 -0.0018170391021133337 0
          -0.0000246853974782417 -0.001812590559198815 0 -0.0004805778834320682 -0.0018130878881785972 0
          0 0 0 0.0012573736492000832 -0.00024725502034112564 0
          0.001321253635045331 -0.00018886811358914633 0 0.00072166839306733 -0.00007024837733535388 0
          0.00014253328272007887 0.00010751635964487373 0 -0.0001307693989999624 0.00011297640748085377 0
          -0.0006468033174080942 -0.00002748075687623811 0 -0.001536422143177037 -0.0003212087544644582 0
          -0.0016263176179517373 -0.00035375443423889936 0 0 0 0
          0 0 0 0.0012439643633667715 -0.00016584978467879818 0
          0.0011248114156829738 -0.0000748151804852266 0 0.00024520929524489074 0.00019808876489965785 0
          -0.00002036502188637783 -0.00003216495474100691 0 0.000020519344064475747 -0.000028658998723056024 0
          -0.00018555259645365368 -0.00004515805801036222 0 -0.0009597799393481909 -0.00018040566083824582 0
          -0.0013397390460921567 -0.0001779848832629453 0 0 0 0
          0 0 0 0.0011460295275336554 -0.00008061781767405103 0
          0.0008467826048787077 0.000050035457997792955 0 0.00048321024178800496 0.000031536479745011 0
          -0.0000012168328352875807 0.00000313139672154129 0 -0.0000010776021977771742 0.0000024098948676476983 0
          -0.000137375213309299 0.000016083959370139447 0 -0.0007703758917860063 0.00005325057238715965 0
          -0.0011424740947212602 -0.000015686765155404953 0 0 0 0
          0 0 0 0.001003945818832558 -0.000094153715340986 0
          0.0007016958598694407 -0.000028020122175885544 0 0.0003742355525279418 0.00003581332755611403 0
          7.522983953907874e-8 -7.423188423841705e-8 0 -1.4480039934099526e-7 -1.0190578426053141e-7 0
          -0.00014045148414850456 0.00002415737256062115 0 -0.0006745999483666852 0.0000794096578320341 0
          -0.0009370936062602986 0.000031980316908173574 0 0 0 0