<?xml version="1.0"?>
<VTKFile type="UnstructuredGrid" version="0.1" byte_order="LittleEndian" header_type="UInt32" compressor="vtkZLibDataCompressor">
  <UnstructuredGrid>
    <Piece NumberOfPoints="177" NumberOfCells="282">
      <PointData>
        <DataArray type="Float64" Name="ale_BC" NumberOfComponents="3" format="ascii" RangeMin="0" RangeMax="0">
          0 0 0 0 0 0
          0 0 0 0 0 0
          0 0 0 0 0 0
          0 0 0 0 0 0
          0 0 0 0 0 0
          0 0 0 0 0 0
          0 0 0 0 0 0
          0 0 0 0 0 0
          0 0 0 0 0 0
          0 0 0 0 0 0
          0 0 0 0 0 0
          0 0 0 0 0 0
          0 0 0 0 0 0
          0 0 0 0 0 0
          0 0 0 0 0 0
          0 0 0 0 0 0
          0 0 0 0 0 0
          0 0 0 0 0 0
          0 0 0 0 0 0
          0 0 0 0 0 0
          0 0 0 0 0 0
          0 0 0 0 0 0
          0 0 0 0 0 0
          0 0 0 0 0 0
          0 0 0 0 0 0
          0 0 0 0 0 0
          0 0 0 0 0 0
          0 0 0 0 0 0
          0 0 0 0 0 0
          0 0 0 0 0 0
          0 0 0 0 0 0
          0 0 0 0 0 0
          0 0 0 0 0 0
          0 0 0 0 0 0
          0 0 0 0 0 0
          0 0 0 0 0 0
          0 0 0 0 0 0
          0 0 0 0 0 0
          0 0 0 0 0 0
          0 0 0 0 0 0
          0 0 0 0 0 0
          0 0 0 0 0 0
          0 0 0 0 0 0
          0 0 0 0 0 0
          0 0 0 0 0 0
          0 0 0 0 0 0
          0 0 0 0 0 0
          0 0 0 0 0 0
          0 0 0 0 0 0
          0 0 0 0 0 0
          0 0 0 0 0 0
          0 0 0 0 0 0
          0 0 0 0 0 0
          0 0 0 0 0 0
          0 0 0 0 0 0
          0 0 0 0 0 0
          0 0 0 0 0 0
          0 0 0 0 0 0
          0 0 0 0 0 0
          0 0 0 0 0 0
          0 0 0 0 0 0
          0 0 0 0 0 0
          0 0 0 0 0 0
          0 0 0 0 0 0
          0 0 0 0 0 0
          0 0 0 0 0 0
          0 0 0 0 0 0
          0 0 0 0 0 0
          0 0 0 0 0 0
          0 0 0 0 0 0
          0 0 0 0 0 0
          0 0 0 0 0 0
          0 0 0 0 0 0
          0 0 0 0 0 0
          0 0 0 0 0 0
          0 0 0 0 0 0
          0 0 0 0 0 0
          0 0 0 0 0 0
          0 0 0 0 0 0
          0 0 0 0 0 0
          0 0 0 0 0 0
          0 0 0 0 0 0
          0 0 0 0 0 0
          0 0 0 0 0 0
          0 0 0 0 0 0
          0 0 0 0 0 0
          0 0 0 0 0 0
          0 0 0 0 0 0
          0 0 0
          <InformationKey name="L2_NORM_RANGE" location="vtkDataArray" length="2">
            <Value index="0">
              0
            </Value>
            <Value index="1">
              0
            </Value>
          </InformationKey>
        </DataArray>
        <DataArray type="Float64" Name="ale_FIXNO" NumberOfComponents="3" format="ascii" RangeMin="1.4142135623730951" RangeMax="5.656854249492381">
          1 1 0 1 1 0
          1 1 0 1 1 0
          -1 -1 0 1 1 0
          -1 -1 0 -1 -1 0
          1 1 0 1 1 0
          1 1 0 -1 -1 0
          -1 -1 0 -1 -1 0
          1 1 0 1 1 0
          -1 -1 0 -1 -1 0
          -1 -1 0 1 1 0
          1 1 0 -1 -1 0
          -1 -1 0 -1 -1 0
          1 1 0 1 1 0
          -1 -1 0 -1 -1 0
          -1 -1 0 -1 -1 0
          -1 -1 0 1 1 0
          1 1 0 -1 -1 0
          -1 -1 0 -1 -1 0
          -1 -1 0 -1 -1 0
          1 1 0 1 1 0
          -1 -1 0 -1 -1 0
          -1 -1 0 -1 -1 0
          -1 -1 0 1 1 0
          -1 -1 0 -1 -1 0
          -1 -1 0 -1 -1 0
          -1 -1 0 -1 -1 0
          -1 -1 0 4 4 0
          4 4 0 4 4 0
          1 1 0 -1 -1 0
          -1 -1 0 -1 -1 0
          4 4 0 4 4 0
          -1 -1 0 -1 -1 0
          -1 -1 0 1 1 0
          1 1 0 -1 -1 0
          -1 -1 0 -1 -1 0
          4 4 0 4 4 0
          -1 -1 0 -1 -1 0
          -1 -1 0 1 1 0
          1 1 0 -1 -1 0
          -1 -1 0 -1 -1 0
          4 4 0 4 4 0
          -1 -1 0 -1 -1 0
          -1 -1 0 1 1 0
          1 1 0 -1 -1 0
          -1 -1 0 -1 -1 0
          4 4 0 4 4 0
          -1 -1 0 -1 -1 0
          -1 -1 0 1 1 0
          1 1 0 -1 -1 0
          -1 -1 0 -1 -1 0
          4 4 0 -1 -1 0
          4 4 0 -1 -1 0
          -1 -1 0 -1 -1 0
          -1 -1 0 -1 -1 0
          -1 -1 0 -1 -1 0
          -1 -1 0 -1 -1 0
          -1 -1 0 -1 -1 0
          -1 -1 0 -1 -1 0
          -1 -1 0 4 4 0
          4 4 0 -1 -1 0
          -1 -1 0 -1 -1 0
          -1 -1 0 -1 -1 0
          -1 -1 0 1 1 0
          -1 -1 0 -1 -1 0
          4 4 0 -1 -1 0
          -1 -1 0 4 4 0
          -1 -1 0 -1 -1 0
          1 1 0 -1 -1 0
          -1 -1 0 4 4 0
          1 1 0 1 1 0
          4 4 0 -1 -1 0
          1 1 0 1 1 0
          -1 -1 0 1 1 0
          1 1 0 -1 -1 0
          1 1 0 1 1 0
          -1 -1 0 -1 -1 0
          1 1 0 1 1 0
          -1 -1 0 -1 -1 0
          1 1 0 1 1 0
          -1 -1 0 -1 -1 0
          1 1 0 1 1 0
          1 1 0 -1 -1 0
          1 1 0 -1 -1 0
          1 1 0 -1 -1 0
          -1 -1 0 -1 -1 0
          1 1 0 -1 -1 0
          1 1 0 1 1 0
          1 1 0 1 1 0
          1 1 0
          <InformationKey name="L2_NORM_RANGE" location="vtkDataArray" length="2">
            <Value index="0">
              1.4142135624
            </Value>
            <Value index="1">
              5.6568542495
            </Value>
          </InformationKey>
        </DataArray>
        <DataArray type="Float64" Name="nsi_BC" NumberOfComponents="3" format="ascii" RangeMin="0" RangeMax="1.5">
          0 0 0 1.5 0 0
          1.5 0 0 0 0 0
          1.5 0 0 1.5 0 0
          1.5 0 0 1.5 0 0
          0 0 0 0 0 0
          0 0 0 1.5 0 0
          1.5 0 0 1.5 0 0
          0 0 0 0 0 0
          1.5 0 0 1.5 0 0
          1.5 0 0 0 0 0
          0 0 0 1.5 0 0
          1.5 0 0 1.5 0 0
          0 0 0 0 0 0
          1.5 0 0 1.5 0 0
          1.5 0 0 1.5 0 0
          1.5 0 0 0 0 0
          0 0 0 1.5 0 0
          1.5 0 0 1.5 0 0
          1.5 0 0 1.5 0 0
          0 0 0 0 0 0
          1.5 0 0 1.5 0 0
          1.5 0 0 1.5 0 0
          1.5 0 0 0 0 0
          1.5 0 0 1.5 0 0
          1.5 0 0 1.5 0 0
          1.5 0 0 1.5 0 0
          1.5 0 0 0 0 0
          0 0 0 0 0 0
          0 0 0 1.5 0 0
          1.5 0 0 1.5 0 0
          0 0 0 0 0 0
          1.5 0 0 1.5 0 0
          1.5 0 0 0 0 0
          0 0 0 1.5 0 0
          1.5 0 0 1.5 0 0
          0 0 0 0 0 0
          1.5 0 0 1.5 0 0
          1.5 0 0 0 0 0
          0 0 0 1.5 0 0
          1.5 0 0 1.5 0 0
          0 0 0 0 0 0
          1.5 0 0 1.5 0 0
          1.5 0 0 0 0 0
          0 0 0 1.5 0 0
          1.5 0 0 1.5 0 0
          0 0 0 0 0 0
          1.5 0 0 1.5 0 0
          1.5 0 0 0 0 0
          0 0 0 1.5 0 0
          1.5 0 0 1.5 0 0
          0 0 0 1.5 0 0
          0 0 0 1.5 0 0
          1.5 0 0 1.5 0 0
          1.5 0 0 1.5 0 0
          1.5 0 0 1.5 0 0
          1.5 0 0 1.5 0 0
          1.5 0 0 1.5 0 0
          1.5 0 0 1.5 0 0
          1.5 0 0 0 0 0
          0 0 0 1.5 0 0
          1.5 0 0 1.5 0 0
          1.5 0 0 1.5 0 0
          1.5 0 0 0 0 0
          1.5 0 0 1.5 0 0
          0 0 0 1.5 0 0
          1.5 0 0 0 0 0
          1.5 0 0 1.5 0 0
          0 0 0 1.5 0 0
          1.5 0 0 0 0 0
          0 0 0 0 0 0
          0 0 0 1.5 0 0
          0 0 0 0 0 0
          1.5 0 0 0 0 0
          0 0 0 1.5 0 0
          0 0 0 0 0 0
          1.5 0 0 1.5 0 0
          0 0 0 0 0 0
          1.5 0 0 1.5 0 0
          0 0 0 0 0 0
          1.5 0 0 1.5 0 0
          0 0 0 0 0 0
          0 0 0 1.5 0 0
          0 0 0 1.5 0 0
          0 0 0 1.5 0 0
          1.5 0 0 1.5 0 0
          0 0 0 1.5 0 0
          0 0 0 1.339432 0 0
          1.498641 0 0 1.313156 0 0
          0 0 0
          <InformationKey name="L2_NORM_RANGE" location="vtkDataArray" length="2">
            <Value index="0">
              0
            </Value>
            <Value index="1">
              1.5
            </Value>
          </InformationKey>
        </DataArray>
        <DataArray type="Float64" Name="nsi_FIXNO" NumberOfComponents="3" format="ascii" RangeMin="0" RangeMax="1.4142135623730951">
          1 1 0 0 0 0
          0 0 0 1 1 0
          0 0 0 0 0 0
          0 0 0 0 0 0
          1 1 0 1 1 0
          1 1 0 0 0 0
          0 0 0 0 0 0
          1 1 0 1 1 0
          0 0 0 0 0 0
          0 0 0 1 1 0
          1 1 0 0 0 0
          0 0 0 0 0 0
          1 1 0 1 1 0
          0 0 0 0 0 0
          0 0 0 0 0 0
          0 0 0 1 1 0
          1 1 0 0 0 0
          0 0 0 0 0 0
          0 0 0 0 0 0
          1 1 0 1 1 0
          0 0 0 0 0 0
          0 0 0 0 0 0
          0 0 0 1 1 0
          0 0 0 0 0 0
          0 0 0 0 0 0
          0 0 0 0 0 0
          0 0 0 1 1 0
          1 1 0 1 1 0
          1 1 0 0 0 0
          0 0 0 0 0 0
          1 1 0 1 1 0
          0 0 0 0 0 0
          0 0 0 1 1 0
          1 1 0 0 0 0
          0 0 0 0 0 0
          1 1 0 1 1 0
          0 0 0 0 0 0
          0 0 0 1 1 0
          1 1 0 0 0 0
          0 0 0 0 0 0
          1 1 0 1 1 0
          0 0 0 0 0 0
          0 0 0 1 1 0
          1 1 0 0 0 0
          0 0 0 0 0 0
          1 1 0 1 1 0
          0 0 0 0 0 0
          0 0 0 1 1 0
          1 1 0 0 0 0
          0 0 0 0 0 0
          1 1 0 0 0 0
          1 1 0 0 0 0
          0 0 0 0 0 0
          0 0 0 0 0 0
          0 0 0 0 0 0
          0 0 0 0 0 0
          0 0 0 0 0 0
          0 0 0 0 0 0
          0 0 0 1 1 0
          1 1 0 0 0 0
          0 0 0 0 0 0
          0 0 0 0 0 0
          0 0 0 1 1 0
          0 0 0 0 0 0
          1 1 0 0 0 0
          0 0 0 1 1 0
          0 0 0 0 0 0
          1 1 0 0 0 0
          0 0 0 1 1 0
          1 1 0 1 1 0
          1 1 0 0 0 0
          1 1 0 1 1 0
          0 0 0 1 1 0
          1 1 0 0 0 0
          1 1 0 1 1 0
          0 0 0 0 0 0
          1 1 0 1 1 0
          0 0 0 0 0 0
          1 1 0 1 1 0
          0 0 0 0 0 0
          1 1 0 1 1 0
          1 1 0 0 0 0
          1 1 0 0 0 0
          1 1 0 0 0 0
          0 0 0 0 0 0
          1 1 0 0 0 0
          1 1 0 1 1 0
          1 1 0 1 1 0
          1 1 0
          <InformationKey name="L2_NORM_RANGE" location="vtkDataArray" length="2">
            <Value index="0">
              0
            </Value>
            <Value index="1">
              1.4142135624
            </Value>
          </InformationKey>
        </DataArray>
        <DataArray type="Float64" Name="Velocity" NumberOfComponents="3" format="ascii" RangeMin="0" RangeMax="2.7650479200633447">
          0 0 0 1.1642316731049502 0.1075139641516709 0
          1.2990810903285248 -0.021800049709897223 0 0 0 0
          1.392237382717807 0.02294235157451678 0 1.229520997913918 -0.03271892023504784 0
          1.4236611428251582 -0.004702107949178192 0 1.370475197338216 -0.011423666540981606 0
          0 0 0 0 0 0
          0 0 0 1.3407634032832072 0.011401465960975521 0
          1.3962803027008979 0.0004961392113645414 0 1.34208534604665 -0.0034832940301506234 0
          0 0 0 0 0 0
          1.3267194657729913 0.0030081935019106733 0 1.3865500031351194 -0.0002672673049915309 0
          1.3327807102006475 0.00904848177331763 0 0 0 0
          0 0 0 1.2657243687410635 -0.019246854500094536 0
          1.3368524558632109 0.007453351318183036 0 1.304978743030559 0.020827019250448657 0
          0 0 0 0 0 0
          1.1642309249589107 0.030166717716002767 0 1.2690521975057691 0.000009256437407062475 0
          1.252521387531717 -0.014135305295297733 0 1.2679594842243775 0.005671231535365463 0
          1.1545017795093027 0.001260896410932559 0 0 0 0
          0 0 0 1.1968349029216578 0.016118596703236076 0
          1.2492246802461335 0.0003980784792967248 0 1.2502175620706406 -0.007776440967226001 0
          1.2816512257683892 -0.010393632687274964 0 1.142187681771328 0.011092532154225452 0
          0 0 0 0 0 0
          1.188350412751952 -0.010614098025709598 0 1.2795493374445135 -0.0010421804899884567 0
          1.2228650557204823 -0.022752338004269266 0 1.2754781187783817 0.03421550982280415 0
          1.2225450007151841 0.013400362856049723 0 0 0 0
          1.336101119768972 -0.07289046524044118 0 1.4222879343306654 -0.13758219001140587 0
          1.249600102995594 -0.16912284080293133 0 1.1628583298080415 0.20726282897436715 0
          1.4008517964340843 0.1528167351625336 0 1.425013847211816 0.14708762330358616 0
          1.2681332951287307 0.06283428692586329 0 0.03238866372793591 -0.25209570805687737 0
          -0.006608125842938916 -0.2759258616330219 0 -0.06618271721533392 -0.28579885245706 0
          0 0 0 1.4036499650628123 -0.04028198405864277 0
          1.4620261750328445 -0.06876943670678598 0 1.414053477778581 -0.07680425648216892 0
          0.029453566149109274 0.01852330088220869 0 -0.02840380669704131 0.017081445601399264 0
          1.426565550804158 0.030026797639886048 0 1.4680943141999792 0.05235409738393563 0
          1.388662033033828 0.037549613852381744 0 0 0 0
          0 0 0 1.4041770916957508 -0.040027256492503126 0
          1.45886080498278 -0.020963240767346285 0 1.4320865969743908 -0.0036885785006374786 0
          -0.005392030903262999 -0.010582893722880675 0 0.0035102072365253843 -0.009559589940017543 0
          1.3858137314348964 -0.0013389033410598195 0 1.4819258081265496 0.00021136493002528174 0
          1.4137469109585807 0.02940009120078025 0 0 0 0
          0 0 0 1.4258624480594222 -0.03933100818945991 0
          1.473311956486441 -0.02383957824868482 0 1.3539742995493127 0.009343826330554566 0
          -0.00036614465824868586 0.00045908013925837935 0 0.000026833497753632394 0.0003294695680943143 0
          1.3490832462089168 0.002937545883319604 0 1.4606478625104033 -0.006224017869130688 0
          1.4216155293186301 0.04415132353596954 0 0 0 0
          0 0 0 1.4307344453186466 -0.05356679297299424 0
          1.414402851506327 -0.07386631934341374 0 1.3393155326411479 -0.006848471166018023 0
          0.00002390491979122073 0.000006249481765234586 0 -0.00002918575739500562 0.0000039228438354706605 0
          1.29861170307604 0.013162701089933499 0 1.437802680947502 0.04194360350423669 0
          1.4273814495826576 0.07396137437307185 0 0 0 0
          0 0 0 1.522263036805774 -0.11434625807544337 0
          1.373879959797463 -0.15257723495483524 0 1.1980134340757793 -0.02229452962574725 0
          -0.0000017595131523648382 -0.0000010886778387470347 0 1.3185984668290782 -0.14312750693933793 0
          0.00000165235580754058 -0.0000011372789722228875 0 1.1405883276999427 0.026612548215330913 0
          1.30585123577226 -0.1845504511500205 0 1.2514142816596279 -0.11644997921724011 0
          1.253829054437028 -0.1561499130257836 0 1.4282932947324551 0.158448773504755 0
          1.2211339828414383 -0.10720278725097229 0 1.2596087952076256 -0.15650641572270677 0
          1.2709998269355791 0.18754610478776143 0 1.2988187426574436 -0.19156590856873135 0
          1.52574310377399 0.08789684017092468 0 1.339027521329578 -0.21883796582769124 0
          1.3535392390132963 0.25119783106894766 0 1.08432969059321 -0.3257964932509997 0
          0.8460519503897231 -0.08340074544045455 0 3.2664024514257953e-7 -3.967567942283483e-7 0
          -3.4326743376700076e-7 -4.0240670549042056e-7 0 1.2967060595461832 0.22022833247929297 0
          1.3472329605781301 -0.545417408635352 0 0.8946701023470067 -0.026469138288829734 0
          1.0302543266045676 0.2113509762572168 0 1.3786914836873732 0.33172973293745606 0
          1.3908270600760886 0.34521875526073853 0 0 0 0
          1.3219198379183268 0.404273568804393 0 1.3768565301006115 0.5450378122084596 0
          -1.0739951760988423e-7 1.1300560694541409e-7 0 0.2903913207209843 0.03865505561403377 0
          0.6211345522763385 0.43100431841991044 0 9.394451644656578e-8 1.0142747821496535e-7 0
          0.13875941657224486 -0.10555748107547142 0 0.2802435765816813 -0.4372534906077152 0
          0 0 0 1.4882336901584643 -0.7434520606425711 0
          1.5045664215832009 0.7531400170404768 0 8.510281354960985e-23 7.961942401696277e-23 0
          0 0 0 0 0 0
          1.8097588803618684e-22 -1.9042255053976536e-22 0 1.36183879196804 0.6181370353515124 0
          0 0 0 0 0 0
          1.8575099091310643 -0.09454662342039573 0 0 0 0
          0 0 0 2.692933524063883 -0.34394594952968316 0
          0 0 0 0 0 0
          1.8857081234137603 0.07825073556869973 0 2.7568992127211356 0.212124329449052 0
          0 0 0 0 0 0
          1.9142900869030512 0.058206481078287416 0 2.1771546423545938 0.9203082654602898 0
          0 0 0 0 0 0
          2.0973145832495894 -0.9919260243630155 0 1.9210145645169612 -0.12217051890609093 0
          0 0 0 0 0 0
          0 0 0 0.925888412408691 0.9728112683557308 0
          0 0 0 0.9430033645527625 -0.9582112457242067 0
          0 0 0 1.4906910560553401 0.24771582948268875 0
          0.641662558272213 -0.020124901314419054 0 1.5095467155831825 -0.38609336803602506 0
          0 0 0 1.2750258958278906 0.05520196768837924 0
          0 0 0 1.339432 0 0
          1.498641 0 0 1.313156 0 0
          0 0 0
          <InformationKey name="L2_NORM_RANGE" location="vtkDataArray" length="2">
            <Value index="0">
              0
            </Value>
            <Value index="1">
              2.7650479201
            </Value>
          </InformationKey>
        </DataArray>
        <DataArray type="Float64" Name="Pressure" format="ascii" RangeMin="-16747.527843611097" RangeMax="557.1708436706749">
          353.989732397858 455.1037150093043 557.1708436706749 -1271.529947212871 -1174.9372899970792 542.063396243149
          -1132.1812374427689 -1163.418066906222 426.2109455360203 -1204.9974335381614 -3622.737434039774 -3643.463808506218
          -3694.953677908456 -3708.8089933296274 -3703.7528800907135 -5429.871023360347 -5494.380262106157 -5540.142878758806
          -5542.305611532228 -5512.859585794136 -7022.984462278893 -7158.604763581056 -7191.035247188192 -7118.992894330506
          -7069.399985425828 -9221.004308311474 -9183.906056456031 -9164.367117201173 -9237.08461137732 -9238.662873930285
          -9223.976838059034 -9241.41109659056 -11773.683982152623 -11752.755246301756 -11691.802222833265 -11646.591273809496
          -11620.200044330115 -11679.916599838334 -11691.26466136177 -13981.352167492998 -14004.505702444256 -13808.385085696604
          -13659.68951067101 -13645.684222072543 -13750.775575273285 -13746.737974738886 -14505.84539157392 -14547.909799970259
          -14526.934388732245 -14485.810769821423 -14100.941149537315 -14152.235459627616 -14074.635869659016 -14623.044108932276
          -14291.719254245714 -13890.098168516924 -14848.420763365546 -14879.786853876863 -14905.54871942048 -14920.574724892418
          -14895.600889723999 -13636.168749730577 -13669.699278112388 -13954.597885016448 -14134.02028807907 -14327.006387550244
          -14874.495077658185 -14871.45478313748 -14823.644339469929 -14822.116788066218 -14867.947506938612 -13755.398250466695
          -13781.942418479972 -13949.9114907929 -14096.19146602749 -14316.598075751006 -14799.654050607092 -14771.30444845415
          -14742.82250842426 -14759.317191111786 -14775.714978009371 -13980.793753907674 -13995.059064328576 -14050.1762036722
          -14134.719493846518 -14313.035564210282 -14638.887586932802 -14593.089526016585 -14595.03675385092 -14646.761595764838
          -14643.722908028318 -14111.03804061339 -14125.619806908215 -14096.759831592248 -14143.026595357558 -14296.53688860519
          -14508.725993990969 -14509.514098999538 -14527.658625058735 -14543.129951981226 -14498.499062737952 -14538.499981389185
          -14186.17851340552 -14188.883981421015 -14454.93582402165 -14528.146521523446 -14474.828160105937 -14168.581163853529
          -14519.408917921402 -14641.48782044875 -14221.518481905348 -14669.209561976908 -14245.48491550247 -14619.968093613123
          -14168.48175425952 -14303.334136184063 -14330.139198817162 -14309.905785740339 -13968.440989369412 -14209.936251274507
          -14599.772547071832 -13978.40882467861 -14100.129442625474 -14155.44587505429 -14162.366313412907 -14231.885166650522
          -14195.74265221219 -14213.141361202537 -14075.56272604839 -14127.420115255107 -14312.712817839018 -14614.655023249075
          -14669.152864498295 -14784.601679786627 -14359.796353779298 -14983.254860013056 -14432.03407009003 -15522.534073614082
          -15638.224292219971 -15834.096480670923 -14913.940484761926 -14755.042901321109 -15018.868193092434 -15235.299460890174
          -14690.961635964411 -16101.049720223527 -15913.237652240743 -16389.62907982086 -14190.273758034336 -16184.411770961195
          -14501.368341338068 -16747.527843611097 -16401.89125235385 -14170.417186968029 -14459.58802053692 -14807.062330662238
          -15250.139260279071 -15092.495484287241 -14783.179182148773 -14330.653239361605 -14147.09428069738 -12733.593525207834
          -12768.3388182822 -12169.18513296637 -11606.311522331072 -12458.556451292032 -13741.013954833978 -13063.192252037665
          -11706.005929891508 -13009.2648081712 -13930.31577851784 -12207.26762405103 -13644.512718311931 -13210.825517405023
          -12709.491266188556 -12961.384203605816 -13476.404867355575
        </DataArray>
        <DataArray type="Float64" Name="BTraction" NumberOfComponents="3" format="ascii" RangeMin="0" RangeMax="15941.417801878126">
          -126.199648031189 127.89200560931344 0 -456.5130538094637 -5.844174785349653 0
          -538.8701929926464 -0.18270110294605565 0 -12.694420278850302 1474.1876244669738 0
          0 0 0 -525.8692082308459 6.461055637188329 0
          0 0 0 0 0 0
          -142.9146083331362 -79.58194876988713 0 -13.13422848709025 -1443.126974496287 0
          -12.398832588136221 3461.209636595525 0 0 0 0
          0 0 0 0 0 0
          -13.574466721859276 -3510.150656004549 0 -12.036079893328376 5370.349372003415 0
          0 0 0 0 0 0
          0 0 0 -13.265934327461268 -5443.971760676982 0
          -14.768056964294873 7126.696635871469 0 0 0 0
          0 0 0 0 0 0
          -15.2620235466234 -7178.698191771186 0 -17.97822301846427 9256.524285823663 0
          0 0 0 0 0 0
          0 0 0 0 0 0
          0 0 0 -17.335998245050206 -9268.676117309222 0
          -16.518139846868095 11711.979201193386 0 0 0 0
          0 0 0 0 0 0
          0 0 0 0 0 0
          -17.116633830891026 -11614.022373844644 0 -13.392146815744209 13728.887050024032 0
          0 0 0 0 0 0
          0 0 0 0 0 0
          0 0 0 -14.4279453133286 -13479.577454031874 0
          0 0 0 0 0 0
          0 0 0 0 0 0
          0 0 0 0 0 0
          0 0 0 -2549.106260200686 -12471.776431664373 0
          -14307.583201828293 584.4908017585973 0 -1866.2088262983527 11808.337054468537 0
          -11.992845658899371 14633.05790827809 0 0 0 0
          0 0 0 0 0 0
          -269.553360880829 -14841.002553682583 0 65.13224700440529 13691.304770458242 0
          0 0 0 0 0 0
          0 0 0 -11.943982560004011 -14181.43130972342 0
          -12.751312621240528 14858.585985737904 0 0 0 0
          0 0 0 0 0 0
          -74.40099376438933 -14858.661210127642 0 -111.14220245939369 13770.057418577473 0
          0 0 0 0 0 0
          0 0 0 -12.798423331016627 -14318.430652511795 0
          -12.878139952367961 14787.591718755046 0 0 0 0
          0 0 0 0 0 0
          -89.51291264680312 -14770.42389333154 0 -92.07235432475979 13962.348779965972 0
          0 0 0 0 0 0
          0 0 0 -12.983048464072521 -14311.63545667397 0
          -13.27911690886538 14649.573232418305 0 0 0 0
          0 0 0 0 0 0
          -83.14476308215671 -14644.159207306171 0 -91.32263663138627 14097.503545638747 0
          0 0 0 0 0 0
          0 0 0 -13.077117259525123 -14291.032932261833 0
          -13.727469260896937 14504.413188065388 0 0 0 0
          0 0 0 0 0 0
          -78.60404510163862 -14512.400939870337 0 0 0 0
          -81.15303699206831 14147.327903534484 0 0 0 0
          0 0 0 0 0 0
          0 0 0 0 0 0
          0 0 0 0 0 0
          0 0 0 0 0 0
          0 0 0 0 0 0
          0 0 0 0 0 0
          0 0 0 -43.239303625837756 -14377.875401813762 0
          -48.94036836205092 14015.685145902273 0 0 0 0
          0 0 0 0 0 0
          0 0 0 0 0 0
          0 0 0 -13.63639931768818 -14235.904451989089 0
          0 0 0 0 0 0
          -23.132577312455087 14165.01371473853 0 0 0 0
          0 0 0 -11.577708948598985 -14645.107877183915 0
          0 0 0 0 0 0
          -15.245327413015215 14354.939107431735 0 0 0 0
          0 0 0 -3281.9980691777487 -12732.208739312893 0
          -14994.04314300546 -4457.601342156175 0 -13580.790570122637 -8207.731257622443 0
          -2486.119151772529 12733.163796759898 0 0 0 0
          -14477.778310935719 4077.7084063329903 0 -13192.115976216894 7911.9144009362835 0
          0 0 0 -10964.274906796521 -11351.482011782997 0
          -10770.461109746622 11212.909243719478 0 0 0 0
          -15.781464168642227 -14191.54893706068 0 -6045.562518774913 -14599.111962081872 0
          0 0 0 0 0 0
          -6131.351782838755 14715.139375796509 0 -17.054705411417835 14120.302309491799 0
          0 0 0 0 0 0
          2770.707081315308 -14023.311856469014 0 3122.6862211748153 13878.750808617955 0
          0 0 0 0 0 0
          -17.67937544071495 -14113.04682634356 0 8217.17466820719 -8635.543604244438 0
          8146.779506801658 8740.66597179345 0 0 0 0
          10957.522516496836 -133.29453530325966 0 0 0 0
          -13.011448397602134 13765.628021449173 0 0 0 0
          0 0 0 0 0 0
          -12.548467910876992 -13852.893769937307 0 0 0 0
          -6908.994617421285 6686.031339525316 0 -13249.587449629242 5.217883832993579 0
          -12836.137433096701 -1.4450301473285747 0 -13046.422475414525 -7.726260800530956 0
          -6619.889938181391 -6857.138680346595 0
          <InformationKey name="L2_NORM_RANGE" location="vtkDataArray" length="2">
            <Value index="0">
              0
            </Value>
            <Value index="1">
              15941.417802
            </Value>
          </InformationKey>
        </DataArray>
        <DataArray type="Float64" Name="ALEdispl" NumberOfComponents="3" format="ascii" RangeMin="0" RangeMax="0.0030821926783076207">
          0 0 0 0 0 0
          0 0 0 0 0 0
          0.000060300579915773695 -0.00006944601742267371 0 0 0 0
          0.00029899968980317876 -0.00021895065170354856 0 0.0000713671016438498 -0.00012829339660204084 0
          0 0 0 0 0 0
          0 0 0 0.00005237253203927508 0.000002140605091564017 0
          0.00042736989879157137 -0.00004492494308198723 0 -0.00009955731760688567 -0.00004089624006013756 0
          0 0 0 0 0 0
          0.000019949414954839697 0.0002113130744648716 0 0.000057223304331878204 0.0004147630147096232 0
          -0.0002961722032619652 0.0006790502588362573 0 0 0 0
          0 0 0 -0.0003005914756130232 0.00034418388186487287 0
          -0.0002972675832728276 0.000634104088726471 0 0.00016177325682302458 0.0004913424756459876 0
          0 0 0 0 0 0
          -0.00020976892876154165 0.00003791748015363617 0 -0.0002638811225032993 0.00009384797692415703 0
          -0.000057358644214909115 0.0000724073958476249 0 0.0005217619414795793 -0.00010682451541014495 0
          0.001351292975821054 -0.00034909684464668936 0 0 0 0
          0 0 0 -0.0006448939531247417 -0.0002537767386650827 0
          -0.00018205893486899626 -0.0004899957870057424 0 -9.476757042365595e-7 -0.0007072205009519102 0
          0.0007181573262293521 -0.0006994931856820797 0 0.0014492325728120265 -0.0000967940149212142 0
          0 0 0 0 0 0
          0.00018829838875069772 -0.0014094332989784554 0 0.0005083540685385098 -0.002193590295665601 0
          0.00002120756931049128 -0.002413218632968011 0 -0.0003598807429792772 -0.002263188050470097 0
          -0.0000790754837032177 -0.0014133546330642854 0 0 0 0
          0.0010475629576337914 -0.0024050746263839387 0 0.001026100516926493 -0.002729388113718486 0
          0.0007046453855268948 -0.002951869443251851 0 -0.00007081007126591253 -0.0030813791782285447 0
          -0.0007578818739558765 -0.002949863743682863 0 -0.0009685879794139936 -0.0025552545911685836 0
          -0.000974551589434864 -0.0022495069433338295 0 0.00040796867698167697 -0.0015424189885419922 0
          -0.0000032126386766390017 -0.0015203287752422092 0 -0.0004281461289618707 -0.0015177787486733189 0
          0 0 0 0.0011306240512127315 -0.00019547719955689797 0
          0.0011775786308151953 -0.00013876889149964686 0 0.0006163856142650755 -0.00003046914848161557 0
          0.0000842694790815493 0.00012065103819745873 0 -0.00007659677137909303 0.00012087306457345537 0
          -0.0005353203074669892 0.000005098008784295043 0 -0.0013247613872791211 -0.0002610237457671011 0
          -0.0014085238356780537 -0.0002913919112790753 0 0 0 0
          0 0 0 0.0011076066954969364 -0.00010005997560717432 0
          0.0009866122557769781 0.000008411087364751843 0 0.0002133635573505081 0.0002651755979611632 0
          -0.000008261592900656129 -0.000020785419412718828 0 0.0000016948357837013108 -0.000020725209384600498 0
          -0.00017100684179800822 -0.000034270603010987195 0 -0.0008290699809479691 -0.000141681224552081 0
          -0.001155657808704601 -0.0001420238202508675 0 0 0 0
          0 0 0 0.0009978455512229317 -0.00004323533757324938 0
          0.0007429097357431114 0.00007145877770923985 0 0.00048109673763731443 0.000020018389768486055 0
          -7.054807272788903e-7 6.066622436813733e-7 0 1.8264733028263402e-7 4.0412079554098064e-7 0
          -0.00011442945465550812 0.000010397659669263025 0 -0.000661344318247189 0.000039399397937476455 0
          -0.0009825426072441281 -0.000013860046696735176 0 0 0 0
          0 0 0 0.0008688354619841605 -0.00007771189374002626 0
          0.0006198089535507309 -0.000023437095871961943 0 0.000358963336494455 0.000028919836913380898 0
          3.634584555202763e-8 1.6266623009867208e-8 0 -4.3933703009265054e-8 1.2885128096807196e-8 0
          -0.00011678300440742183 0.000019708539971807612 0 -0.0005767909190364863 0.00006485801411416224 0
          -0.0008064856266134715 0.000025231455088877088 0 0 0 0