<?xml version="1.0"?>
<VTKFile type="UnstructuredGrid" version="0.1" byte_order="LittleEndian" header_type="UInt32" compressor="vtkZLibDataCompressor">
  <UnstructuredGrid>
    <Piece NumberOfPoints="13" NumberOfCells="11">
      <PointData>
        <DataArray type="Float64" Name="Disp" NumberOfComponents="3" format="ascii" RangeMin="0" RangeMax="0.054814556107871976">
          0 0 0 0 0 0
          0.000326417189665814 -0.001044986506957134 0 -0.0006783455996123011 -0.0009664744560046753 0
          0.0013027388283652424 -0.004690879886269322 0 -0.0014786605818295515 -0.004574052733550826 0
          0.0022570552995255467 -0.01247834103046534 0 -0.002646499851466783 -0.012547106422424998 0
          0.0030868265515558617 -0.023925634586249293 0 -0.0033809740423073743 -0.023961826735046533 0
          0.0037250599867671313 -0.03830846813976653 0 -0.004031938596939574 -0.038381569007335505 0
          0.004039049436781328 -0.054665543452437036 0
          <InformationKey name="L2_NORM_RANGE" location="vtkDataArray" length="2">
            <Value index="0">
              0
            </Value>
            <Value index="1">
              0.054814556108
            </Value>
          </InformationKey>
        </DataArray>
        <DataArray type="Float64" Name="Nodal Stress" NumberOfComponents="6" format="ascii" RangeMin="20796.7639088782" RangeMax="1383676.0078582873">
          -1211126.1842036396 -180024.08312822893 0 -644456.352403186 0 0
          -81730.71426619578 103869.38535020707 0 -3283.4254887986326 0 0
          100144.54534634201 24458.922749216512 0 24013.737306875086 0 0
          -46528.18573834037 -19725.608258749904 0 21931.246011002415 0 0
          -8736.955826779691 -37942.60809314238 0 -27937.092013256886 0 0
          -62518.8263902225 -15889.306350356548 0 16561.41437291022 0 0
          53103.47201930945 6537.260067679336 0 -13942.399217938571 0 0
          -35282.61423389537 8869.157599563841 0 9921.091646576702 0 0
          41073.36016968664 9198.960598529999 0 -16428.74218691893 0 0
          -26172.42666675167 10344.83841190443 0 8463.52575895763 0 0
          35330.80090622384 14785.2251389965 0 -14312.401726976119 0 0
          -11703.792791264952 16921.935481731558 0 3028.980510480065 0 0
          25580.241104058066 19362.56137942498 0 -10980.837538215226 0 0
          <InformationKey name="L2_NORM_RANGE" location="vtkDataArray" length="2">
            <Value index="0">
              20796.763909
            </Value>
            <Value index="1">
              1383676.0079
            </Value>
          </InformationKey>
        </DataArray>
        <DataArray type="Float64" Name="Nodal Strain" NumberOfComponents="6" format="ascii" RangeMin="0.001701254346705406" RangeMax="0.11001992738860546">
          -0.08007958161710894 0.03039564349811363 0 -0.06904889490034136 0 0
          -0.009547529067235666 0.010338195891664638 0 -0.0003517955880855676 0 0
          0.0062796488551238394 -0.0018295249945681777 0 0.002572900425736615 0 0
          -0.0026189558292118147 0.0002527489007443048 0 0.002349776358321687 0 0
          0.0007310248728422495 -0.00239815215569661 0 -0.0029932598585632377 0 0
          -0.003898155229646017 0.0010978647746253355 0 0.0017744372542403807 0 0
          0.0035596315703906984 -0.001429605424426813 0 -0.0014938284876362755 0 0
          -0.002836942359548378 0.0018936046226079657 0 0.0010629741049903605 0 0
          0.002605277133601546 -0.0008098371061652369 0 -0.0017602223771698853 0 0
          -0.002238917562335992 0.001673646553234305 0 0.000906806331316889 0 0
          0.0019955848811946853 -0.00020572680815110115 0 -0.0015334716136045845 0 0
          -0.001440340038009338 0.0016267022769545741 0 0.000324533626122864 0 0
          0.001135640029596113 0.0004694600590997108 0 -0.0011765183076659171 0 0
          <InformationKey name="L2_NORM_RANGE" location="vtkDataArray" length="2">
            <Value index="0">
              0.0017012543467
            </Value>
            <Value index="1">
              0.11001992739
            </Value>
          </InformationKey>
        </DataArray>
        <DataArray type="Float64" Name="Sld_traction" NumberOfComponents="3" format="ascii" RangeMin="18161.529140687886" RangeMax="153417.87869243312">
          -15958.112950519617 79794.17482769824 0 152648.99996723715 -15340.41431932528 0
          -104594.66085461705 -54568.465716006904 0 -13979.63753774374 11593.570418182717 0
          -29517.400975689296 -22068.294280814065 0 -50996.465209682035 18235.740038798245 0
          -51607.19871428082 5088.353203505818 0 -38486.760882544324 -6140.540684364151 0
          -40076.72106693871 10539.359320857333 0 -30869.422493840386 -10001.395803493542 0
          -34584.38102203713 15628.273097226464 0 -19227.25871813966 -15856.713116333247 0
          -21928.728490875856 19379.629324012276 0
          <InformationKey name="L2_NORM_RANGE" location="vtkDataArray" length="2">
            <Value index="0">
              18161.529141
            </Value>
            <Value index="1">
              153417.87869
            </Value>
          </InformationKey>
        </DataArray>
        <DataArray type="Float64" Name="Velocity" NumberOfComponents="3" format="ascii" RangeMin="0" RangeMax="12.030154472692418">
          0 0 0 0 0 0
          0.11929686786090785 -0.2512687636640031 0 -0.19994832688481617 -0.20313300710585283 0
          0.5764776966846963 -1.637966655524752 0 -0.5448217739250804 -1.6258663168244956 0
          0.8233057435987475 -4.656538988453529 0 -0.8670301779296864 -4.744103731605949 0
          0.7327664106954448 -7.997385125438665 0 -0.7807019930021786 -8.02953975347604 0
          0.4947829686008991 -10.662792992476245 0 -0.5603769494732185 -10.710747388794546 0
          0.0642399699823416 -12.029982953566394 0
          <InformationKey name="L2_NORM_RANGE" location="vtkDataArray" length="2">
            <Value index="0">
              0
            </Value>
            <Value index="1">
              12.030154473
            </Value>
          </InformationKey>
        </DataArray>
        <DataArray type="Float64" Name="Acceleration" NumberOfComponents="3" format="ascii" RangeMin="0" RangeMax="2115.0819593627994">
          0 0 0 0 0 0
          108.12158688528916 -451.5021850798397 0 -197.6939389241852 -493.85981908090776 0
          4.884059037658744 -1012.9350151885114 0 -112.50210799455772 -1036.4850015571237 0
          -95.57288909567046 -986.1351003411091 0 -89.52073378314935 -933.1220508148535 0
          111.75691789484569 -1361.2914552998136 0 -312.42424878938056 -1433.7126964589515 0
          -272.081964879093 -1968.1561408037533 0 166.85328856215585 -2108.4903781895646 0
          -1203.5745480172993 978.9731728122943 0
          <InformationKey name="L2_NORM_RANGE" location="vtkDataArray" length="2">
            <Value index="0">
              0
            </Value>
            <Value index="1">
              2115.0819594
            </Value>
          </InformationKey>
        </DataArray>
        <DataArray type="Float64" Name="Sigma" NumberOfComponents="6" format="ascii" RangeMin="54745.87052152719" RangeMax="3392076.975745219">
          -2957151.607369137 -593765.9781188876 0 -1552057.5194378204 0 0
          280450.3504341498 313550.4122984143 0 270817.03992971644 0 0
          681429.7588558809 45966.84279276067 0 255472.58933318 0 0
          -378544.5038005683 -118603.75145041224 0 -68423.22285779429 0 0
          -38791.00244441332 -83708.23491028813 0 -97400.80302260254 0 0
          -104028.34999677687 -14381.699148902037 0 86753.6767279233 0 0
          168086.295425561 23409.972691516195 0 -42973.78309690546 0 0
          -115614.92635630009 25305.76708452554 0 27387.307204193196 0 0
          109355.22374689933 2401.160620080719 0 -40347.25687546052 0 0
          -79381.7603571503 18529.461873258522 0 34617.6597505699 0 0
          93042.12927555291 19286.204574160867 0 -36097.51580288472 0 0
          -42132.957814647874 29106.171962368102 0 19358.58875656949 0 0
          61358.43827604834 26000.43638964157 0 -22768.96604522336 0 0
          <InformationKey name="L2_NORM_RANGE" location="vtkDataArray" length="2">
            <Value index="0">
              54745.870522
            </Value>
            <Value index="1">
              3392076.9757
            </Value>
          </InformationKey>
        </DataArray>
        <DataArray type="Float64" Name="Press" format="ascii" RangeMin="-17271.64000908924" RangeMax="28131.256918443836">
          28131.256918443836 23928.467936990128 27727.38685980657 17889.575205760473 27155.24320442129 10198.10138300853
          -3302.0012055003926 -17271.64000908924 4250.064362757764 -9639.12830292532 -2762.9200663865913 -12693.258498175963
          -4975.160820218373
        </DataArray>
        <DataArray type="Float64" Name="Dev strain" NumberOfComponents="6" format="ascii" RangeMin="0.0019511943683890344" RangeMax="0.11046260862998288">
          -0.0810431384799097 0.029432086635312875 0 -0.06904889490034136 0 0
          -0.010427839235056103 0.0094578857238442 0 -0.0003517955880855676 0 0
          0.005371056868316679 -0.0027381169813753374 0 0.002572900425736615 0 0
          -0.0033666620217207956 -0.000494957291764675 0 0.002349776358321687 0 0
          0.000006226664335190283 -0.0031229503642036687 0 -0.0029932598585632377 0 0
          -0.004224086859088172 0.0007719331451831802 0 0.0017744372542403807 0 0
          0.0035672320969323203 -0.001422004897885192 0 -0.0014938284876362755 0 0
          -0.002535827059965231 0.0021947199221911133 0 0.0010629741049903605 0 0
          0.0027076166327663362 -0.0007074976070004466 0 -0.0017602223771698853 0 0
          -0.0019864610750381507 0.001926103040532146 0 0.000906806331316889 0 0
          0.0021800116385101097 -0.0000213000508356764 0 -0.0015334716136045845 0 0
          -0.001110699302078394 0.0019563430128855183 0 0.000324533626122864 0 0
          0.0013821529620076317 0.0007159729915112297 0 -0.0011765183076659171 0 0
          <InformationKey name="L2_NORM_RANGE" location="vtkDataArray" length="2">
            <Value index="0">
              0.0019511943684
            </Value>
            <Value index="1">
              0.11046260863
            </Value>
          </InformationKey>
        </DataArray>
        <DataArray type="Float64" Name="J2 Stresses" format="ascii" RangeMin="1404866429.918415" RangeMax="5150872468779.546">
          5150872468779.546 106818597334.6449 249546294420.50906 79851829964.42665 6627634338.581184 7395915543.183974
          14862201274.06822 7191112671.028687 6389140550.8725195 3621998009.0078473 4840155415.287421 1404866429.918415
          2350046773.75585
        </DataArray>
      </PointData>
      <CellData>
        <DataArray type="UInt8" Name="vtkGhostType" format="ascii" RangeMin="0" RangeMax="0">
          0 0 0 0 0 0
          0 0 0 0 0
        </DataArray>
        <DataArray type="Float64" Name="Gauss Stress" NumberOfComponents="6" format="ascii" RangeMin="23425.1225077393" RangeMax="726111.3006425172">
          217627.01183067315 103486.31121443993 0 152622.1354683673 0 0
          -638494.7954546217 -51487.20377082401 0 -341922.6300583079 0 0
          -155373.64548285608 -53816.92190547069 0 -26356.783050824488 0 0
          112288.81929362923 -27857.64609931712 0 29882.854484261035 0 0
          -20644.173586365698 7986.1669318528675 0 23722.40027840368 0 0
          19772.76212210009 -13542.872661914838 0 -17873.63646386157 0 0
          -36100.722305269286 7858.5618762026625 0 7219.236693100858 0 0
          48501.005321442804 11597.774514763529 0 -18644.577589390938 0 0
          -17855.965254577713 13942.177180766535 0 5959.577568084892 0 0
          38287.86955291595 10688.28102031532 0 -13942.37097592512 0 0
          30612.090117390824 17987.157847129874 0 -13169.297697179532 0 0
          <InformationKey name="L2_NORM_RANGE" location="vtkDataArray" length="2">
            <Value index="0">
              23425.122508
            </Value>
            <Value index="1">
              726111.30064
            </Value>
          </InformationKey>
        </DataArray>
        <DataArray type="Float64" Name="Gauss Strain" NumberOfComponents="6" format="ascii" RangeMin="0.002100494106296587" RangeMax="0.060195662592769726">
          0.0118488468731038 -0.0003805139072069032 0 0.016352371657325067 0 0
          -0.04376794239780069 0.019125728139749058 0 -0.03663456750624727 0 0
          -0.009176084609294338 0.0017049929168540944 0 -0.0028239410411597674 0 0
          0.009015545881663412 -0.006000146839009409 0 0.003201734409027966 0 0
          -0.0017598040751637244 0.0013077324089311227 0 0.00254168574411468 0 0
          0.0018960141752183942 -0.001673518123068921 0 -0.0019150324782708826 0 0
          -0.0028592859459550444 0.0018506373592026646 0 0.0007734896456893779 0 0
          0.0030501512902900737 -0.0009037662961398473 0 -0.001997633313149029 0 0
          -0.0017733609889257844 0.0016335828434325284 0 0.0006385261680090955 0 0
          0.002353123503054163 -0.0006039752682959034 0 -0.0014938254617062627 0 0
          0.0015441793709875633 0.00019150805631674745 0 -0.0014109961818406641 0 0
          <InformationKey name="L2_NORM_RANGE" location="vtkDataArray" length="2">
            <Value index="0">
              0.0021004941063
            </Value>
            <Value index="1">
              0.060195662593
            </Value>
          </InformationKey>
        </DataArray>
      </CellData>
      <Points>
        <DataArray type="Float32" Name="Points" NumberOfComponents="3" format="ascii" RangeMin="0" RangeMax="0.6020797527609908">
          0 0.05000000074505806 0 0 0 0
          0.10000000149011612 0.05000000074505806 0 0.10000000149011612 0 0
          0.20000000298023224 0.05000000074505806 0 0.20000000298023224 0 0
          0.30000001192092896 0.05000000074505806 0 0.30000001192092896 0 0
          0.4000000059604645 0.05000000074505806 0 0.4000000059604645 0 0
          0.5 0.05000000074505806 0 0.5 0 0
          0.6000000238418579 0.05000000074505806 0
          <InformationKey name="L2_NORM_RANGE" location="vtkDataArray" length="2">
            <Value index="0">
              0
            </Value>
            <Value index="1">
              0.60207975276
            </Value>
          </InformationKey>
        </DataArray>
      </Points>
      <Cells>
        <DataArray type="Int64" Name="connectivity" format="ascii" RangeMin="0" RangeMax="12">
          3 2 1 2 0 1
          5 4 3 4 2 3
          7 6 5 6 4 5
          9 8 7 8 6 7
          11 10 9 10 8 9
          12 10 11
        </DataArray>
        <DataArray type="Int64" Name="offsets" format="ascii" RangeMin="3" RangeMax="33">
          3 6 9 12 15 18
          21 24 27 30 33
        </DataArray>
        <DataArray type="UInt8" Name="types" format="ascii" RangeMin="5" RangeMax="5">
          5 5 5 5 5 5
          5 5 5 5 5
        </DataArray>
      </Cells>
    </Piece>
  </UnstructuredGrid>
</VTKFile>
