<?xml version="1.0"?>
<VTKFile type="UnstructuredGrid" version="0.1" byte_order="LittleEndian" header_type="UInt32" compressor="vtkZLibDataCompressor">
  <UnstructuredGrid>
    <Piece NumberOfPoints="13" NumberOfCells="11">
      <PointData>
        <DataArray type="Float64" Name="Disp" NumberOfComponents="3" format="ascii" RangeMin="0" RangeMax="0.0027045492003897886">
          0 0 0 0 0 0
          -0.00005284530703506614 0.0001504675247356197 0 0.00009260599331112535 0.00014547549969496244 0
          -0.000178638401196841 0.0006613219834346248 0 0.00018733854918834844 0.0006637846904738467 0
          -0.0002390741096404711 0.0016037293130158493 0 0.00026968023844165575 0.001642867875689723 0
          -0.00014683176736086153 0.0025346489928013034 0 0.00016179441785256574 0.002582798660441147 0
          0.0001740612186545299 0.0026591381548828445 0 -0.00014743397998546104 0.00270052765193669 0
          0.0006705971535089614 0.0011014297146310498 0
          <InformationKey name="L2_NORM_RANGE" location="vtkDataArray" length="2">
            <Value index="0">
              0
            </Value>
            <Value index="1">
              0.0027045492004
            </Value>
          </InformationKey>
        </DataArray>
        <DataArray type="Float64" Name="Nodal Stress" NumberOfComponents="6" format="ascii" RangeMin="2735.04441696687" RangeMax="173250.61522858535">
          150842.2329987452 27276.740813476295 0 80736.45912244376 0 0
          9508.636636847701 -9263.570918510417 0 1108.1630501136713 0 0
          -11737.959893989577 -2787.341770236441 0 -2545.4376565322805 0 0
          4004.5760023538605 978.957935850104 0 -2422.6474859046143 0 0
          2228.8416368899693 2322.9011992181822 0 4148.192372845359 0 0
          2285.626423889116 -1348.3564132611605 0 -662.0534691541126 0 0
          -3922.4758656353783 -6464.301345346151 0 2595.72603598778 0 0
          -7607.954108757477 -8360.174472848052 0 2386.1674495621664 0 0
          816.2391101175937 -10437.616884869996 0 1976.8492109044619 0 0
          -16104.63331126995 -11260.687588872317 0 5525.787015960996 0 0
          7085.034332315943 -11294.85396730237 0 -1149.107239801197 0 0
          -22500.64775180179 -10254.26621948767 0 8232.815377890596 0 0
          14844.4046115269 -6871.6237291137995 0 -5398.264178147798 0 0
          <InformationKey name="L2_NORM_RANGE" location="vtkDataArray" length="2">
            <Value index="0">
              2735.044417
            </Value>
            <Value index="1">
              173250.61523
            </Value>
          </InformationKey>
        </DataArray>
        <DataArray type="Float64" Name="Nodal Strain" NumberOfComponents="6" format="ascii" RangeMin="0.00028529055940012735" RangeMax="0.01351664250846436">
          0.009800275899429074 -0.0034388839775640213 0 0.008650334905976116 0 0
          0.0010100301497216362 -0.0010012778026381622 0 0.00011873175536932159 0 0
          -0.0007388777863479542 0.00022011701262559632 0 -0.00027272546319988744 0 0
          0.0002510783596020578 -0.00007309500466620182 0 -0.00025956937348978003 0 0
          0.0000762422169486342 0.00008632002719808558 0 0.0004444491828048599 0 0
          0.00021141461646569256 -0.00017794068751469412 0 -0.00007093430026651212 0 0
          -0.00004930894235445033 -0.0003216473866091758 0 0.0002781135038558336 0 0
          -0.00024484763373810374 -0.00032544267274780815 0 0.000255660798167375 0 0
          0.00043107482518232805 -0.0007746954599949138 0 0.00021180527259690663 0 0
          -0.0007481635369166995 -0.00022916935237409606 0 0.0005920486088529639 0 0
          0.0009094615225690805 -0.001059812223818596 0 -0.00012311863283584254 0 0
          -0.001240965331575568 0.00007114697545808726 0 0.0008820873619168495 0 0
          0.0013057297482917 -0.0010209875739198035 0 -0.0005783854476586925 0 0
          <InformationKey name="L2_NORM_RANGE" location="vtkDataArray" length="2">
            <Value index="0">
              0.0002852905594
            </Value>
            <Value index="1">
              0.013516642508
            </Value>
          </InformationKey>
        </DataArray>
        <DataArray type="Float64" Name="Sld_traction" NumberOfComponents="3" format="ascii" RangeMin="1561.5198428331" RangeMax="22116.52789101432">
          2412.6079418051445 -7376.7186013516875 0 -19104.418303997845 -1001.0357736912403 0
          13464.132269252554 6401.036716045082 0 1455.6557308754898 -565.1642351837673 0
          4282.744248298059 185.72581089423744 0 4291.705915296111 906.0466866208133 0
          5620.241274976174 -6753.7033159561315 0 -2030.5323501858975 7542.213485420282 0
          -465.95331253278925 -10710.82770514809 0 -10616.74257940506 11011.094145700423 0
          -9411.039979352488 -10893.960895170932 0 -19467.26053974779 10496.026535389145 0
          -19271.500902554217 -5888.478528033753 0
          <InformationKey name="L2_NORM_RANGE" location="vtkDataArray" length="2">
            <Value index="0">
              1561.5198428
            </Value>
            <Value index="1">
              22116.527891
            </Value>
          </InformationKey>
        </DataArray>
        <DataArray type="Float64" Name="Velocity" NumberOfComponents="3" format="ascii" RangeMin="0" RangeMax="2.0755581150110913">
          0 0 0 0 0 0
          -0.09308785389069486 0.2716947394549002 0 0.1414679557412441 0.2751211244370689 0
          -0.20195464015904716 0.9687546480911281 0 0.2084434965182128 0.9869949730898298 0
          -0.13459082998093638 1.813504502880214 0 0.1843949767465144 1.8531753618325038 0
          0.10596115831873992 2.0563058773219387 0 -0.06449622633826826 2.0745557899407086 0
          0.4308316052853076 1.0774247091389006 0 -0.3847330776823892 1.052801707080976 0
          0.6076847885572609 -1.0557737017923288 0
          <InformationKey name="L2_NORM_RANGE" location="vtkDataArray" length="2">
            <Value index="0">
              0
            </Value>
            <Value index="1">
              2.075558115
            </Value>
          </InformationKey>
        </DataArray>
        <DataArray type="Float64" Name="Acceleration" NumberOfComponents="3" format="ascii" RangeMin="0" RangeMax="2515.443934071709">
          0 0 0 0 0 0
          -146.55997531098225 415.1159111152 0 169.80741729439876 425.20193580973705 0
          -178.3531213061535 1179.5306147955457 0 133.61951605879958 1209.3176634165645 0
          81.53010509781477 1450.0657864785844 0 -93.07104852360555 1456.8025174403554 0
          396.2833629658038 407.5566405883485 0 -426.6017963332168 348.1976505594471 0
          360.276166609781 -1513.3343560059382 0 -486.4615286257184 -1602.0001254303943 0
          -84.28745906807558 -2514.031385981886 0
          <InformationKey name="L2_NORM_RANGE" location="vtkDataArray" length="2">
            <Value index="0">
              0
            </Value>
            <Value index="1">
              2515.4439341
            </Value>
          </InformationKey>
        </DataArray>
        <DataArray type="Float64" Name="Sigma" NumberOfComponents="6" format="ascii" RangeMin="9492.354264989948" RangeMax="422702.3679697391">
          367152.8816939797 80390.14858193701 0 193425.6378094831 0 0
          -37205.767470758496 -32651.499449476774 0 -32494.93576621558 0 0
          -83274.37230579008 -8565.142844061935 0 -31410.503362975578 0 0
          42161.892880816304 11111.434541410868 0 8240.416382239753 0 0
          7935.35967466759 6842.5141376265965 0 13001.169257934627 0 0
          -491.1363490250078 -2282.8389812934984 0 -9200.664147996387 0 0
          -11536.339476120134 -12875.459024315918 0 5102.291821025414 0 0
          -15606.809604500202 -12549.999346813576 0 2812.00471796913 0 0
          7750.501033819615 -16154.0571473302 0 311.111107820765 0 0
          -39787.99755949949 -14876.445383746439 0 10135.839377235245 0 0
          27178.075140211287 -19038.453031424477 0 -9142.456127505215 0 0
          -58684.955140425336 -12841.557078287547 0 20345.09324952026 0 0
          48105.43969375549 -12759.393166481546 0 -20207.526473914844 0 0
          <InformationKey name="L2_NORM_RANGE" location="vtkDataArray" length="2">
            <Value index="0">
              9492.354265
            </Value>
            <Value index="1">
              422702.36797
            </Value>
          </InformationKey>
        </DataArray>
        <DataArray type="Float64" Name="Press" format="ascii" RangeMin="-2853.7246822775487" RangeMax="7077.571137279217">
          -2853.7246822775487 -2224.473516910806 -2524.7687349642147 -1072.7107655510536 -1613.0714249109296 394.9022553444029
          4161.954617844818 4626.742355025264 5256.412164762155 3204.129164327089 7077.571137279217 1387.5140735507239
          6136.800354605045
        </DataArray>
        <DataArray type="Float64" Name="Dev strain" NumberOfComponents="6" format="ascii" RangeMin="0.0002852132048798234" RangeMax="0.013561154059806985">
          0.009893639217432918 -0.003345520659560181 0 0.008650334905976116 0 0
          0.0010898241987636027 -0.0009214837535961966 0 0.00011873175536932159 0 0
          -0.0006608724974137353 0.0002981223015598151 0 -0.00027272546319988744 0 0
          0.00030030906250272155 -0.000023864301765538092 0 -0.00025956937348978003 0 0
          0.00010420906125517664 0.00011428687150462806 0 0.0004444491828048599 0 0
          0.00017861339174126277 -0.00021074191223912391 0 -0.00007093430026651212 0 0
          -0.00016436357827010354 -0.00043670202252482903 0 0.0002781135038558336 0 0
          -0.00039424114300904735 -0.0004748361820187516 0 0.000255660798167375 0 0
          0.00025714702225851344 -0.0009486232629187285 0 0.00021180527259690663 0 0
          -0.000896696269114977 -0.00037770208457237373 0 0.0005920486088529639 0 0
          0.0007218367433464672 -0.0012474370030412095 0 -0.00012311863283584254 0 0
          -0.0013471027957547646 -0.00003499048872110941 0 0.0008820873619168495 0 0
          0.0011683079246394353 -0.0011584093975720682 0 -0.0005783854476586925 0 0
          <InformationKey name="L2_NORM_RANGE" location="vtkDataArray" length="2">
            <Value index="0">
              0.00028521320488
            </Value>
            <Value index="1">
              0.01356115406
            </Value>
          </InformationKey>
        </DataArray>
        <DataArray type="Float64" Name="J2 Stresses" format="ascii" RangeMin="23889339.554979898" RangeMax="79985276603.11102">
          79985276603.11102 1489174987.3062859 3750646307.8101363 967520709.9689147 97152566.96334629 23889339.554979898
          155940632.2542887 202514337.45154065 160536111.82757682 927880498.4954424 571451357.0892028 1907895478.8472443
          1340553752.6016939
        </DataArray>
      </PointData>
      <CellData>
        <DataArray type="UInt8" Name="vtkGhostType" format="ascii" RangeMin="0" RangeMax="0">
          0 0 0 0 0 0
          0 0 0 0 0
        </DataArray>
        <DataArray type="Float64" Name="Gauss Stress" NumberOfComponents="6" format="ascii" RangeMin="3487.068549447249" RangeMax="91242.37449529424">
          -28046.733304386107 -11975.720256517967 0 -18555.007582317132 0 0
          79689.92499442617 10523.513118081908 0 43173.39956009731 0 0
          15771.745423780434 4460.0765875421275 0 4013.6404973926615 0 0
          -12795.890225244126 1392.7516365164445 0 -3389.639240933731 0 0
          -6150.228733810289 -6174.899374736169 0 -428.7892030006137 0 0
          -382.7769007330878 -1790.6661399015102 0 2967.5989769878843 0 0
          -11519.00748202186 -10164.406064591902 0 4419.6517343417145 0 0
          -1782.512969722824 -9178.13546027582 0 2741.8025489384363 0 0
          -19875.221061518838 -11695.74703943381 0 7112.825499750099 0 0
          3559.5636936332976 -11510.281032044219 0 434.83145251692986 0 0
          10400.148419658817 -10012.505903586194 0 -3001.629783966603 0 0
          <InformationKey name="L2_NORM_RANGE" location="vtkDataArray" length="2">
            <Value index="0">
              3487.0685494
            </Value>
            <Value index="1">
              91242.374495
            </Value>
          </InformationKey>
        </DataArray>
        <DataArray type="Float64" Name="Gauss Strain" NumberOfComponents="6" format="ascii" RangeMin="0.00031463428712564" RangeMax="0.007351651944334397">
          -0.0015756337982947947 0.00014626045683393456 0 -0.0019880365266768357 0 0
          0.00531629774538466 -0.002094389241366513 0 0.004625721381438998 0 0
          0.0009672647950006694 -0.0002446997231677205 0 0.00043003291043492814 0 0
          -0.0009637332888215963 0.0005564783392241791 0 -0.0003631756329571855 0 0
          -0.0002187699318887289 -0.00022141321484507332 0 -0.0000459417003214944 0 0
          0.00003661115494411912 -0.00011423412068106906 0 0.000317957033248702 0 0
          -0.00045977174640899357 -0.00031463588025578386 0 0.00047353411439375506 0 0
          0.00020046819717250617 -0.0005919199268153149 0 0.00029376455881483237 0 0
          -0.0010019533958429956 -0.00012558117919102797 0 0.0007620884464017963 0 0
          0.0006653360149753859 -0.0009492902056329191 0 0.00004658908419824249 0 0
          0.0011004572408179944 -0.0010866128652439718 0 -0.0003216031911392786 0 0
          <InformationKey name="L2_NORM_RANGE" location="vtkDataArray" length="2">
            <Value index="0">
              0.00031463428713
            </Value>
            <Value index="1">
              0.0073516519443
            </Value>
          </InformationKey>
        </DataArray>
      </CellData>
      <Points>
        <DataArray type="Float32" Name="Points" NumberOfComponents="3" format="ascii" RangeMin="0" RangeMax="0.6020797527609908">
          0 0.05000000074505806 0 0 0 0
          0.10000000149011612 0.05000000074505806 0 0.10000000149011612 0 0
          0.20000000298023224 0.05000000074505806 0 0.20000000298023224 0 0
          0.30000001192092896 0.05000000074505806 0 0.30000001192092896 0 0
          0.4000000059604645 0.05000000074505806 0 0.4000000059604645 0 0
          0.5 0.05000000074505806 0 0.5 0 0
          0.6000000238418579 0.05000000074505806 0
          <InformationKey name="L2_NORM_RANGE" location="vtkDataArray" length="2">
            <Value index="0">
              0
            </Value>
            <Value index="1">
              0.60207975276
            </Value>
          </InformationKey>
        </DataArray>
      </Points>
      <Cells>
        <DataArray type="Int64" Name="connectivity" format="ascii" RangeMin="0" RangeMax="12">
          3 2 1 2 0 1
          5 4 3 4 2 3
          7 6 5 6 4 5
          9 8 7 8 6 7
          11 10 9 10 8 9
          12 10 11
        </DataArray>
        <DataArray type="Int64" Name="offsets" format="ascii" RangeMin="3" RangeMax="33">
          3 6 9 12 15 18
          21 24 27 30 33
        </DataArray>
        <DataArray type="UInt8" Name="types" format="ascii" RangeMin="5" RangeMax="5">
          5 5 5 5 5 5
          5 5 5 5 5
        </DataArray>
      </Cells>
    </Piece>
  </UnstructuredGrid>
</VTKFile>
