<?xml version="1.0"?>
<VTKFile type="UnstructuredGrid" version="0.1" byte_order="LittleEndian" header_type="UInt32" compressor="vtkZLibDataCompressor">
  <UnstructuredGrid>
    <Piece NumberOfPoints="13" NumberOfCells="11">
      <PointData>
        <DataArray type="Float64" Name="Disp" NumberOfComponents="3" format="ascii" RangeMin="0" RangeMax="0.0042426688188604575">
          0 0 0 0 0 0
          -0.0002000922320646138 0.0005950998821042224 0 0.0002945680695010687 0.0006036519148551434 0
          -0.00039486662288153304 0.002004076197285958 0 0.0004007169543447768 0.002036545693405826 0
          -0.00026211629277484165 0.0036038073447060247 0 0.0003516591055374848 0.003667158872505575 0
          0.00010118753811700016 0.004199739754984586 0 -0.000049401945324653324 0.00424238118918243 0
          0.0006423744725474359 0.0029034606836607114 0 -0.000584634843663165 0.00291538646443577 0
          0.0012156234955434195 -0.0007096834807275784 0
          <InformationKey name="L2_NORM_RANGE" location="vtkDataArray" length="2">
            <Value index="0">
              0
            </Value>
            <Value index="1">
              0.0042426688189
            </Value>
          </InformationKey>
        </DataArray>
        <DataArray type="Float64" Name="Nodal Stress" NumberOfComponents="6" format="ascii" RangeMin="8592.671869645035" RangeMax="478281.33695688954">
          406875.7120161325 104155.134481584 0 228816.30233389858 0 0
          20981.347166008116 -4303.142880071516 0 13006.815889734016 0 0
          -31312.989679436425 -8240.303051149333 0 -2002.3888579188206 0 0
          1752.4005959529927 -8339.572121780426 0 -4251.809506519624 0 0
          5265.544414024403 -1958.598950947031 0 10870.454387702257 0 0
          -2445.30091099859 -7916.332057198024 0 2277.3230061274726 0 0
          -6737.357573024199 -15639.934032232684 0 2200.791547865565 0 0
          -18545.106219291498 -15603.020819381882 0 7317.998375821892 0 0
          7108.596009983529 -12059.93851736554 0 -1368.410130366481 0 0
          -24032.79709036146 -9799.579608398362 0 8918.278260909103 0 0
          16837.028056384224 -6498.429725337719 0 -6040.663319043875 0 0
          -26227.96297260277 -4332.814316169244 0 9313.59808581703 0 0
          23397.53744589078 -1011.4725149341625 0 -8567.099084667576 0 0
          <InformationKey name="L2_NORM_RANGE" location="vtkDataArray" length="2">
            <Value index="0">
              8592.6718696
            </Value>
            <Value index="1">
              478281.33696
            </Value>
          </InformationKey>
        </DataArray>
        <DataArray type="Float64" Name="Nodal Strain" NumberOfComponents="6" format="ascii" RangeMin="0.0005475505960034256" RangeMax="0.035966382249196654">
          0.025342724626810042 -0.007091622966177303 0 0.02451603239291771 0 0
          0.0016523513290031334 -0.0010567011759339694 0 0.0013935874167572164 0 0
          -0.0019423455824186969 0.000529727984897777 0 -0.00021454166334844535 0 0
          0.00042301333263165754 -0.0006582694585540659 0 -0.00045555101855567404 0 0
          0.00044606027782128 -0.0003279550827113738 0 0.0011646915415395274 0 0
          0.00010806179411431579 -0.00047812011440705204 0 0.00024399889351365775 0 0
          0.00007732924593515304 -0.000876518231837185 0 0.00023579909441416767 0 0
          -0.000767399700685754 -0.0004521762649811528 0 0.0007840712545523456 0 0
          0.0009384689477618786 -0.0011153026087398076 0 -0.0001466153711106944 0 0
          -0.0013666433775830203 0.00015834420977016894 0 0.0009555298136688325 0 0
          0.0014347316370752203 -0.001065495982394988 0 -0.0006472139270404151 0 0
          -0.0017186825581798685 0.0006272262264380101 0 0.0009978855091946819 0 0
          0.0017073766930969902 -0.0009078743741342537 0 -0.0009179034733572402 0 0
          <InformationKey name="L2_NORM_RANGE" location="vtkDataArray" length="2">
            <Value index="0">
              0.000547550596
            </Value>
            <Value index="1">
              0.035966382249
            </Value>
          </InformationKey>
        </DataArray>
        <DataArray type="Float64" Name="Sld_traction" NumberOfComponents="3" format="ascii" RangeMin="6335.851533118407" RangeMax="60398.738095950444">
          13861.73750587899 -6751.378163030142 0 -56355.82339632397 -21726.222241925992 0
          39973.096906508326 13921.365089034776 0 -614.2072235900969 6306.0101598561205 0
          7799.021819052551 -5560.437111703879 0 1825.1425672291741 8161.5282884596845 0
          3015.0833479660605 -15052.931296520166 0 -13059.399633372033 14713.925632846487 0
          -11747.615141538565 -11527.61446104944 0 -21868.997894790293 10649.816285570043 0
          -21013.212140347772 -5810.133754415261 0 -25857.68657220958 4979.987361093031 0
          -25822.805932793628 -482.23558643399764 0
          <InformationKey name="L2_NORM_RANGE" location="vtkDataArray" length="2">
            <Value index="0">
              6335.8515331
            </Value>
            <Value index="1">
              60398.738096
            </Value>
          </InformationKey>
        </DataArray>
        <DataArray type="Float64" Name="Velocity" NumberOfComponents="3" format="ascii" RangeMin="0" RangeMax="2.6113900878862077">
          0 0 0 0 0 0
          -0.2014059961684005 0.6175699752823054 0 0.26245619663864256 0.6412317058832931 0
          -0.23050180321033692 1.7167537796115382 0 0.21831331379464386 1.7585270327741291 0
          0.08850646371219528 2.186651560500137 0 -0.020437242554856266 2.1954066317992003 0
          0.3900774526369834 1.273875647044627 0 -0.3578965000161699 1.2446092675418576 0
          0.5057949025005044 -0.5887796515831669 0 -0.4896686496730189 -0.6230840820828154 0
          0.48236789551165526 -2.5664526889249277 0
          <InformationKey name="L2_NORM_RANGE" location="vtkDataArray" length="2">
            <Value index="0">
              0
            </Value>
            <Value index="1">
              2.6113900879
            </Value>
          </InformationKey>
        </DataArray>
        <DataArray type="Float64" Name="Acceleration" NumberOfComponents="3" format="ascii" RangeMin="0" RangeMax="2014.470620438321">
          0 0 0 0 0 0
          -70.07630924442898 276.63456053961033 0 72.16906450039812 307.0192270827115 0
          121.25879520357395 316.46764824527463 0 -113.8798815059375 333.74645595203424 0
          364.66448228844854 -703.7716712387382 0 -316.59339007913576 -772.3399775069627 0
          171.94922567068318 -1972.417101142972 0 -160.19875102258646 -2008.090695357149 0
          -210.3495721793874 -1819.074365438197 0 276.59038464445905 -1749.7714528971887 0
          -166.3463270231357 -507.32658828331205 0
          <InformationKey name="L2_NORM_RANGE" location="vtkDataArray" length="2">
            <Value index="0">
              0
            </Value>
            <Value index="1">
              2014.4706204
            </Value>
          </InformationKey>
        </DataArray>
        <DataArray type="Float64" Name="Sigma" NumberOfComponents="6" format="ascii" RangeMin="26091.352859587798" RangeMax="1156050.8885507635">
          990328.8961667204 264248.80956503184 0 534672.7045395887 0 0
          -110151.2005036087 -46290.00957800547 0 -72302.17690554776 0 0
          -217892.7833960025 -40476.111256422744 0 -81778.02283803519 0 0
          92589.78342377255 6115.841675251664 0 22146.57587654489 0 0
          27530.537263745413 11208.332213236063 0 32277.968251602288 0 0
          -20906.475207408686 -9216.622432828426 0 -12598.883259091264 0 0
          -15722.117083400895 -32327.101351700527 0 -539.7192540586766 0 0
          -40932.598292315924 -24395.768308051807 0 17298.101756445143 0 0
          29994.77934420285 -17337.393023680575 0 -12028.5911475712 0 0
          -63256.0820088083 -10987.57661769179 0 21762.87403354287 0 0
          53757.85269626303 -13277.213907086856 0 -21831.607004887923 0 0
          -72331.83072776604 -2946.6053327054033 0 26864.389478125137 0 0
          68690.03363058067 -5100.349334454186 0 -26724.253674963766 0 0
          <InformationKey name="L2_NORM_RANGE" location="vtkDataArray" length="2">
            <Value index="0">
              26091.35286
            </Value>
            <Value index="1">
              1156050.8886
            </Value>
          </InformationKey>
        </DataArray>
        <DataArray type="Float64" Name="Press" format="ascii" RangeMin="-7448.795025810294" RangeMax="10157.55382256864">
          -7448.795025810294 -5229.866848837617 -4983.503468841242 -342.2640971449946 -2641.6973171929203 -193.8724118919199
          10157.55382256864 7295.000378068402 7131.3604650440275 517.5893852668323 7105.204904468299 -1971.575521031612
          5133.615377073391
        </DataArray>
        <DataArray type="Float64" Name="Dev strain" NumberOfComponents="6" format="ascii" RangeMin="0.0005944368525357416" RangeMax="0.036081368661378954">
          0.02556692963010736 -0.006867417962879988 0 0.02451603239291771 0 0
          0.0018250188890745114 -0.0008840336158625937 0 0.0013935874167572164 0 0
          -0.0017901557757281725 0.0006819177915883 0 -0.00021454166334844535 0 0
          0.0004906553725592405 -0.0005906274186264832 0 -0.00045555101855567404 0 0
          0.0004810257735578988 -0.00029298958697475484 0 0.0011646915415395274 0 0
          0.00004609389286335342 -0.0005400880156580143 0 0.00024399889351365775 0 0
          -0.0001596863553017992 -0.0011135338330741371 0 0.00023579909441416767 0 0
          -0.0010015412120459048 -0.0006863177763413037 0 0.0007840712545523456 0 0
          0.0007132424565595821 -0.0013405290999421039 0 -0.0001466153711106944 0 0
          -0.0014764710320701105 0.000048516555283078295 0 0.0009555298136688325 0 0
          0.0012800047531543938 -0.0012202228663158142 0 -0.0006472139270404151 0 0
          -0.0017437341317630578 0.0006021746528548211 0 0.0009978855091946819 0 0
          0.0016240402048476451 -0.0009912108623835987 0 -0.0009179034733572402 0 0
          <InformationKey name="L2_NORM_RANGE" location="vtkDataArray" length="2">
            <Value index="0">
              0.00059443685254
            </Value>
            <Value index="1">
              0.036081368661
            </Value>
          </InformationKey>
        </DataArray>
        <DataArray type="Float64" Name="J2 Stresses" format="ascii" RangeMin="300696382.1777077" RangeMax="596758103214.5853">
          596758103214.5853 8444927175.879304 26229701574.074333 4427753462.692815 702245405.1292311 300696382.1777077
          646186047.9119426 1210121638.2442074 636307743.63135 2179435047.0673275 1652250333.9277952 2800711965.2165637
          2550713575.372839
        </DataArray>
      </PointData>
      <CellData>
        <DataArray type="UInt8" Name="vtkGhostType" format="ascii" RangeMin="0" RangeMax="0">
          0 0 0 0 0 0
          0 0 0 0 0
        </DataArray>
        <DataArray type="Float64" Name="Gauss Stress" NumberOfComponents="6" format="ascii" RangeMin="9994.924670779623" RangeMax="255153.92745338433">
          -82003.27829688745 -30401.971191333458 0 -43977.87462234601 0 0
          214874.24897454 53273.507795704805 0 126864.1682653352 0 0
          32012.003884626472 1643.2392098098194 0 13941.886956351966 0 0
          -35246.642530554556 -10373.134083704721 0 -9117.826236629333 0 0
          -20100.836264793463 -16226.936767945215 0 1386.4997477650695 0 0
          -592.0236445267919 -7671.135825936366 0 6379.788579484116 0 0
          -19749.98357618071 -12592.262573681637 0 9010.794880805606 0 0
          -692.0071219442943 -16492.11600591728 0 1576.597118271754 0 0
          -25392.947090535938 -7186.725696260176 0 8931.88550226003 0 0
          11750.23492881226 -8949.342931226685 0 -4032.4413729720873 0 0
          20127.766786529257 -3685.641271245455 0 -7230.490400575522 0 0
          <InformationKey name="L2_NORM_RANGE" location="vtkDataArray" length="2">
            <Value index="0">
              9994.9246708
            </Value>
            <Value index="1">
              255153.92745
            </Value>
          </InformationKey>
        </DataArray>
        <DataArray type="Float64" Name="Gauss Strain" NumberOfComponents="6" format="ascii" RangeMin="0.0008935479148112519" RangeMax="0.019506633565902487">
          -0.004771592335801482 0.0007571191397935904 0 -0.004711915138108501 0 0
          0.01344553536262054 -0.0038688297636832254 0 0.013592589457000199 0 0
          0.0022278845914086827 -0.001025911623750244 0 0.001493773602466282 0 0
          -0.002147148249193014 0.000517870512969468 0 -0.0009769099539245715 0 0
          -0.0008562405629157755 -0.0004411799025391776 0 0.00014855354440340034 0 0
          0.00023168173346009948 -0.0005267945716909266 0 0.000683548776373298 0 0
          -0.000960989449238564 -0.00019409077039937733 0 0.0009654423086577433 0 0
          0.000539575062929596 -0.0011532937460675095 0 0.00016892111981483068 0 0
          -0.0015571131601718466 0.0003935534177862707 0 0.0009569877323850033 0 0
          0.0011589218853161143 -0.0010588900282594868 0 -0.00043204728996129485 0 0
          0.0015693276730108562 -0.0009821089046078632 0 -0.0007746954000616632 0 0
          <InformationKey name="L2_NORM_RANGE" location="vtkDataArray" length="2">
            <Value index="0">
              0.00089354791481
            </Value>
            <Value index="1">
              0.019506633566
            </Value>
          </InformationKey>
        </DataArray>
      </CellData>
      <Points>
        <DataArray type="Float32" Name="Points" NumberOfComponents="3" format="ascii" RangeMin="0" RangeMax="0.6020797527609908">
          0 0.05000000074505806 0 0 0 0
          0.10000000149011612 0.05000000074505806 0 0.10000000149011612 0 0
          0.20000000298023224 0.05000000074505806 0 0.20000000298023224 0 0
          0.30000001192092896 0.05000000074505806 0 0.30000001192092896 0 0
          0.4000000059604645 0.05000000074505806 0 0.4000000059604645 0 0
          0.5 0.05000000074505806 0 0.5 0 0
          0.6000000238418579 0.05000000074505806 0
          <InformationKey name="L2_NORM_RANGE" location="vtkDataArray" length="2">
            <Value index="0">
              0
            </Value>
            <Value index="1">
              0.60207975276
            </Value>
          </InformationKey>
        </DataArray>
      </Points>
      <Cells>
        <DataArray type="Int64" Name="connectivity" format="ascii" RangeMin="0" RangeMax="12">
          3 2 1 2 0 1
          5 4 3 4 2 3
          7 6 5 6 4 5
          9 8 7 8 6 7
          11 10 9 10 8 9
          12 10 11
        </DataArray>
        <DataArray type="Int64" Name="offsets" format="ascii" RangeMin="3" RangeMax="33">
          3 6 9 12 15 18
          21 24 27 30 33
        </DataArray>
        <DataArray type="UInt8" Name="types" format="ascii" RangeMin="5" RangeMax="5">
          5 5 5 5 5 5
          5 5 5 5 5
        </DataArray>
      </Cells>
    </Piece>
  </UnstructuredGrid>
</VTKFile>
