<?xml version="1.0"?>
<VTKFile type="UnstructuredGrid" version="0.1" byte_order="LittleEndian" header_type="UInt32" compressor="vtkZLibDataCompressor">
  <UnstructuredGrid>
    <Piece NumberOfPoints="13" NumberOfCells="11">
      <PointData>
        <DataArray type="Float64" Name="Disp" NumberOfComponents="3" format="ascii" RangeMin="0" RangeMax="0.086106996367288">
          0 0 0 0 0 0
          0.0010594412875340774 -0.003413153285022359 0 -0.001913249261712792 -0.0033569744361074726 0
          0.002883859038025592 -0.012764813472025465 0 -0.0033022882657404136 -0.012680791169950675 0
          0.0038278651417531064 -0.02819538871520387 0 -0.004877948866210362 -0.028396472948305017 0
          0.004346805191497027 -0.046670543130782546 0 -0.005187385558688941 -0.046762532612706506 0
          0.004473630175598938 -0.06629345465082244 0 -0.005383860891286473 -0.06634630538735208 0
          0.0044362683257593875 -0.08599264123596863 0
          <InformationKey name="L2_NORM_RANGE" location="vtkDataArray" length="2">
            <Value index="0">
              0
            </Value>
            <Value index="1">
              0.086106996367
            </Value>
          </InformationKey>
        </DataArray>
        <DataArray type="Float64" Name="Nodal Stress" NumberOfComponents="6" format="ascii" RangeMin="11017.939863400607" RangeMax="3421795.976431172">
          -2955971.6272978038 -600154.598403949 0 -1615776.5628160117 0 0
          -186820.21416023193 139520.90617992863 0 -51907.809046954746 0 0
          230730.87735153327 57643.073053679094 0 36422.97557124145 0 0
          -77333.35098760655 2815.988403318236 0 42990.213722386026 0 0
          -31573.691584219596 -49049.28381564409 0 -70208.77537505684 0 0
          -96417.94294703478 -6534.25476738763 0 17889.550132882236 0 0
          93078.66492537493 39829.13906729677 0 -21697.425467794124 0 0
          -26721.33298712863 38786.4532548616 0 568.3330668289059 0 0
          43534.24628724822 25351.637533518828 0 -18531.675372460777 0 0
          -14403.218305852466 19860.011769904137 0 786.7408228418432 0 0
          23527.144533692983 17334.098245904264 0 -7964.4232990060955 0 0
          -3115.5261390364194 13830.020170460375 0 -2510.1914423555445 0 0
          8010.703082031546 7297.581437480046 0 -1992.219899606747 0 0
          <InformationKey name="L2_NORM_RANGE" location="vtkDataArray" length="2">
            <Value index="0">
              11017.939863
            </Value>
            <Value index="1">
              3421795.9764
            </Value>
          </InformationKey>
        </DataArray>
        <DataArray type="Float64" Name="Nodal Strain" NumberOfComponents="6" format="ascii" RangeMin="0.00044489836287768644" RangeMax="0.264367879135031">
          -0.1897067377211307 0.06270222966035376 0 -0.17311891744457267 0 0
          -0.018327190517871166 0.016637929518574616 0 -0.0055615509693165855 0 0
          0.014422095773192412 -0.004123026115863396 0 0.0039024616683472966 0 0
          -0.005624381799233264 0.0029630474212229644 0 0.004606094327398502 0 0
          -0.0005035035483141114 -0.0023758884302524496 0 -0.007522368790184661 0 0
          -0.006653629683095783 0.0029767654790092673 0 0.0019167375142373824 0 0
          0.005226006813694754 -0.000479299528242192 0 -0.0023247241572636563 0 0
          -0.003293897115325674 0.0037247942677447084 0 0.000060892828588811244 0 0
          0.0022041733943206298 0.00025603674213533725 0 -0.0019855366470493694 0 0
          -0.0017380874422003236 0.001932972923059312 0 0.00008429365959019748 0 0
          0.0010614353864814897 0.0003978947127898409 0 -0.000853331067750653 0 0
          -0.0007164668731619004 0.0010991273742841845 0 -0.00026894908310952256 0 0
          0.0003115651688065374 0.0002351592783188768 0 -0.0002134521321007229 0 0
          <InformationKey name="L2_NORM_RANGE" location="vtkDataArray" length="2">
            <Value index="0">
              0.00044489836288
            </Value>
            <Value index="1">
              0.26436787914
            </Value>
          </InformationKey>
        </DataArray>
        <DataArray type="Float64" Name="Sld_traction" NumberOfComponents="3" format="ascii" RangeMin="7065.636518083148" RangeMax="399764.96473825234">
          -67947.44511929339 120167.99778042776 0 394884.4401554832 62276.046400415646 0
          -271937.50730335206 -119530.22865405722 0 -15177.235905653419 -5589.8511832678105 0
          -61212.98017846356 -18405.85075019282 0 -77549.26100743304 6918.790506191893 0
          -78456.70824559973 35173.365517861166 0 -29100.069539362692 -33318.70749580543 0
          -32405.73667891771 25803.643637922403 0 -11474.458051505095 -21995.667263718013 0
          -15835.027375916254 16515.598030110206 0 -944.9200929561268 -14181.846595698342 0
          -2186.0322906910274 6718.964371815518 0
          <InformationKey name="L2_NORM_RANGE" location="vtkDataArray" length="2">
            <Value index="0">
              7065.6365181
            </Value>
            <Value index="1">
              399764.96474
            </Value>
          </InformationKey>
        </DataArray>
        <DataArray type="Float64" Name="Velocity" NumberOfComponents="3" format="ascii" RangeMin="0" RangeMax="5.074040997085225">
          0 0 0 0 0 0
          -0.26967950908873556 0.7717028437083847 0 0.31438675116369524 0.7988119573178071 0
          -0.2684754950886797 2.1151218463205788 0 0.1952274341971169 2.189628188115708 0
          0.30231967447952424 2.20417359517371 0 -0.2513018452606566 2.185008162204388 0
          0.6759754864253563 0.0773256168522023 0 -0.6666903030241805 -0.004516291125981287 0
          0.6120913101399488 -2.7158686637202876 0 -0.6734339287587395 -2.741012359503545 0
          0.49910541833294597 -5.0494342080566135 0
          <InformationKey name="L2_NORM_RANGE" location="vtkDataArray" length="2">
            <Value index="0">
              0
            </Value>
            <Value index="1">
              5.0740409971
            </Value>
          </InformationKey>
        </DataArray>
        <DataArray type="Float64" Name="Acceleration" NumberOfComponents="3" format="ascii" RangeMin="0" RangeMax="3540.308448717983">
          0 0 0 0 0 0
          -368.4310532638039 1661.092056352621 0 657.3054354905859 1814.3878526481428 0
          84.52431518645301 3252.676850568648 0 221.86815193781854 3265.1810416573426 0
          401.5674253769607 2588.0953709324767 0 59.015130613040355 2385.717452457665 0
          -192.57866088002868 2772.684540902752 0 358.9105649355953 2977.00911366964 0
          315.6935810689365 3526.204967799774 0 -195.7682405659133 3439.8239685137705 0
          635.9891604609641 1143.825568762296 0
          <InformationKey name="L2_NORM_RANGE" location="vtkDataArray" length="2">
            <Value index="0">
              0
            </Value>
            <Value index="1">
              3540.3084487
            </Value>
          </InformationKey>
        </DataArray>
        <DataArray type="Float64" Name="Sigma" NumberOfComponents="6" format="ascii" RangeMin="22228.26251485435" RangeMax="8322377.886044208">
          -7193847.14763145 -1683580.6613409882 0 -3830938.9255626565 0 0
          725933.5087302545 547597.0852394465 0 591277.2389941232 0 0
          1622322.7748045488 203394.34128985417 0 607494.3608671424 0 0
          -818713.0546187249 -167048.01719528018 0 -164421.22452375962 0 0
          -136434.335423471 -156841.1000652898 0 -230663.56172602723 0 0
          -109999.09475415174 -1190.4267998872365 0 157471.07453483623 0 0
          295576.16871080885 106290.67254390428 0 -52117.99503381456 0 0
          -109616.86728122097 83854.86734295983 0 -167.50757098714166 0 0
          104445.52557778865 17010.151767206284 0 -31604.707612312966 0 0
          -40809.96929000599 29086.129869501336 0 17799.372985288566 0 0
          59193.18383465494 28163.95025292469 0 -15897.59459043982 0 0
          -8905.383541393421 26334.262571086278 0 -2183.2360611365584 0 0
          20216.35109806495 9239.080401590105 0 184.9217185747293 0 0
          <InformationKey name="L2_NORM_RANGE" location="vtkDataArray" length="2">
            <Value index="0">
              22228.262515
            </Value>
            <Value index="1">
              8322377.886
            </Value>
          </InformationKey>
        </DataArray>
        <DataArray type="Float64" Name="Press" format="ascii" RangeMin="-42347.79738327884" RangeMax="59095.987445758765">
          59095.987445758765 46328.83719842827 51030.69044693371 23146.18730486431 46444.275089023555 16410.93102328312
          -29563.508876783995 -42347.79738327884 -2481.7883522542597 -10422.66895678861 -8182.705752318637 -10521.172599310084
          -4598.8336383051155
        </DataArray>
        <DataArray type="Float64" Name="Dev strain" NumberOfComponents="6" format="ascii" RangeMin="0.0007030156612848626" RangeMax="0.26530480734683365">
          -0.19163130470806708 0.06077766267341733 0 -0.17311891744457267 0 0
          -0.019977274912684573 0.014987845123761206 0 -0.0055615509693165855 0 0
          0.012783183707052621 -0.005761938182003188 0 0.0039024616683472966 0 0
          -0.006804640201384488 0.0017827890190717384 0 0.004606094327398502 0 0
          -0.0016322150624825229 -0.0035045999444208607 0 -0.007522368790184661 0 0
          -0.006990015125017696 0.0026403800370873535 0 0.0019167375142373824 0 0
          0.005777471990015964 0.00007216564807901656 0 -0.0023247241572636563 0 0
          -0.0023647628394588426 0.004653928543611539 0 0.000060892828588811244 0 0
          0.002674940886650282 0.0007268042344649895 0 -0.0019855366470493694 0 0
          -0.0013311410971632211 0.002339919268096414 0 0.00008429365959019748 0 0
          0.0013532941353406223 0.0006897534616489738 0 -0.000853331067750653 0 0
          -0.0004100612982396252 0.0014055329492064599 0 -0.00026894908310952256 0 0
          0.0005102994805323462 0.00043389359004468567 0 -0.0002134521321007229 0 0
          <InformationKey name="L2_NORM_RANGE" location="vtkDataArray" length="2">
            <Value index="0">
              0.00070301566128
            </Value>
            <Value index="1">
              0.26530480735
            </Value>
          </InformationKey>
        </DataArray>
        <DataArray type="Float64" Name="J2 Stresses" format="ascii" RangeMin="247039278.20413932" RangeMax="30961963576211.03">
          30961963576211.03 500823206768.20636 1428912571480.4768 355856637694.47205 34908148953.101425 12249893810.13836
          50010560641.38419 9523755199.523685 5848820923.996896 1334932691.7857199 2211703931.606731 387591250.51578
          247039278.20413932
        </DataArray>
      </PointData>
      <CellData>
        <DataArray type="UInt8" Name="vtkGhostType" format="ascii" RangeMin="0" RangeMax="0">
          0 0 0 0 0 0
          0 0 0 0 0
        </DataArray>
        <DataArray type="Float64" Name="Gauss Stress" NumberOfComponents="6" format="ascii" RangeMin="19298.251933108448" RangeMax="1811036.495818239">
          550016.3146221014 234816.37476141553 0 344783.4584458353 0 0
          -1563045.1163351748 -258711.2399068556 0 -877389.1085671302 0 0
          -326381.6971263921 -79692.71688109539 0 -79204.57057165018 0 0
          262598.8458677248 42.12562336857809 0 70803.1915391185 0 0
          6819.943812885445 44484.91261673239 0 35061.8573100115 0 0
          27478.145256236305 -6149.719028583342 0 -41770.16074166852 0 0
          -33744.52189525334 24899.631429115245 0 -4657.614066003842 0 0
          72003.91079835314 44254.19901391775 0 -27963.403405704885 0 0
          -6549.5721017206015 18152.598461698322 0 -93.81922209593813 0 0
          33913.859020358694 17724.356276090264 0 -9900.97640582141 0 0
          15733.813133797541 13478.193745222408 0 -5965.302977667216 0 0
          <InformationKey name="L2_NORM_RANGE" location="vtkDataArray" length="2">
            <Value index="0">
              19298.251933
            </Value>
            <Value index="1">
              1811036.4958
            </Value>
          </InformationKey>
        </DataArray>
        <DataArray type="Float64" Name="Gauss Strain" NumberOfComponents="6" format="ascii" RangeMin="0.0009909214263611617" RangeMax="0.14394006430823225">
          0.0309005805172424 -0.0028708416106882203 0 0.036941084833482345 0 0
          -0.10240639259869624 0.03734366559005226 0 -0.09400597591790678 0 0
          -0.020466809906131745 0.0059641522630071876 0 -0.008486203989819661 0 0
          0.018755555932574323 -0.009375521236463843 0 0.007586056236334124 0 0
          -0.0011016080353914801 0.0029339243364492626 0 0.0037566275689298037 0 0
          0.002182357483609142 -0.0014206279754786786 0 -0.004475374365178769 0 0
          -0.0032995955435579255 0.0029837065983387085 0 -0.0004990300785004116 0 0
          0.003562629377956735 0.0005894459724815138 0 -0.0029960789363255237 0 0
          -0.0011161336666121258 0.0015305274651827585 0 -0.00001005205951027906 0 0
          0.0017894057773081117 0.00005481619756506572 0 -0.0010608189006237217 0 0
          0.0006424797329418814 0.0004008062270231172 0 -0.0006391396047500589 0 0
          <InformationKey name="L2_NORM_RANGE" location="vtkDataArray" length="2">
            <Value index="0">
              0.00099092142636
            </Value>
            <Value index="1">
              0.14394006431
            </Value>
          </InformationKey>
        </DataArray>
      </CellData>
      <Points>
        <DataArray type="Float32" Name="Points" NumberOfComponents="3" format="ascii" RangeMin="0" RangeMax="0.6020797527609908">
          0 0.05000000074505806 0 0 0 0
          0.10000000149011612 0.05000000074505806 0 0.10000000149011612 0 0
          0.20000000298023224 0.05000000074505806 0 0.20000000298023224 0 0
          0.30000001192092896 0.05000000074505806 0 0.30000001192092896 0 0
          0.4000000059604645 0.05000000074505806 0 0.4000000059604645 0 0
          0.5 0.05000000074505806 0 0.5 0 0
          0.6000000238418579 0.05000000074505806 0
          <InformationKey name="L2_NORM_RANGE" location="vtkDataArray" length="2">
            <Value index="0">
              0
            </Value>
            <Value index="1">
              0.60207975276
            </Value>
          </InformationKey>
        </DataArray>
      </Points>
      <Cells>
        <DataArray type="Int64" Name="connectivity" format="ascii" RangeMin="0" RangeMax="12">
          3 2 1 2 0 1
          5 4 3 4 2 3
          7 6 5 6 4 5
          9 8 7 8 6 7
          11 10 9 10 8 9
          12 10 11
        </DataArray>
        <DataArray type="Int64" Name="offsets" format="ascii" RangeMin="3" RangeMax="33">
          3 6 9 12 15 18
          21 24 27 30 33
        </DataArray>
        <DataArray type="UInt8" Name="types" format="ascii" RangeMin="5" RangeMax="5">
          5 5 5 5 5 5
          5 5 5 5 5
        </DataArray>
      </Cells>
    </Piece>
  </UnstructuredGrid>
</VTKFile>
