<?xml version="1.0"?>
<VTKFile type="UnstructuredGrid" version="0.1" byte_order="LittleEndian" header_type="UInt32" compressor="vtkZLibDataCompressor">
  <UnstructuredGrid>
    <Piece NumberOfPoints="13" NumberOfCells="11">
      <PointData>
        <DataArray type="Float64" Name="Disp" NumberOfComponents="3" format="ascii" RangeMin="0" RangeMax="0.04275392470495743">
          0 0 0 0 0 0
          0.00020009488650186698 -0.0006961812292754189 0 -0.0004592127848991512 -0.00064590078719396 0
          0.0008360337747560388 -0.003078332199994517 0 -0.0010043731080107963 -0.0029808005689970127 0
          0.0015699273634295445 -0.008365096055236864 0 -0.001891902682131183 -0.008381184593275656 0
          0.002366964387012212 -0.016798654023084333 0 -0.0026256934289239668 -0.016805065653848546 0
          0.0031083877286935107 -0.028352088431546414 0 -0.0033785076194905264 -0.028389302300263333 0
          0.0036912259563980495 -0.042594282816077356 0
          <InformationKey name="L2_NORM_RANGE" location="vtkDataArray" length="2">
            <Value index="0">
              0
            </Value>
            <Value index="1">
              0.042753924705
            </Value>
          </InformationKey>
        </DataArray>
        <DataArray type="Float64" Name="Nodal Stress" NumberOfComponents="6" format="ascii" RangeMin="26957.81244142431" RangeMax="926348.4902583832">
          -810877.4115805662 -121182.9450770758 0 -431177.50708360627 0 0
          -58025.006555842665 68727.24093538913 0 -2561.1915141124023 0 0
          65580.74354247525 15748.859777945148 0 15938.63666506963 0 0
          -35292.43318551127 -14236.388368057382 0 14944.554318509094 0 0
          -6217.401867317105 -28514.346558201163 0 -17707.041896249462 0 0
          -49948.737277705804 -15481.668976973711 0 12923.015345164746 0 0
          36925.90710177007 -2575.9978213300146 0 -8688.775444979989 0 0
          -36421.40136897787 -1379.1357985299082 0 10817.069399246182 0 0
          33428.18614739953 50.31214421757592 0 -12722.10135698329 0 0
          -32817.51617512612 1899.5805716794512 0 11039.964903079397 0 0
          34937.46813580877 6352.5673191574815 0 -13313.660054940652 0 0
          -24476.51543666618 8226.947738231765 0 7742.1685991753475 0 0
          31667.933639822983 10456.048356460322 0 -12195.441234557182 0 0
          <InformationKey name="L2_NORM_RANGE" location="vtkDataArray" length="2">
            <Value index="0">
              26957.812441
            </Value>
            <Value index="1">
              926348.49026
            </Value>
          </InformationKey>
        </DataArray>
        <DataArray type="Float64" Name="Nodal Strain" NumberOfComponents="6" format="ascii" RangeMin="0.002328429651549597" RangeMax="0.0736108397805302">
          -0.053591852788716324 0.02030398290808624 0 -0.04619759004467211 0 0
          -0.006599187644538376 0.006981410300950747 0 -0.0002744133765120439 0 0
          0.004121879546678762 -0.001217250856663748 0 0.0017077110712574615 0 0
          -0.0020124456429630416 0.0002435591589070176 0 0.001601202248411689 0 0
          0.000574269386555963 -0.0018146889731816154 0 -0.001897183060312442 0 0
          -0.0030148501992299254 0.0006780499758485133 0 0.0013846087869819371 0 0
          0.0027295647151739347 -0.0015027822408725038 0 -0.0009309402262478557 0 0
          -0.0025522738192652085 0.0012022546347113586 0 0.001158971721347805 0 0
          0.002385930719663625 -0.001190270066391585 0 -0.0013630822882482096 0 0
          -0.00241195046149756 0.0013077384756601791 0 0.0011828533824727926 0 0
          0.002268656034016431 -0.0007940119106247784 0 -0.0014264635773150699 0 0
          -0.002042142093270148 0.0014618003897546327 0 0.0008295180641973587 0 0
          0.0018885649615423444 -0.0003841370331036546 0 -0.0013066544179882696 0 0
          <InformationKey name="L2_NORM_RANGE" location="vtkDataArray" length="2">
            <Value index="0">
              0.0023284296515
            </Value>
            <Value index="1">
              0.073610839781
            </Value>
          </InformationKey>
        </DataArray>
        <DataArray type="Float64" Name="Sld_traction" NumberOfComponents="3" format="ascii" RangeMin="12883.230555553382" RangeMax="103945.38032257711">
          -10272.680730276526 52981.83055131613 0 103500.03618057919 -9611.690851457968 0
          -69866.85956720456 -37288.608638486265 0 -9523.464960008436 8676.47651429057 0
          -18965.17273389349 -18409.273712735117 0 -36993.24318043405 16575.926724230285 0
          -36532.13304013589 -3519.991160440436 0 -34419.05770227455 3093.833542940888 0
          -35035.12085701374 1332.689811112818 0 -34089.434090675655 -1316.2674817030797 0
          -36055.80725938967 7034.62056563469 0 -28664.38920795659 -7353.87635206671 0
          -30482.04780651883 10952.55868215511 0
          <InformationKey name="L2_NORM_RANGE" location="vtkDataArray" length="2">
            <Value index="0">
              12883.230556
            </Value>
            <Value index="1">
              103945.38032
            </Value>
          </InformationKey>
        </DataArray>
        <DataArray type="Float64" Name="Velocity" NumberOfComponents="3" format="ascii" RangeMin="0" RangeMax="12.128984265838595">
          0 0 0 0 0 0
          0.1333477384669862 -0.4463417916994271 0 -0.23831730254148367 -0.43801433051557764 0
          0.35693241053371105 -1.5871287170248578 0 -0.4037531737124301 -1.5606380122831318 0
          0.5509501285932568 -3.5699509620034235 0 -0.642164160741514 -3.587739926692736 0
          0.7069579183918551 -6.256576000891257 0 -0.7298592337646365 -6.2839824089199325 0
          0.7385615475463422 -9.249966423963988 0 -0.7464850054248764 -9.273786025349795 0
          0.631406990784216 -12.112538319152968 0
          <InformationKey name="L2_NORM_RANGE" location="vtkDataArray" length="2">
            <Value index="0">
              0
            </Value>
            <Value index="1">
              12.128984266
            </Value>
          </InformationKey>
        </DataArray>
        <DataArray type="Float64" Name="Acceleration" NumberOfComponents="3" format="ascii" RangeMin="0" RangeMax="2121.1795124554733">
          0 0 0 0 0 0
          -136.22332809744586 841.6482411506878 0 274.4318902375202 963.6224659003574 0
          434.20651326431175 911.2591381887228 0 -169.63509243074282 906.0283924743962 0
          640.284119106652 -1187.0409525591022 0 -360.2113005931956 -1379.605559011573 0
          -60.13993328766634 -2120.3267937950022 0 210.73873031429622 -2057.4019926532637 0
          -215.47519301179318 -857.4969962207606 0 205.36282334115992 -765.4323486999401 0
          69.24050641355052 -813.8624416391476 0
          <InformationKey name="L2_NORM_RANGE" location="vtkDataArray" length="2">
            <Value index="0">
              0
            </Value>
            <Value index="1">
              2121.1795125
            </Value>
          </InformationKey>
        </DataArray>
        <DataArray type="Float64" Name="Sigma" NumberOfComponents="6" format="ascii" RangeMin="81534.55032471669" RangeMax="2267429.305513187">
          -1976353.6446930573 -397491.49780901935 0 -1037912.5376340847 0 0
          182500.03619669133 208903.9353588468 0 180537.77994770498 0 0
          456131.1285105798 30780.801594311597 0 170577.26698603862 0 0
          -259622.72320300815 -79381.83297327696 0 -45882.64824171184 0 0
          -22503.75804922601 -60536.12739378937 0 -63597.68771329759 0 0
          -86553.6477595254 -14964.95796895826 0 60133.602779193076 0 0
          122144.89823932722 4466.944891770228 0 -29977.55253620913 0 0
          -107809.25372796824 7443.182291923613 0 27307.696207543835 0 0
          94881.43335657893 -8723.587911634691 0 -35684.90038268127 0 0
          -93200.55020238117 6769.279964617368 0 37149.958604278916 0 0
          97333.00472710135 5662.065271975803 0 -37493.571075148226 0 0
          -74224.15752314171 17861.50786332032 0 28629.07391939444 0 0
          84487.46453638453 10988.321628614809 0 -30675.65887306389 0 0
          <InformationKey name="L2_NORM_RANGE" location="vtkDataArray" length="2">
            <Value index="0">
              81534.550325
            </Value>
            <Value index="1">
              2267429.3055
            </Value>
          </InformationKey>
        </DataArray>
        <DataArray type="Float64" Name="Press" format="ascii" RangeMin="-10431.217427027066" RangeMax="19281.872016193283">
          18288.034342745446 15589.69451215953 18400.715158926476 12065.670932162284 19281.872016193283 7677.117176667359
          912.917588965362 -10431.217427027066 7338.446403645768 -6092.299889557991 2494.777145921209 -9683.788138235888
          -22.82639840579509
        </DataArray>
        <DataArray type="Float64" Name="Dev strain" NumberOfComponents="6" format="ascii" RangeMin="0.00240627912354841" RangeMax="0.07390058352895049">
          -0.054221910631185755 0.019673925065616805 0 -0.04619759004467211 0 0
          -0.007177374759008905 0.006403223186480218 0 -0.0002744133765120439 0 0
          0.003516864879413463 -0.0018222655239290488 0 0.0017077110712574615 0 0
          -0.002521451629963161 -0.0002654468280931018 0 0.001601202248411689 0 0
          0.000054952597678847046 -0.0023340057620587313 0 -0.001897183060312442 0 0
          -0.0032770131033235473 0.00041588707175489254 0 0.0013846087869819371 0 0
          0.002650428931087887 -0.0015819180249585505 0 -0.0009309402262478557 0 0
          -0.002419834059474045 0.001334694394502522 0 0.001158971721347805 0 0
          0.00234309935501008 -0.0012331014310451298 0 -0.0013630822882482096 0 0
          -0.0023018243966062605 0.0014178645405514797 0 0.0011828533824727926 0 0
          0.002296239049417683 -0.0007664288952235271 0 -0.0014264635773150699 0 0
          -0.001837468607927492 0.0016664738750972886 0 0.0008295180641973587 0 0
          0.0020024474914108956 -0.00027025450323510354 0 -0.0013066544179882696 0 0
          <InformationKey name="L2_NORM_RANGE" location="vtkDataArray" length="2">
            <Value index="0">
              0.0024062791235
            </Value>
            <Value index="1">
              0.073900583529
            </Value>
          </InformationKey>
        </DataArray>
        <DataArray type="Float64" Name="J2 Stresses" format="ascii" RangeMin="3096687393.707131" RangeMax="2301302218805.501">
          2301302218805.501 46622031207.214935 111775683074.66833 37379021257.18969 3096687393.707131 4761754499.547785
          7694328295.296151 6025545644.046996 4857646719.755944 4711112710.707882 5104328364.1668215 3119035479.956342
          3864686449.8245044
        </DataArray>
      </PointData>
      <CellData>
        <DataArray type="UInt8" Name="vtkGhostType" format="ascii" RangeMin="0" RangeMax="0">
          0 0 0 0 0 0
          0 0 0 0 0
        </DataArray>
        <DataArray type="Float64" Name="Gauss Stress" NumberOfComponents="6" format="ascii" RangeMin="22752.27441029848" RangeMax="487076.698101788">
          141688.17403583706 68786.32819437656 0 101744.1328973439 0 0
          -428481.3453239847 -35176.10561400981 0 -228932.49690011365 0 0
          -109885.15629557887 -38619.41940366721 0 -16448.911058605438 0 0
          74584.30178854255 -19796.300221824233 0 20365.643677009717 0 0
          -24686.395303186935 -1632.0044822195873 0 19154.582150175927 0 0
          13653.13307080062 -14387.41122971713 0 -11147.212490104554 0 0
          -38437.81382890326 -1232.0655226776657 0 9590.918143047165 0 0
          35679.074811174 335.56194588107167 0 -12784.918903782193 0 0
          -27791.00462676475 5670.514072680274 0 9428.487149508379 0 0
          34251.603847102684 2482.893661655822 0 -12009.504284516865 0 0
          33461.49144987458 9100.01912439682 0 -13180.052009605895 0 0
          <InformationKey name="L2_NORM_RANGE" location="vtkDataArray" length="2">
            <Value index="0">
              22752.27441
            </Value>
            <Value index="1">
              487076.6981
            </Value>
          </InformationKey>
        </DataArray>
        <DataArray type="Float64" Name="Gauss Strain" NumberOfComponents="6" format="ascii" RangeMin="0.0024371794032793754" RangeMax="0.040331541520330055">
          0.007663929281332055 -0.00014698277311013834 0 0.010901157096143987 0 0
          -0.029349520894069996 0.01279032621771304 0 -0.02452848181072645 0 0
          -0.006469674756696091 0.0011659399102944435 0 -0.0017623833277077257 0 0
          0.006034460849961049 -0.004077746508292537 0 0.002182033251108185 0 0
          -0.0017050280758626529 0.0007650852263838483 0 0.002052276658947421 0 0
          0.0014890599061185138 -0.0015152841260798176 0 -0.0011943441953683447 0 0
          -0.002701555790540317 0.0012847743851267116 0 0.001027598372469339 0 0
          0.002536520988445249 -0.0012502839614075664 0 -0.001369812739690949 0 0
          -0.0021875901187932063 0.0013975725990044748 0 0.0010101950517330406 0 0
          0.0023578683583053424 -0.0010459220187068235 0 -0.0012867326019125212 0 0
          0.002065105849119726 -0.0005450519000386046 0 -0.001412148429600632 0 0
          <InformationKey name="L2_NORM_RANGE" location="vtkDataArray" length="2">
            <Value index="0">
              0.0024371794033
            </Value>
            <Value index="1">
              0.04033154152
            </Value>
          </InformationKey>
        </DataArray>
      </CellData>
      <Points>
        <DataArray type="Float32" Name="Points" NumberOfComponents="3" format="ascii" RangeMin="0" RangeMax="0.6020797527609908">
          0 0.05000000074505806 0 0 0 0
          0.10000000149011612 0.05000000074505806 0 0.10000000149011612 0 0
          0.20000000298023224 0.05000000074505806 0 0.20000000298023224 0 0
          0.30000001192092896 0.05000000074505806 0 0.30000001192092896 0 0
          0.4000000059604645 0.05000000074505806 0 0.4000000059604645 0 0
          0.5 0.05000000074505806 0 0.5 0 0
          0.6000000238418579 0.05000000074505806 0
          <InformationKey name="L2_NORM_RANGE" location="vtkDataArray" length="2">
            <Value index="0">
              0
            </Value>
            <Value index="1">
              0.60207975276
            </Value>
          </InformationKey>
        </DataArray>
      </Points>
      <Cells>
        <DataArray type="Int64" Name="connectivity" format="ascii" RangeMin="0" RangeMax="12">
          3 2 1 2 0 1
          5 4 3 4 2 3
          7 6 5 6 4 5
          9 8 7 8 6 7
          11 10 9 10 8 9
          12 10 11
        </DataArray>
        <DataArray type="Int64" Name="offsets" format="ascii" RangeMin="3" RangeMax="33">
          3 6 9 12 15 18
          21 24 27 30 33
        </DataArray>
        <DataArray type="UInt8" Name="types" format="ascii" RangeMin="5" RangeMax="5">
          5 5 5 5 5 5
          5 5 5 5 5
        </DataArray>
      </Cells>
    </Piece>
  </UnstructuredGrid>
</VTKFile>
