<?xml version="1.0"?>
<VTKFile type="UnstructuredGrid" version="0.1" byte_order="LittleEndian" header_type="UInt32" compressor="vtkZLibDataCompressor">
  <UnstructuredGrid>
    <Piece NumberOfPoints="13" NumberOfCells="11">
      <PointData>
        <DataArray type="Float64" Name="Disp" NumberOfComponents="3" format="ascii" RangeMin="0.000011371993991296276" RangeMax="0.001710544560497766">
          0.000005939501956617275 0.00004132435623999467 0 -0.000021245241186190842 0.00008932786516106794 0
          0.0000015147222740385241 0.00009508118046409192 0 0.000005435270245807318 0.00011030323538720882 0
          -0.000016023852807789656 0.0001154487563702622 0 0.00006125827628217012 -0.00003367983965879562 0
          -0.00010030321962350812 -0.000013572837269604232 0 0.00023331480168209276 -0.0006188335001726247 0
          -0.00021801911725273342 -0.0006525090441611009 0 0.00026608233671505596 -0.0016897227238623358 0
          -0.00024907421238232457 -0.0016725825435405933 0 -0.000013436870640358336 0.00004067568738963523 0
          0.0000015294294985904525 0.000011268677506563046 0
          <InformationKey name="L2_NORM_RANGE" location="vtkDataArray" length="2">
            <Value index="0">
              1.1371993991e-05
            </Value>
            <Value index="1">
              0.0017105445605
            </Value>
          </InformationKey>
        </DataArray>
        <DataArray type="Float64" Name="Nodal Stress" NumberOfComponents="6" format="ascii" RangeMin="190.1384472325066" RangeMax="7397.512983450794">
          -808.6265169408571 -368.44333356295573 0 70.407876003007 0 0
          -85.514730058779 -905.0766095619749 0 266.01035003468587 0 0
          -2078.226281234675 -1191.6473246136095 0 474.1544211397815 0 0
          422.82465364649477 -1676.4606232210522 0 318.2311185542293 0 0
          -4416.137257129853 -2435.171359327944 0 1193.767923910693 0 0
          1003.5175906955119 -3654.4077893574304 0 -211.51271889993112 0 0
          -5194.109416198447 -2809.8787928344937 0 2120.115959298977 0 0
          4139.187728260776 1246.5867041724994 0 -1624.853092509964 0 0
          -2118.9645618120185 2492.099673921393 0 1427.9910525008854 0 0
          5946.248735662732 2589.680506822513 0 -3557.9318692937245 0 0
          79.52245503746741 384.3111874662633 0 -1059.6085135636376 0 0
          -182.44187647548011 -138.89202088906745 0 138.31863847284635 0 0
          -185.70079003587347 -12.269493312571088 0 -38.95260235072754 0 0
          <InformationKey name="L2_NORM_RANGE" location="vtkDataArray" length="2">
            <Value index="0">
              190.13844723
            </Value>
            <Value index="1">
              7397.5129835
            </Value>
          </InformationKey>
        </DataArray>
        <DataArray type="Float64" Name="Nodal Strain" NumberOfComponents="6" format="ascii" RangeMin="0.000014664823666618565" RangeMax="0.000506413500848762">
          -0.00004460034643995566 0.000002562137493390909 0 0.0000075437010003221805 0 0
          0.000026215969623014887 -0.00006159423175232754 0 0.000028501108932287775 0 0
          -0.00010588590135199075 -0.000010895298856876583 0 0.000050802259407833734 0 0
          0.00009007535466121578 -0.00013484806786030713 0 0.000034096191273667424 0 0
          -0.0002284679698189916 -0.000016221623625929854 0 0.00012790370613328852 0 0
          0.0002021943918124448 -0.0002968690417646562 0 -0.000022662077024992627 0 0
          -0.0002706550014129429 -0.000015201720338233595 0 0.0002271552813534618 0 0
          0.0002511353125838947 -0.00005878622571127768 0 -0.0001740914027689247 0 0
          -0.00024035817134090818 0.00025368442534481444 0 0.00015299904133938053 0 0
          0.0003322434630179626 -0.000027388847214918045 0 -0.0003812069859957562 0 0
          -0.000008045224192547443 0.000024610711424823562 0 -0.00011352948359610404 0 0
          -0.000008071133287924742 -0.0000034050773322376742 0 0.00001481985412209068 0 0
          -0.00001282614595568485 0.000005755778693240402 0 -0.000004173493109006521 0 0
          <InformationKey name="L2_NORM_RANGE" location="vtkDataArray" length="2">
            <Value index="0">
              1.4664823667e-05
            </Value>
            <Value index="1">
              0.00050641350085
            </Value>
          </InformationKey>
        </DataArray>
        <DataArray type="Float64" Name="Sld_traction" NumberOfComponents="3" format="ascii" RangeMin="160.35275181983843" RangeMax="5888.498199902858">
          33.813725139936686 307.2363777273635 0 293.38965597785807 -966.9115358144287 0
          -650.8078937196942 1138.8825465470122 0 -232.58691930136848 -1963.8411658026625 0
          -2328.9478584144435 2138.370922447056 0 -2202.535433734579 -3226.188314988687 0
          -4984.433814028597 3135.2560667077137 0 -5484.309522288159 1773.2148810877752 0
          -5342.584796674413 -1490.6804770061112 0 -2165.338734105411 -90.99595445350893 0
          188.7741297309877 -939.1911174343714 0 279.44296060634343 -213.76993547805313 0
          159.92413044631334 11.716548859849798 0
          <InformationKey name="L2_NORM_RANGE" location="vtkDataArray" length="2">
            <Value index="0">
              160.35275182
            </Value>
            <Value index="1">
              5888.4981999
            </Value>
          </InformationKey>
        </DataArray>
        <DataArray type="Float64" Name="Velocity" NumberOfComponents="3" format="ascii" RangeMin="0.02274398798259255" RangeMax="3.4210891209955325">
          0.01187900391323455 0.08264871247998934 0 -0.042490482372381684 0.17865573032213589 0
          0.0030294445480770486 0.19016236092818384 0 0.010870540491614636 0.22060647077441764 0
          -0.03204770561557931 0.23089751274052442 0 0.12251655256434023 -0.06735967931759124 0
          -0.20060643924701624 -0.027145674539208464 0 0.4666296033641855 -1.2376670003452497 0
          -0.43603823450546686 -1.3050180883222018 0 0.532164673430112 -3.379445447724672 0
          -0.49814842476464916 -3.345165087081187 0 -0.02687374128071667 0.08135137477927046 0
          0.003058858997180905 0.022537355013126092 0
          <InformationKey name="L2_NORM_RANGE" location="vtkDataArray" length="2">
            <Value index="0">
              0.022743987983
            </Value>
            <Value index="1">
              3.421089121
            </Value>
          </InformationKey>
        </DataArray>
        <DataArray type="Float64" Name="Acceleration" NumberOfComponents="3" format="ascii" RangeMin="45.4879759651851" RangeMax="6842.178241991065">
          23.7580078264691 165.29742495997868 0 -84.98096474476337 357.3114606442718 0
          6.058889096154097 380.32472185636766 0 21.74108098322927 441.21294154883526 0
          -64.09541123115862 461.7950254810488 0 245.03310512868046 -134.71935863518246 0
          -401.21287849403245 -54.29134907841693 0 933.259206728371 -2475.334000690499 0
          -872.0764690109337 -2610.0361766444034 0 1064.329346860224 -6758.890895449344 0
          -996.2968495292982 -6690.330174162374 0 -53.747482561433344 162.70274955854092 0
          6.11771799436181 45.074710026252184 0
          <InformationKey name="L2_NORM_RANGE" location="vtkDataArray" length="2">
            <Value index="0">
              45.487975965
            </Value>
            <Value index="1">
              6842.178242
            </Value>
          </InformationKey>
        </DataArray>
        <DataArray type="Float64" Name="Sigma" NumberOfComponents="6" format="ascii" RangeMin="185.02005577584237" RangeMax="22445.494418629696">
          -1413.7472146692671 -318.5223309242665 0 -128.82333356478557 0 0
          538.4313715567041 -1468.8896608516307 0 353.27993034141036 0 0
          -4390.6887067176285 -1664.3359459300918 0 491.43653549791634 0 0
          2895.8279876047745 -2514.0378624980112 0 47.78637984027955 0 0
          -10229.3889075287 -2209.4091115238953 0 2067.9245538912855 0 0
          6241.964118949534 -5975.608184020655 0 -1939.9469655107387 0 0
          -12876.600445097698 -4696.364902145195 0 5210.552399423603 0 0
          11857.20791648998 2276.9723458639783 0 -5503.211120204801 0 0
          -9889.45994077305 5215.53023306695 0 6996.468732585895 0 0
          19143.560156165135 7560.882160247038 0 -8953.06568739902 0 0
          5075.201411256454 3923.6227871530946 0 -1140.9185497207136 0 0
          -124.57698650679959 -148.68278505743183 0 299.4318346612272 0 0
          -46.71042651157768 0.6393726836322458 0 -179.02555207839396 0 0
          <InformationKey name="L2_NORM_RANGE" location="vtkDataArray" length="2">
            <Value index="0">
              185.02005578
            </Value>
            <Value index="1">
              22445.494419
            </Value>
          </InformationKey>
        </DataArray>
        <DataArray type="Float64" Name="Press" format="ascii" RangeMin="-6766.593249696897" RangeMax="1173.659349142284">
          181.65507568059456 365.88729799200655 374.48051410482367 1173.659349142284 672.4028147865665 657.0776054872144
          -695.9800137625552 980.398591693392 -920.6806729448974 -4632.546045416429 -6766.593249696897 99.60153496508406
          -6.733186247857702
        </DataArray>
        <DataArray type="Float64" Name="Dev strain" NumberOfComponents="6" format="ascii" RangeMin="0.000014813189935303884" RangeMax="0.0005957574208612676">
          -0.00005170944003476137 -0.00000454695610141479 0 0.0000075437010003221805 0 0
          0.000012582470064591542 -0.00007522773131075089 0 0.000028501108932287775 0 0
          -0.00012427886048700472 -0.000029288257991890527 0 0.000050802259407833734 0 0
          0.00005984116520849044 -0.00016508225731303247 0 0.000034096191273667424 0 0
          -0.0002504155629687555 -0.000038169216775693716 0 0.00012790370613328852 0 0
          0.00018419031688444778 -0.0003148731166926531 0 -0.000022662077024992627 0 0
          -0.00026723474681064396 -0.000011781465735934647 0 0.0002271552813534618 0 0
          0.0002550829264624178 -0.00005483861183275456 0 -0.0001740914027689247 0 0
          -0.00017996843262491145 0.00031407416406081123 0 0.00015299904133938053 0 0
          0.00044901908884635106 0.00008938677861347049 0 -0.0003812069859957562 0 0
          0.00016236917953740902 0.00019502511515478006 0 -0.00011352948359610404 0 0
          -0.000011730116758950935 -0.000007064060803263866 0 0.00001481985412209068 0 0
          -0.000013122971555877354 0.000005458953093047901 0 -0.000004173493109006521 0 0
          <InformationKey name="L2_NORM_RANGE" location="vtkDataArray" length="2">
            <Value index="0">
              1.4813189935e-05
            </Value>
            <Value index="1">
              0.00059575742086
            </Value>
          </InformationKey>
        </DataArray>
        <DataArray type="Float64" Name="J2 Stresses" format="ascii" RangeMin="9103.673445404474" RangeMax="231860763.54764798">
          1054217.6939589554 1254974.2661121339 11084458.197211916 7353673.938458903 55830021.01192465 38275853.17284261
          100718805.2351805 80460324.47773741 74739230.44760817 231860763.54764798 20901666.35461746 41227.85397192201
          9103.673445404474
        </DataArray>
      </PointData>
      <CellData>
        <DataArray type="UInt8" Name="vtkGhostType" format="ascii" RangeMin="0" RangeMax="1">
          1 1 0 0 0 0
          0 0 0 0 0
        </DataArray>
        <DataArray type="Float64" Name="Gauss Stress" NumberOfComponents="6" format="ascii" RangeMin="441.51138313549467" RangeMax="7007.459889817476">
          -436.8370677632746 -64.01410630008174 0 -2.8056836606508 0 0
          -117.58297366055899 -429.65028939854807 0 174.62947714595072 0 0
          -1447.9938873509227 -843.2416833095216 0 238.6310440915137 0 0
          -3167.9023162026283 -1389.0800806394416 0 869.0491564098273 0 0
          319.19927122765534 -1244.4121026802065 0 297.5009485598687 0 0
          -5410.174942388548 -4082.627263726173 0 1779.5099959347167 0 0
          470.51432281389225 -2731.9717962088325 0 58.58798940694169 0 0
          -3848.371521464943 719.9585272572244 0 2234.603337268233 0 0
          2054.6892579199584 -2484.5015189612727 0 -744.2018954306463 0 0
          669.8272195301042 1460.0717374696185 0 -1032.505168177946 0 0
          5512.826668404712 3493.5188708366773 0 -2486.602691672643 0 0
          <InformationKey name="L2_NORM_RANGE" location="vtkDataArray" length="2">
            <Value index="0">
              441.51138314
            </Value>
            <Value index="1">
              7007.4598898
            </Value>
          </InformationKey>
        </DataArray>
        <DataArray type="Float64" Name="Gauss Strain" NumberOfComponents="6" format="ascii" RangeMin="0.0000309497436337794" RangeMax="0.00042819616019484425">
          -0.000028916429615230986 0.000011028887684396822 0 -3.0060896364115623e-7 0 0
          0.000006945869359908215 -0.000026489914469162043 0 0.00001871030112278043 0 0
          -0.00007331236040686873 -0.000008517481402432882 0 0.0000255676118669479 0 0
          -0.0001766687339916362 0.000013919362675847992 0 0.00009311240961533865 0 0
          0.00006724323732626848 -0.00010028655273528814 0 0.0000318751016314145 0 0
          -0.00024063295075181867 -0.00009839569946656431 0 0.00019066178527871972 0 0
          0.00013117858720845062 -0.00021194492554398427 0 0.000006277284579315199 0 0
          -0.00030059648464953966 0.00018886744914212112 0 0.0002394217861358821 0 0
          0.0002354957155286139 -0.0002508461534229466 0 -0.00007973591736756927 0 0
          -0.000004300617800336059 0.0000803684376931833 0 -0.00011062555373335132 0 0
          0.00026900480235616967 0.000052650395473880104 0 -0.00026642171696492593 0 0
          <InformationKey name="L2_NORM_RANGE" location="vtkDataArray" length="2">
            <Value index="0">
              3.0949743634e-05
            </Value>
            <Value index="1">
              0.00042819616019
            </Value>
          </InformationKey>
        </DataArray>
      </CellData>
      <Points>
        <DataArray type="Float32" Name="Points" NumberOfComponents="3" format="ascii" RangeMin="0.4000000059604645" RangeMax="1.0012492197622458">
          0.5 0 0 0.6000000238418579 0.05000000074505806 0
          0.6000000238418579 0 0 0.699999988079071 0.05000000074505806 0
          0.699999988079071 0 0 0.800000011920929 0.05000000074505806 0
          0.800000011920929 0 0 0.8999999761581421 0.05000000074505806 0
          0.8999999761581421 0 0 1 0.05000000074505806 0
          1 0 0 0.5 0.05000000074505806 0
          0.4000000059604645 0 0
          <InformationKey name="L2_NORM_RANGE" location="vtkDataArray" length="2">
            <Value index="0">
              0.40000000596
            </Value>
            <Value index="1">
              1.0012492198
            </Value>
          </InformationKey>
        </DataArray>
      </Points>
      <Cells>
        <DataArray type="Int64" Name="connectivity" format="ascii" RangeMin="0" RangeMax="12">
          0 11 12 1 11 0
          2 1 0 4 3 2
          3 1 2 6 5 4
          5 3 4 8 7 6
          7 5 6 10 9 8
          9 7 8
        </DataArray>
        <DataArray type="Int64" Name="offsets" format="ascii" RangeMin="3" RangeMax="33">
          3 6 9 12 15 18
          21 24 27 30 33
        </DataArray>
        <DataArray type="UInt8" Name="types" format="ascii" RangeMin="5" RangeMax="5">
          5 5 5 5 5 5
          5 5 5 5 5
        </DataArray>
      </Cells>
    </Piece>
  </UnstructuredGrid>
</VTKFile>
