<?xml version="1.0"?>
<VTKFile type="UnstructuredGrid" version="0.1" byte_order="LittleEndian" header_type="UInt32" compressor="vtkZLibDataCompressor">
  <UnstructuredGrid>
    <Piece NumberOfPoints="13" NumberOfCells="11">
      <PointData>
        <DataArray type="Float64" Name="Disp" NumberOfComponents="3" format="ascii" RangeMin="0" RangeMax="0.07398803615083692">
          0 0 0 0 0 0
          0.000865769667347382 -0.0027375604292477745 0 -0.001551107506422018 -0.0026665822018603893 0
          0.0024814443196362512 -0.010508478446899549 0 -0.0027731671939868864 -0.010416817804895164 0
          0.0034144556706030425 -0.023830133239399413 0 -0.004187044820476938 -0.024010956023945658 0
          0.00387921730581372 -0.040030538950778044 0 -0.004456717163113983 -0.04011528856823102 0
          0.003935260878794864 -0.05707248030099168 0 -0.004549789542643063 -0.057112887466861814 0
          0.003853076974730431 -0.07388763963806363 0
          <InformationKey name="L2_NORM_RANGE" location="vtkDataArray" length="2">
            <Value index="0">
              0
            </Value>
            <Value index="1">
              0.073988036151
            </Value>
          </InformationKey>
        </DataArray>
        <DataArray type="Float64" Name="Nodal Stress" NumberOfComponents="6" format="ascii" RangeMin="9234.530798558568" RangeMax="2844780.205310932">
          -2462896.0411877334 -475763.1475737264 0 -1341852.0537829192 0 0
          -154018.82344372617 134259.08702522633 0 -37461.93054725158 0 0
          196577.48908863205 49284.1061135722 0 33283.98765757009 0 0
          -65196.09281948178 -3891.952856210576 0 37122.64546888429 0 0
          -23055.54632294561 -45039.964958838784 0 -58838.10232281101 0 0
          -80943.14953707714 -6829.615219631515 0 16846.67646638868 0 0
          83730.61977842505 34901.62201655074 0 -20395.630508209513 0 0
          -19308.67712906236 35659.50385561128 0 797.8837279257353 0 0
          42796.102667649575 25989.354445908117 0 -17303.663285074465 0 0
          -6812.048957513396 21093.218283444883 0 -538.9980026013528 0 0
          23311.93715584815 16923.030947224528 0 -6471.311266059238 0 0
          1865.5431521343019 12548.434555872209 0 -3272.87484518413 0 0
          7512.689297318197 5352.667861320368 0 -430.12249171070044 0 0
          <InformationKey name="L2_NORM_RANGE" location="vtkDataArray" length="2">
            <Value index="0">
              9234.5307986
            </Value>
            <Value index="1">
              2844780.2053
            </Value>
          </InformationKey>
        </DataArray>
        <DataArray type="Float64" Name="Nodal Strain" NumberOfComponents="6" format="ascii" RangeMin="0.0003666926303299248" RangeMax="0.2210021771235671">
          -0.15892960481434784 0.05397749093000998 0 -0.1437698629053128 0 0
          -0.01579631192545281 0.015090607053363528 0 -0.004013778272919817 0 0
          0.012281102573703283 -0.0035003313164817026 0 0.0035661415347396533 0 0
          -0.004517865456526894 0.002050435253823594 0 0.003977426300237601 0 0
          -0.00003825456025187341 -0.002393727985526142 0 -0.006304082391729751 0 0
          -0.0055377387090900995 0.0024029971106362177 0 0.0018050010499702164 0 0
          0.004734272055010693 -0.0004974062766186983 0 -0.0021852461258795902 0 0
          -0.0026527449326334287 0.0032367030300101754 0 0.00008548754227775711 0 0
          0.00212867324604968 0.00032795022229166704 0 -0.0018539639234008353 0 0
          -0.001239904149945417 0.0017499459115858274 0 -0.00005774978599300215 0 0
          0.001060744405873992 0.00037621874066431855 0 -0.000693354778506347 0 0
          -0.0003149052947001286 0.0008296902128432185 0 -0.00035066516198401393 0 0
          0.0003454539547612867 0.00011402308661866213 0 -0.000046084552683289306 0 0
          <InformationKey name="L2_NORM_RANGE" location="vtkDataArray" length="2">
            <Value index="0">
              0.00036669263033
            </Value>
            <Value index="1">
              0.22100217712
            </Value>
          </InformationKey>
        </DataArray>
        <DataArray type="Float64" Name="Sld_traction" NumberOfComponents="3" format="ascii" RangeMin="4850.705177826619" RangeMax="327209.1955719859">
          -53717.393603052275 112091.4710358468 0 325144.74253893504 36698.14799353999 0
          -224709.00162551945 -100826.68457973089 0 -15128.773703911042 -993.1419200052187 0
          -53047.7910498146 -17992.748869508006 0 -69364.99554329927 8243.074631027588 0
          -70919.89485378051 31334.779808359133 0 -27231.094968213205 -30679.42423020732 0
          -30073.59613197421 26223.125927538407 0 -8233.843369911487 -22853.954750505574 0
          -11731.594859756833 15823.848159800162 0 2285.739459547671 -13264.522182608129 0
          1328.895787743346 4665.123439686453 0
          <InformationKey name="L2_NORM_RANGE" location="vtkDataArray" length="2">
            <Value index="0">
              4850.7051778
            </Value>
            <Value index="1">
              327209.19557
            </Value>
          </InformationKey>
        </DataArray>
        <DataArray type="Float64" Name="Velocity" NumberOfComponents="3" format="ascii" RangeMin="0" RangeMax="7.104752230353318">
          0 0 0 0 0 0
          0.3821342895294089 -1.1802261488757457 0 -0.5677961213878385 -1.2045585061912445 0
          0.6465140360507659 -3.74234290505634 0 -0.6952203895999023 -3.7975418984437224 0
          0.28473475138372284 -6.185562336820157 0 -0.5379915127270943 -6.230280540330163 0
          -0.11242357593667718 -6.895677518448075 0 -0.09559275846198168 -6.831984690262902 0
          -0.10568010171101674 -6.6163672888542475 0 -0.10438339919847943 -6.562949022521323 0
          0.14688221389116868 -7.103233761460542 0
          <InformationKey name="L2_NORM_RANGE" location="vtkDataArray" length="2">
            <Value index="0">
              0
            </Value>
            <Value index="1">
              7.1047522304
            </Value>
          </InformationKey>
        </DataArray>
        <DataArray type="Float64" Name="Acceleration" NumberOfComponents="3" format="ascii" RangeMin="0" RangeMax="3995.9420376248004">
          0 0 0 0 0 0
          -43.563694279715435 592.8138539237274 0 222.37589522406313 675.8051111535594 0
          182.02902489547182 736.2209850080267 0 105.35568653485143 640.9424227473573 0
          -293.0123934757721 1052.628434300439 0 452.5723796303482 1024.7392675233323 0
          -576.4347601015177 3486.0754272682334 0 485.3692285804134 3734.0368613232167 0
          443.5259345695073 3971.2513787748676 0 -420.7843233106802 3721.9978146521953 0
          384.8040356803317 1334.491055210944 0
          <InformationKey name="L2_NORM_RANGE" location="vtkDataArray" length="2">
            <Value index="0">
              0
            </Value>
            <Value index="1">
              3995.9420376
            </Value>
          </InformationKey>
        </DataArray>
        <DataArray type="Float64" Name="Sigma" NumberOfComponents="6" format="ascii" RangeMin="14591.492164430763" RangeMax="6933679.224692884">
          -6002368.737492161 -1369714.5875495852 0 -3189256.8223284157 0 0
          603022.3779832216 488999.58124195854 0 502312.5088016351 0 0
          1358526.628089382 155772.69940152072 0 508792.9207235174 0 0
          -692158.1449112615 -156989.96676144205 0 -137274.49870317278 0 0
          -109329.3109880996 -135271.24732133915 0 -194168.87031877224 0 0
          -99265.10280052274 -3209.9653567199975 0 137558.1282345226 0 0
          256489.5149656628 88635.4068349993 0 -50404.18574731593 0 0
          -92712.35298110206 72743.14494341552 0 3231.9590248778895 0 0
          95938.14206942263 20035.483307510673 0 -29733.75581464719 0 0
          -28317.0722997536 30026.508310572724 0 12900.605475245142 0 0
          51320.88638000097 25311.811351550954 0 -11102.367785940525 0 0
          -1138.4856273747137 22031.20725837304 0 -5431.3207063895425 0 0
          13057.727290805167 5321.414727785667 0 3753.6577998682988 0 0
          <InformationKey name="L2_NORM_RANGE" location="vtkDataArray" length="2">
            <Value index="0">
              14591.492164
            </Value>
            <Value index="1">
              6933679.2247
            </Value>
          </InformationKey>
        </DataArray>
        <DataArray type="Float64" Name="Press" format="ascii" RangeMin="-34968.760191005844" RangeMax="52046.70741625823">
          52046.70741625823 41636.77672942316 45874.11259884545 22891.487210320338 41391.771974815434 14926.377109856621
          -22720.8106663185 -34968.760191005844 -1805.713785555452 -8763.913692104117 -6806.730042822212 -7732.241981623682
          -2628.4205258549046
        </DataArray>
        <DataArray type="Float64" Name="Dev strain" NumberOfComponents="6" format="ascii" RangeMin="0.000522215070751266" RangeMax="0.22182630563294758">
          -0.16064035753006917 0.05226673821428869 0 -0.1437698629053128 0 0
          -0.017283961598407997 0.01360295738040834 0 -0.004013778272919817 0 0
          0.010799734469942472 -0.004981699420242517 0 0.0035661415347396533 0 0
          -0.005614424522742735 0.0009538761876077479 0 0.003977426300237601 0 0
          -0.0010714083174595329 -0.003426881742733801 0 -0.006304082391729751 0 0
          -0.005879473567112266 0.0020612622526140507 0 0.0018050010499702164 0 0
          0.005141485066828995 -0.00009019326480039642 0 -0.0021852461258795902 0 0
          -0.001900652234323814 0.00398879572831979 0 0.00008548754227775711 0 0
          0.002509111255539839 0.0007083882317818258 0 -0.0018539639234008353 0 0
          -0.0009050548285703885 0.002084795232960856 0 -0.00005774978599300215 0 0
          0.0012936813877662515 0.0006091557225565782 0 -0.000693354778506347 0 0
          -0.00009171027792633595 0.001052885229617011 0 -0.00035066516198401393 0 0
          0.00046486058351428137 0.00023342971537165664 0 -0.000046084552683289306 0 0
          <InformationKey name="L2_NORM_RANGE" location="vtkDataArray" length="2">
            <Value index="0">
              0.00052221507075
            </Value>
            <Value index="1">
              0.22182630563
            </Value>
          </InformationKey>
        </DataArray>
        <DataArray type="Float64" Name="J2 Stresses" format="ascii" RangeMin="102933335.07269418" RangeMax="21495114025776.766">
          21495114025776.766 364457753526.32324 999647425597.9631 256575445613.9306 24550991846.718803 9662491916.641184
          37456698801.27588 6946184155.560234 5023797906.260396 893330297.8841639 1668076228.9763086 250709932.54647785
          102933335.07269418
        </DataArray>
      </PointData>
      <CellData>
        <DataArray type="UInt8" Name="vtkGhostType" format="ascii" RangeMin="0" RangeMax="0">
          0 0 0 0 0 0
          0 0 0 0 0
        </DataArray>
        <DataArray type="Float64" Name="Gauss Stress" NumberOfComponents="6" format="ascii" RangeMin="18069.21124199852" RangeMax="1502104.6343311076">
          459931.07923331024 199394.89680687533 0 291276.9769406598 0 0
          -1300420.7115583431 -195128.23672052636 0 -726050.4642677539 0 0
          -273847.64080163045 -72087.18104816959 0 -64628.413595807455 0 0
          222398.8479913341 -8777.047632426438 0 59116.517233857434 0 0
          7249.621812190067 38468.46422474236 0 30128.63383736151 0 0
          27164.14653179801 -5416.155808235419 0 -35671.642610521856 0 0
          -23543.223626699477 25755.582964277834 0 -4533.730438174717 0 0
          66740.00647036787 40639.58348101523 0 -25635.32751236175 0 0
          -479.18575455911923 18022.213734648903 0 -1211.0276723616425 0 0
          33855.19954306274 19332.48181638419 0 -9311.839375114192 0 0
          15357.578497710208 11832.346929136285 0 -4260.010230820588 0 0
          <InformationKey name="L2_NORM_RANGE" location="vtkDataArray" length="2">
            <Value index="0">
              18069.211242
            </Value>
            <Value index="1">
              1502104.6343
            </Value>
          </InformationKey>
        </DataArray>
        <DataArray type="Float64" Name="Gauss Strain" NumberOfComponents="6" format="ascii" RangeMin="0.0008666863546805359" RangeMax="0.12037461915042844">
          0.025730973630705183 -0.002183617343555694 0 0.031208247529356407 0 0
          -0.08591832808557713 0.032505865647046085 0 -0.07779112117154509 0 0
          -0.01698600359125326 0.004631188525188973 0 -0.0069244728852650836 0 0
          0.01619909798625338 -0.008569747973435248 0 0.006333912560770439 0 0
          -0.0008560435928700789 0.0024888323799033803 0 0.003228067911145876 0 0
          0.0021337303168511234 -0.0013570163624381734 0 -0.0038219617082702 0 0
          -0.002601501079202743 0.002680513912687684 0 -0.0004857568326615769 0 0
          0.003315729623561447 0.0005192557318450934 0 -0.0027466422334673298 0 0
          -0.0006778780444202546 0.0013044147579948904 0 -0.0001297529648958903 0 0
          0.0017277827596336177 0.00017177728891805888 0 -0.0009976970759050922 0 0
          0.000674386073795862 0.0002966826914486561 0 -0.00045642966758792017 0 0
          <InformationKey name="L2_NORM_RANGE" location="vtkDataArray" length="2">
            <Value index="0">
              0.00086668635468
            </Value>
            <Value index="1">
              0.12037461915
            </Value>
          </InformationKey>
        </DataArray>
      </CellData>
      <Points>
        <DataArray type="Float32" Name="Points" NumberOfComponents="3" format="ascii" RangeMin="0" RangeMax="0.6020797527609908">
          0 0.05000000074505806 0 0 0 0
          0.10000000149011612 0.05000000074505806 0 0.10000000149011612 0 0
          0.20000000298023224 0.05000000074505806 0 0.20000000298023224 0 0
          0.30000001192092896 0.05000000074505806 0 0.30000001192092896 0 0
          0.4000000059604645 0.05000000074505806 0 0.4000000059604645 0 0
          0.5 0.05000000074505806 0 0.5 0 0
          0.6000000238418579 0.05000000074505806 0
          <InformationKey name="L2_NORM_RANGE" location="vtkDataArray" length="2">
            <Value index="0">
              0
            </Value>
            <Value index="1">
              0.60207975276
            </Value>
          </InformationKey>
        </DataArray>
      </Points>
      <Cells>
        <DataArray type="Int64" Name="connectivity" format="ascii" RangeMin="0" RangeMax="12">
          3 2 1 2 0 1
          5 4 3 4 2 3
          7 6 5 6 4 5
          9 8 7 8 6 7
          11 10 9 10 8 9
          12 10 11
        </DataArray>
        <DataArray type="Int64" Name="offsets" format="ascii" RangeMin="3" RangeMax="33">
          3 6 9 12 15 18
          21 24 27 30 33
        </DataArray>
        <DataArray type="UInt8" Name="types" format="ascii" RangeMin="5" RangeMax="5">
          5 5 5 5 5 5
          5 5 5 5 5
        </DataArray>
      </Cells>
    </Piece>
  </UnstructuredGrid>
</VTKFile>
