<?xml version="1.0"?>
<VTKFile type="UnstructuredGrid" version="0.1" byte_order="LittleEndian" header_type="UInt32" compressor="vtkZLibDataCompressor">
  <UnstructuredGrid>
    <Piece NumberOfPoints="13" NumberOfCells="11">
      <PointData>
        <DataArray type="Float64" Name="Disp" NumberOfComponents="3" format="ascii" RangeMin="0.001289514621307784" RangeMax="0.02446230753886901">
          -0.00014743397998546104 0.00270052765193669 0 0.0006705971535089614 0.0011014297146310498 0
          -0.0006519966881063997 0.001117139980202908 0 0.0012327326060743494 -0.002652999618536697 0
          -0.0011937288870900137 -0.002675645330577313 0 0.001676939626855451 -0.008503508816862668 0
          -0.0016901697723731715 -0.008517318620592802 0 0.0020689122666302795 -0.016035551942397946 0
          -0.0019899082904886946 -0.016127862328283643 0 0.0020848466982079494 -0.024373303107522767 0
          -0.0020145688716714273 -0.024358630302907955 0 0.0001740612186545299 0.0026591381548828445 0
          0.00016179441785256574 0.002582798660441147 0
          <InformationKey name="L2_NORM_RANGE" location="vtkDataArray" length="2">
            <Value index="0">
              0.0012895146213
            </Value>
            <Value index="1">
              0.024462307539
            </Value>
          </InformationKey>
        </DataArray>
        <DataArray type="Float64" Name="Nodal Stress" NumberOfComponents="6" format="ascii" RangeMin="6735.840546914583" RangeMax="27202.292154237664">
          -22500.64775180179 -10254.26621948767 0 8232.815377890596 0 0
          14844.4046115269 -6871.6237291137995 0 -5398.264178147798 0 0
          -23316.40569948819 -3944.6431402530543 0 8618.668161437197 0 0
          21108.240915269173 1062.8394865094706 0 -8470.952205712216 0 0
          -20127.99088986611 2962.2990493861867 0 6828.5886104083365 0 0
          22190.391946962398 4708.36764145423 0 -9047.105271344732 0 0
          -12965.868773545575 7005.46712710947 0 4495.672437122566 0 0
          22290.84925001288 13322.301127954448 0 -8099.322861437487 0 0
          -3183.3709794114443 13684.11471931828 0 1120.8808271268542 0 0
          18312.76602894015 11589.602203211021 0 -6683.398113852864 0 0
          -1519.9982281612322 6167.931449982805 0 -2240.039037195171 0 0
          7085.034332315943 -11294.85396730237 0 -1149.107239801197 0 0
          -16104.63331126995 -11260.687588872317 0 5525.787015960996 0 0
          <InformationKey name="L2_NORM_RANGE" location="vtkDataArray" length="2">
            <Value index="0">
              6735.8405469
            </Value>
            <Value index="1">
              27202.292154
            </Value>
          </InformationKey>
        </DataArray>
        <DataArray type="Float64" Name="Nodal Strain" NumberOfComponents="6" format="ascii" RangeMin="0.0006408010750295491" RangeMax="0.0019451089211039664">
          -0.001240965331575568 0.00007114697545808726 0 0.0008820873619168495 0 0
          0.0013057297482917 -0.0010209875739198035 0 -0.0005783854476586925 0 0
          -0.0015245774378115475 0.0005509685506779314 0 0.000923428731582557 0 0
          0.0014697729408581742 -0.0006779486407946511 0 -0.0009076020220405944 0 0
          -0.0015435100296113718 0.0009304496067370886 0 0.0007316344939723218 0 0
          0.001416872009016806 -0.0004562020237162119 0 -0.0009693327076440785 0 0
          -0.001176328738364308 0.0009634572509915898 0 0.00048167918969170353 0 0
          0.001116407049002547 0.00015549117878200068 0 -0.0008677845922968737 0 0
          -0.0007161020242193275 0.0010911285863588575 0 0.00012009437433502013 0 0
          0.0008941403519524742 0.00017380137062435365 0 -0.0007160783693413782 0 0
          -0.00032885456808233097 0.0004948521831473873 0 -0.0002400041825566255 0 0
          0.0009094615225690805 -0.001059812223818596 0 -0.00012311863283584254 0 0
          -0.0007481635369166995 -0.00022916935237409606 0 0.0005920486088529639 0 0
          <InformationKey name="L2_NORM_RANGE" location="vtkDataArray" length="2">
            <Value index="0">
              0.00064080107503
            </Value>
            <Value index="1">
              0.0019451089211
            </Value>
          </InformationKey>
        </DataArray>
        <DataArray type="Float64" Name="Sld_traction" NumberOfComponents="3" format="ascii" RangeMin="5557.815350407855" RangeMax="24587.91198869311">
          -19467.26053974779 10496.026535389145 0 -19271.500902554217 -5888.478528033753 0
          -24096.209323842762 4892.659009707452 0 -24513.126648712507 1565.1843590704345 0
          -22596.891887824524 -2357.4894693330925 0 -23694.298173188083 5743.915171116493 0
          -17594.6790733975 -5949.563502137371 0 -19221.618539660325 13794.441031851347 0
          -9531.185469538188 -12204.98166619169 0 -2361.102490525449 5186.422835769802 0
          1492.2968307132264 -5353.724090600154 0 -9411.039979352488 -10893.960895170932 0
          -10616.74257940506 11011.094145700423 0
          <InformationKey name="L2_NORM_RANGE" location="vtkDataArray" length="2">
            <Value index="0">
              5557.8153504
            </Value>
            <Value index="1">
              24587.911989
            </Value>
          </InformationKey>
        </DataArray>
        <DataArray type="Float64" Name="Velocity" NumberOfComponents="3" format="ascii" RangeMin="1.120897397398879" RangeMax="10.548587429497125">
          -0.3847330776823892 1.052801707080976 0 0.6076847885572609 -1.0557737017923288 0
          -0.5889758607977293 -1.1042296895504564 0 0.5549253226775083 -3.4776802616251494 0
          -0.5641342390470894 -3.485505798766095 0 0.52643311774786 -5.578448663841691 0
          -0.5406264749337475 -5.539905354826859 0 0.674216820670939 -7.923052814943541 0
          -0.5882240399513676 -7.928356548037308 0 0.6626274295711987 -10.474828787798456 0
          -0.6461631965335932 -10.528778176084359 0 0.4308316052853076 1.0774247091389006 0
          -0.06449622633826826 2.0745557899407086 0
          <InformationKey name="L2_NORM_RANGE" location="vtkDataArray" length="2">
            <Value index="0">
              1.1208973974
            </Value>
            <Value index="1">
              10.548587429
            </Value>
          </InformationKey>
        </DataArray>
        <DataArray type="Float64" Name="Acceleration" NumberOfComponents="3" format="ascii" RangeMin="550.6638688799604" RangeMax="2533.721487990235">
          -486.4615286257184 -1602.0001254303943 0 -84.28745906807558 -2514.031385981886 0
          -19.502029515288996 -2533.646433413359 0 -517.0679144737342 -1337.2619793561853 0
          304.1112987183049 -1081.6064667545643 0 453.54724237859205 -501.9452375888991 0
          -64.17288722909382 -566.6580465255847 0 221.46305762039788 -2436.830036624304 0
          83.53071780762946 -2289.0638050013745 0 -497.4048251151296 -633.8839313754761 0
          134.04280844598406 -1253.5142360525215 0 360.276166609781 -1513.3343560059382 0
          -426.6017963332168 348.1976505594471 0
          <InformationKey name="L2_NORM_RANGE" location="vtkDataArray" length="2">
            <Value index="0">
              550.66386888
            </Value>
            <Value index="1">
              2533.721488
            </Value>
          </InformationKey>
        </DataArray>
        <DataArray type="Float64" Name="Sigma" NumberOfComponents="6" format="ascii" RangeMin="11226.761516748466" RangeMax="69203.8945535292">
          -58684.955140425336 -12841.557078287547 0 20345.09324952026 0 0
          48105.43969375549 -12759.393166481546 0 -20207.526473914844 0 0
          -64339.262251713495 -3191.9023487783124 0 25287.350863170454 0 0
          62196.84407269527 -971.486612081053 0 -25656.443392160712 0 0
          -58686.39812580912 9113.522195290307 0 23082.759240854502 0 0
          62188.92789877603 3624.3672744853966 0 -24245.45984971733 0 0
          -41366.27086679409 11236.109192835647 0 17962.963500358666 0 0
          53714.57936093044 17681.381363894267 0 -19527.50624809845 0 0
          -22440.25362566613 22997.093745970145 0 10633.461198095827 0 0
          48828.12387879971 19889.8401580742 0 -12974.22639585082 0 0
          3133.6197152914656 10259.94724612416 0 -3309.6954755128463 0 0
          27178.075140211287 -19038.453031424477 0 -9142.456127505215 0 0
          -39787.99755949949 -14876.445383746439 0 10135.839377235245 0 0
          <InformationKey name="L2_NORM_RANGE" location="vtkDataArray" length="2">
            <Value index="0">
              11226.761517
            </Value>
            <Value index="1">
              69203.894554
            </Value>
          </InformationKey>
        </DataArray>
        <DataArray type="Float64" Name="Press" format="ascii" RangeMin="-12061.743623208955" RangeMax="7077.571137279217">
          1387.5140735507239 6136.800354605045 -2295.7686251899077 4091.8685855298017 -5064.749352925316 -92.196201981292
          -7798.592772328844 -466.9566006604647 -5098.551257538111 -9513.064092405422 -12061.743623208955 7077.571137279217
          3204.129164327089
        </DataArray>
        <DataArray type="Float64" Name="Dev strain" NumberOfComponents="6" format="ascii" RangeMin="0.0008744538417001212" RangeMax="0.0019192716881184652">
          -0.0013471027957547646 -0.00003499048872110941 0 0.0008820873619168495 0 0
          0.0011683079246394353 -0.0011584093975720682 0 -0.0005783854476586925 0 0
          -0.001533522351054868 0.0005420236374346109 0 0.000923428731582557 0 0
          0.0014225265726749239 -0.0007251950089779014 0 -0.0009076020220405944 0 0
          -0.0014468329083376407 0.0010271267280108195 0 0.0007316344939723218 0 0
          0.0014842974538903976 -0.0003887765788426205 0 -0.0009693327076440785 0 0
          -0.0010034919441687126 0.001136294045187185 0 0.00048167918969170353 0 0
          0.0012301013584016048 0.00026918548818105853 0 -0.0008677845922968737 0 0
          -0.0005065434369368922 0.0013006871736412928 0 0.00012009437433502013 0 0
          0.0011654709729728642 0.0004451319916447434 0 -0.0007160783693413782 0 0
          0.000016994562242324896 0.0008407013134720431 0 -0.0002400041825566255 0 0
          0.0007218367433464672 -0.0012474370030412095 0 -0.00012311863283584254 0 0
          -0.000896696269114977 -0.00037770208457237373 0 0.0005920486088529639 0 0
          <InformationKey name="L2_NORM_RANGE" location="vtkDataArray" length="2">
            <Value index="0">
              0.0008744538417
            </Value>
            <Value index="1">
              0.0019192716881
            </Value>
          </InformationKey>
        </DataArray>
        <DataArray type="Float64" Name="J2 Stresses" format="ascii" RangeMin="60281566.0418146" RangeMax="2234726982.2687235">
          1907895478.8472443 1340553752.6016939 2234726982.2687235 2099258871.3040977 1896778249.4353247 2087259976.5008261
          999376272.0379562 1694274516.495962 544483276.035433 1431978349.1612744 60281566.0418146 571451357.0892028
          927880498.4954424
        </DataArray>
      </PointData>
      <CellData>
        <DataArray type="UInt8" Name="vtkGhostType" format="ascii" RangeMin="0" RangeMax="1">
          1 1 0 0 0 0
          0 0 0 0 0
        </DataArray>
        <DataArray type="Float64" Name="Gauss Stress" NumberOfComponents="6" format="ascii" RangeMin="9073.079426053864" RangeMax="27438.097418449925">
          -19875.221061518838 -11695.74703943381 0 7112.825499750099 0 0
          10400.148419658817 -10012.505903586194 0 -3001.629783966603 0 0
          -23230.077298472497 -7854.768930193847 0 8474.972546258627 0 0
          -21365.821899137598 560.4946139485071 0 7571.222237288082 0 0
          17965.30727656074 -2996.6272707986564 0 -6858.873000968373 0 0
          -16939.75980702088 3672.820111791966 0 5600.087630498615 0 0
          21544.765625428467 3567.1086294392817 0 -8939.71466700785 0 0
          -7818.681920685736 12850.161224057549 0 3022.9728167853496 0 0
          22059.830272647265 8061.3707520815715 0 -8603.334199152374 0 0
          949.3769984241881 8824.507392338672 0 -1883.48689108928 0 0
          21674.625887820017 15163.247772444869 0 -7289.42381528448 0 0
          <InformationKey name="L2_NORM_RANGE" location="vtkDataArray" length="2">
            <Value index="0">
              9073.0794261
            </Value>
            <Value index="1">
              27438.097418
            </Value>
          </InformationKey>
        </DataArray>
        <DataArray type="Float64" Name="Gauss Strain" NumberOfComponents="6" format="ascii" RangeMin="0.0006764738898186009" RangeMax="0.0019218721535448353">
          -0.0010019533958429956 -0.00012558117919102797 0 0.0007620884464017963 0 0
          0.0011004572408179944 -0.0010866128652439718 0 -0.0003216031911392786 0 0
          -0.0013787637738125415 0.00026859069421731425 0 0.0009080327728134244 0 0
          -0.001546147800436561 0.0008031003973940932 0 0.0008112023825665803 0 0
          0.0013902586365685766 -0.0008556629220770734 0 -0.0007348792501037541 0 0
          -0.0013411549902083472 0.0008673357153787432 0 0.0006000093889819945 0 0
          0.0014115150936220597 -0.0005146624416624962 0 -0.0009578265714651267 0 0
          -0.0010174116094796078 0.001197107298885744 0 0.00032388994465557317 0 0
          0.0012877960640433207 -0.00021203888458871869 0 -0.0009217858070520399 0 0
          -0.00024734833555322474 0.000596415635223327 0 -0.0002018021669024227 0 0
          0.001006643000114113 0.0003089953448953476 0 -0.0007810096944947658 0 0
          <InformationKey name="L2_NORM_RANGE" location="vtkDataArray" length="2">
            <Value index="0">
              0.00067647388982
            </Value>
            <Value index="1">
              0.0019218721535
            </Value>
          </InformationKey>
        </DataArray>
      </CellData>
      <Points>
        <DataArray type="Float32" Name="Points" NumberOfComponents="3" format="ascii" RangeMin="0.4000000059604645" RangeMax="1.0012492197622458">
          0.5 0 0 0.6000000238418579 0.05000000074505806 0
          0.6000000238418579 0 0 0.699999988079071 0.05000000074505806 0
          0.699999988079071 0 0 0.800000011920929 0.05000000074505806 0
          0.800000011920929 0 0 0.8999999761581421 0.05000000074505806 0
          0.8999999761581421 0 0 1 0.05000000074505806 0
          1 0 0 0.5 0.05000000074505806 0
          0.4000000059604645 0 0
          <InformationKey name="L2_NORM_RANGE" location="vtkDataArray" length="2">
            <Value index="0">
              0.40000000596
            </Value>
            <Value index="1">
              1.0012492198
            </Value>
          </InformationKey>
        </DataArray>
      </Points>
      <Cells>
        <DataArray type="Int64" Name="connectivity" format="ascii" RangeMin="0" RangeMax="12">
          0 11 12 1 11 0
          2 1 0 4 3 2
          3 1 2 6 5 4
          5 3 4 8 7 6
          7 5 6 10 9 8
          9 7 8
        </DataArray>
        <DataArray type="Int64" Name="offsets" format="ascii" RangeMin="3" RangeMax="33">
          3 6 9 12 15 18
          21 24 27 30 33
        </DataArray>
        <DataArray type="UInt8" Name="types" format="ascii" RangeMin="5" RangeMax="5">
          5 5 5 5 5 5
          5 5 5 5 5
        </DataArray>
      </Cells>
    </Piece>
  </UnstructuredGrid>
</VTKFile>
