<?xml version="1.0"?>
<VTKFile type="UnstructuredGrid" version="0.1" byte_order="LittleEndian" header_type="UInt32" compressor="vtkZLibDataCompressor">
  <UnstructuredGrid>
    <Piece NumberOfPoints="13" NumberOfCells="11">
      <PointData>
        <DataArray type="Float64" Name="Disp" NumberOfComponents="3" format="ascii" RangeMin="0.024199176142074487" RangeMax="0.11815641432148286">
          -0.004031938596939574 -0.038381569007335505 0 0.004039049436781328 -0.054665543452437036 0
          -0.004338128472451572 -0.054748133027380096 0 0.003975909830628907 -0.0715130807717166 0
          -0.0042974422333761095 -0.07155607302870175 0 0.0037571021918664494 -0.0876574566366389 0
          -0.004074420836943886 -0.08765019412006185 0 0.003630819228344074 -0.10297809722515479 0
          -0.003938888526542469 -0.10294648383536555 0 0.0036451262792152467 -0.11809427501573813 0
          -0.003936918181858944 -0.11809080794261366 0 0.0037250599867671313 -0.03830846813976653 0
          -0.0033809740423073743 -0.023961826735046533 0
          <InformationKey name="L2_NORM_RANGE" location="vtkDataArray" length="2">
            <Value index="0">
              0.024199176142
            </Value>
            <Value index="1">
              0.11815641432
            </Value>
          </InformationKey>
        </DataArray>
        <DataArray type="Float64" Name="Nodal Stress" NumberOfComponents="6" format="ascii" RangeMin="3459.77325906858" RangeMax="40886.58971203627">
          -11703.792791264952 16921.935481731558 0 3028.980510480065 0 0
          25580.241104058066 19362.56137942498 0 -10980.837538215226 0 0
          902.3683328169019 18885.00783002801 0 -2052.4771745110233 0 0
          12713.13257508828 15342.856098404318 0 -4325.053838322915 0 0
          6043.474886430512 11125.666787079343 0 -4387.657933456227 0 0
          341.86926332399776 3446.3703814257246 0 2075.4495277132783 0 0
          3590.2457006242253 -1058.8784510525468 0 -2535.8995736243514 0 0
          -6422.89942734972 -5600.442079789411 0 3554.3754277816934 0 0
          256.49292205528894 -6117.782674822711 0 78.12610508768697 0 0
          -5844.9459334520325 -5027.861687166078 0 1500.9438153086778 0 0
          974.8846434408757 -3281.1467337089625 0 503.6934067666413 0 0
          35330.80090622384 14785.2251389965 0 -14312.401726976119 0 0
          -26172.42666675167 10344.83841190443 0 8463.52575895763 0 0
          <InformationKey name="L2_NORM_RANGE" location="vtkDataArray" length="2">
            <Value index="0">
              3459.7732591
            </Value>
            <Value index="1">
              40886.589712
            </Value>
          </InformationKey>
        </DataArray>
        <DataArray type="Float64" Name="Nodal Strain" NumberOfComponents="6" format="ascii" RangeMin="0.0003241723838366371" RangeMax="0.0029387314199507933">
          -0.001440340038009338 0.0016267022769545741 0 0.000324533626122864 0 0
          0.001135640029596113 0.0004694600590997108 0 -0.0011765183076659171 0 0
          -0.0006100096844426502 0.0013167016902585398 0 -0.00021990826869760965 0 0
          0.0003601217518490089 0.00064187784363287 0 -0.00046339862553459803 0 0
          0.00003433153520648865 0.000578852095990292 0 -0.00047010620715602435 0 0
          -0.00009866542338491891 0.00023395969641169472 0 0.00022236959225499406 0 0
          0.00029426320901074996 -0.00020385723581176142 0 -0.0002717035257454662 0 0
          -0.0002587627419610726 -0.00017064231186532508 0 0.0003808259386908958 0 0
          0.00023681316139047455 -0.0004461449382750254 0 0.000008370654116537892 0 0
          -0.00023792964927635672 -0.00015038490860286167 0 0.00016081540878307266 0 0
          0.00018681842930681124 -0.0002691849325306715 0 0.000053967150724997276 0 0
          0.0019955848811946853 -0.00020572680815110115 0 -0.0015334716136045845 0 0
          -0.002238917562335992 0.001673646553234305 0 0.000906806331316889 0 0
          <InformationKey name="L2_NORM_RANGE" location="vtkDataArray" length="2">
            <Value index="0">
              0.00032417238384
            </Value>
            <Value index="1">
              0.00293873142
            </Value>
          </InformationKey>
        </DataArray>
        <DataArray type="Float64" Name="Sld_traction" NumberOfComponents="3" format="ascii" RangeMin="2540.250808509924" RangeMax="37951.578763984704">
          -19227.25871813966 -15856.713116333247 0 -21928.728490875856 19379.629324012276 0
          -3847.1854758813747 -18677.696993746853 0 -5113.7478570696585 14181.784248741182 0
          7362.591119577378 -12129.544953524604 0 7230.820193098617 2275.893597933667 0
          8183.8003943955955 -287.2706463415084 0 7883.849127047693 -5614.985947439796 0
          2670.2054000735598 5630.243516468498 0 382.5325855114542 -3020.7688612470315 0
          -506.38969385959336 2489.265684511822 0 -34584.38102203713 15628.273097226464 0
          -30869.422493840386 -10001.395803493542 0
          <InformationKey name="L2_NORM_RANGE" location="vtkDataArray" length="2">
            <Value index="0">
              2540.2508085
            </Value>
            <Value index="1">
              37951.578764
            </Value>
          </InformationKey>
        </DataArray>
        <DataArray type="Float64" Name="Velocity" NumberOfComponents="3" format="ascii" RangeMin="8.067403811297018" RangeMax="12.030154472692418">
          -0.5603769494732185 -10.710747388794546 0 0.0642399699823416 -12.029982953566394 0
          -0.14203021770009794 -12.023180285445148 0 -0.30206561837246104 -11.580740690212197 0
          0.19987359755662543 -11.509728627134646 0 -0.26849345858979695 -10.391078654518275 0
          0.27098587778745165 -10.358317667461481 0 -0.24694184832698596 -9.432084588922743 0
          0.20159483446817594 -9.41407197901623 0 -0.23711596048768402 -8.4898659264786 0
          0.1855195564701828 -8.558741726267977 0 0.4947829686008991 -10.662792992476245 0
          -0.7807019930021786 -8.02953975347604 0
          <InformationKey name="L2_NORM_RANGE" location="vtkDataArray" length="2">
            <Value index="0">
              8.0674038113
            </Value>
            <Value index="1">
              12.030154473
            </Value>
          </InformationKey>
        </DataArray>
        <DataArray type="Float64" Name="Acceleration" NumberOfComponents="3" format="ascii" RangeMin="1064.3446449622122" RangeMax="4504.693177398426">
          166.85328856215585 -2108.4903781895646 0 -1203.5745480172993 978.9731728122943 0
          975.5010477989711 1429.001767355754 0 -39.46757037846021 4504.520277830742 0
          301.8582555495446 4447.859424664145 0 1019.7443236124197 2742.087279641552 0
          -743.695804350214 2882.688281710778 0 610.4586913649628 -1566.5355592624674 0
          -629.9544187661284 -857.8968198663329 0 371.0741755898282 -1463.533380930141 0
          -1252.2872433441053 -3942.6745386204793 0 -272.081964879093 -1968.1561408037533 0
          -312.42424878938056 -1433.7126964589515 0
          <InformationKey name="L2_NORM_RANGE" location="vtkDataArray" length="2">
            <Value index="0">
              1064.344645
            </Value>
            <Value index="1">
              4504.6931774
            </Value>
          </InformationKey>
        </DataArray>
        <DataArray type="Float64" Name="Sigma" NumberOfComponents="6" format="ascii" RangeMin="4037.386505889817" RangeMax="101645.59092328892">
          -42132.957814647874 29106.171962368102 0 19358.58875656949 0 0
          61358.43827604834 26000.43638964157 0 -22768.96604522336 0 0
          -6307.85408054712 30082.73747850395 0 3311.5375319900904 0 0
          25480.10339751418 21512.440049615696 0 -4398.990961476995 0 0
          13279.790589514902 18140.115893336297 0 -9521.626029241605 0 0
          -3884.7497381128996 4334.0807897322875 0 9682.442748713362 0 0
          11807.850125733577 -1260.7248083532795 0 -9400.580132487932 0 0
          -16497.062313679504 -8171.869455100497 0 9054.141125215252 0 0
          5024.578273344519 -10301.834018925398 0 -1978.8558071802336 0 0
          -15073.382674368408 -6583.907730250359 0 1404.0875127117833 0 0
          1638.0320457241028 -3455.5620344996387 0 1294.7709607675074 0 0
          93042.12927555291 19286.204574160867 0 -36097.51580288472 0 0
          -79381.7603571503 18529.461873258522 0 34617.6597505699 0 0
          <InformationKey name="L2_NORM_RANGE" location="vtkDataArray" length="2">
            <Value index="0">
              4037.3865059
            </Value>
            <Value index="1">
              101645.59092
            </Value>
          </InformationKey>
        </DataArray>
        <DataArray type="Float64" Name="Press" format="ascii" RangeMin="-12693.258498175963" RangeMax="2898.4909541495545">
          -12693.258498175963 -4975.160820218373 -9484.44620760622 -5859.050891009127 -4880.012478638237 -2882.2075011346587
          399.2895998109334 366.3487297054065 2211.0953164457605 2664.2016585943147 2898.4909541495545 -2762.9200663865913
          -9639.12830292532
        </DataArray>
        <DataArray type="Float64" Name="Dev strain" NumberOfComponents="6" format="ascii" RangeMin="0.00037964575979041067" RangeMax="0.0029117345771730806">
          -0.001110699302078394 0.0019563430128855183 0 0.000324533626122864 0 0
          0.0013821529620076317 0.0007159729915112297 0 -0.0011765183076659171 0 0
          -0.00032385381645185695 0.0016028575582493335 0 -0.00021990826869760965 0 0
          0.0005736354156582253 0.0008553915074420862 0 -0.00046339862553459803 0 0
          0.00020054507170622765 0.0007450656324900309 0 -0.00047010620715602435 0 0
          -0.0000041791349153763275 0.0003284459848812373 0 0.00022236959225499406 0 0
          0.0003100515932553493 -0.000188068851567162 0 -0.0002717035257454662 0 0
          -0.00028019386210454127 -0.0001920734320087938 0 0.0003808259386908958 0 0
          0.00016947550297013382 -0.0005134825966953662 0 0.000008370654116537892 0 0
          -0.0003198217785224448 -0.00023227703784894978 0 0.00016081540878307266 0 0
          0.00009153022499128277 -0.00036447313684619993 0 0.000053967150724997276 0 0
          0.0021800116385101097 -0.0000213000508356764 0 -0.0015334716136045845 0 0
          -0.0019864610750381507 0.001926103040532146 0 0.000906806331316889 0 0
          <InformationKey name="L2_NORM_RANGE" location="vtkDataArray" length="2">
            <Value index="0">
              0.00037964575979
            </Value>
            <Value index="1">
              0.0029117345772
            </Value>
          </InformationKey>
        </DataArray>
        <DataArray type="Float64" Name="J2 Stresses" format="ascii" RangeMin="7731136.938758891" RangeMax="4840155415.287421">
          1404866429.918415 2350046773.75585 475121628.85747534 560848153.3879507 275373661.92270315 40375192.80537533
          92600102.52392365 189960625.56514305 66666053.065629944 135770218.56003836 7731136.938758891 4840155415.287421
          3621998009.0078473
        </DataArray>
      </PointData>
      <CellData>
        <DataArray type="UInt8" Name="vtkGhostType" format="ascii" RangeMin="0" RangeMax="1">
          1 1 0 0 0 0
          0 0 0 0 0
        </DataArray>
        <DataArray type="Float64" Name="Gauss Stress" NumberOfComponents="6" format="ascii" RangeMin="4201.409918789639" RangeMax="37869.094399123955">
          -17855.965254577713 13942.177180766535 0 5959.577568084892 0 0
          30612.090117390824 17987.157847129874 0 -13169.297697179532 0 0
          -4745.079715049073 19345.493434837692 0 -32.946585554594094 0 0
          4076.17677640946 16503.927948067452 0 -3536.3598195761697 0 0
          20070.67655806056 19092.318666309166 0 -7952.139824903422 0 0
          4613.320199057873 4616.84716491778 0 -3079.921137672059 0 0
          7084.624459378049 10121.788620634083 0 -1412.7247473350778 0 0
          1104.0332437868997 -5585.898212139025 0 -775.0982714843049 0 0
          -3563.5103658923836 -2405.0275484466038 0 3112.0012471468954 0 0
          -212.32814203671842 -4189.171951495255 0 240.00088876635277 0 0
          -7101.407003319303 -6605.321833176924 0 2826.4576102489336 0 0
          <InformationKey name="L2_NORM_RANGE" location="vtkDataArray" length="2">
            <Value index="0">
              4201.4099188
            </Value>
            <Value index="1">
              37869.094399
            </Value>
          </InformationKey>
        </DataArray>
        <DataArray type="Float64" Name="Gauss Strain" NumberOfComponents="6" format="ascii" RangeMin="0.0003221693754089416" RangeMax="0.0024942168651970343">
          -0.0017733609889257844 0.0016335828434325284 0 0.0006385261680090955 0 0
          0.0015441793709875633 0.00019150805631674745 0 -0.0014109961818406641 0 0
          -0.0010298447451762797 0.0015512880923115877 0 -0.0000035299913094207803 0 0
          -0.00029827051411601896 0.0010332742542759087 0 -0.0003788956949545897 0 0
          0.0007517512303504269 0.0006469271705199205 0 -0.0008520149812396523 0 0
          0.00016463547261421314 0.00016501336181348893 0 -0.0003299915504648635 0 0
          0.00014455215350435777 0.0004699625993532185 0 -0.00015136336578590125 0 0
          0.00027835588213260084 -0.0004384224881451768 0 -0.00008304624337331838 0 0
          -0.00016864261369064874 -0.000044519454678600866 0 0.00033342870505145307 0 0
          0.0001344469881222078 -0.000291643420034064 0 0.000025714380939252085 0 0
          -0.0002713390061950603 -0.00021818702367980524 0 0.00030283474395524293 0 0
          <InformationKey name="L2_NORM_RANGE" location="vtkDataArray" length="2">
            <Value index="0">
              0.00032216937541
            </Value>
            <Value index="1">
              0.0024942168652
            </Value>
          </InformationKey>
        </DataArray>
      </CellData>
      <Points>
        <DataArray type="Float32" Name="Points" NumberOfComponents="3" format="ascii" RangeMin="0.4000000059604645" RangeMax="1.0012492197622458">
          0.5 0 0 0.6000000238418579 0.05000000074505806 0
          0.6000000238418579 0 0 0.699999988079071 0.05000000074505806 0
          0.699999988079071 0 0 0.800000011920929 0.05000000074505806 0
          0.800000011920929 0 0 0.8999999761581421 0.05000000074505806 0
          0.8999999761581421 0 0 1 0.05000000074505806 0
          1 0 0 0.5 0.05000000074505806 0
          0.4000000059604645 0 0
          <InformationKey name="L2_NORM_RANGE" location="vtkDataArray" length="2">
            <Value index="0">
              0.40000000596
            </Value>
            <Value index="1">
              1.0012492198
            </Value>
          </InformationKey>
        </DataArray>
      </Points>
      <Cells>
        <DataArray type="Int64" Name="connectivity" format="ascii" RangeMin="0" RangeMax="12">
          0 11 12 1 11 0
          2 1 0 4 3 2
          3 1 2 6 5 4
          5 3 4 8 7 6
          7 5 6 10 9 8
          9 7 8
        </DataArray>
        <DataArray type="Int64" Name="offsets" format="ascii" RangeMin="3" RangeMax="33">
          3 6 9 12 15 18
          21 24 27 30 33
        </DataArray>
        <DataArray type="UInt8" Name="types" format="ascii" RangeMin="5" RangeMax="5">
          5 5 5 5 5 5
          5 5 5 5 5
        </DataArray>
      </Cells>
    </Piece>
  </UnstructuredGrid>
</VTKFile>
