<?xml version="1.0"?>
<VTKFile type="UnstructuredGrid" version="0.1" byte_order="LittleEndian" header_type="UInt32" compressor="vtkZLibDataCompressor">
  <UnstructuredGrid>
    <Piece NumberOfPoints="13" NumberOfCells="11">
      <PointData>
        <DataArray type="Float64" Name="Disp" NumberOfComponents="3" format="ascii" RangeMin="0.04538762911041149" RangeMax="0.1501535733401069">
          -0.004824562584574703 -0.06268508059286139 0 0.004056616849134465 -0.08045359032536711 0
          -0.004836038781291842 -0.08048020228343758 0 0.004001899231799799 -0.09818024899959293 0
          -0.004789515688705766 -0.09818337971149027 0 0.0039452060189871735 -0.11563658692750027 0
          -0.0047243822195869 -0.11563490682866889 0 0.003909682208760949 -0.13288919381531367 0
          -0.0046903184754573625 -0.13287883770801767 0 0.003911759559295863 -0.15007783695244714 0
          -0.004691963441464112 -0.15008024875334805 0 0.00402500267423416 -0.06265809213219055 0
          -0.004679276974760912 -0.04514577769025299 0
          <InformationKey name="L2_NORM_RANGE" location="vtkDataArray" length="2">
            <Value index="0">
              0.04538762911
            </Value>
            <Value index="1">
              0.15015357334
            </Value>
          </InformationKey>
        </DataArray>
        <DataArray type="Float64" Name="Nodal Stress" NumberOfComponents="6" format="ascii" RangeMin="735.9226480875284" RangeMax="20275.379720255685">
          -3447.895347678532 7996.446187854721 0 -965.6957645536141 0 0
          6922.52274664018 5619.301869558126 0 -2387.0212861831983 0 0
          111.42972749703334 4343.389715801138 0 -1122.3517808522497 0 0
          1444.1560589289202 2963.866338280502 0 -349.5583749847966 0 0
          1679.3841415683357 1802.1528729445351 0 -1178.160953986011 0 0
          -1008.764071451857 -15.573387783891759 0 934.807952831976 0 0
          952.1348322646551 -939.7753974916096 0 -557.8761949141657 0 0
          -2256.4512301332234 -1764.3574906714678 0 913.7481003462301 0 0
          72.250760591185 -1707.0926642561071 0 -1.857404832230847 0 0
          -1764.7593087246744 -1284.3508819077385 0 540.8942218431399 0 0
          45.24909374938892 -705.42329112429 0 204.72577713222714 0 0
          17201.15430519968 9575.183715786754 0 -4850.481437774821 0 0
          -12111.756875440497 12106.284584789477 0 310.82624453118336 0 0
          <InformationKey name="L2_NORM_RANGE" location="vtkDataArray" length="2">
            <Value index="0">
              735.92264809
            </Value>
            <Value index="1">
              20275.37972
            </Value>
          </InformationKey>
        </DataArray>
        <DataArray type="Float64" Name="Nodal Strain" NumberOfComponents="6" format="ascii" RangeMin="0.00006319430083806662" RangeMax="0.0018350959305695207">
          -0.0005318656029718494 0.0006943138472638563 0 -0.00010346740334503011 0 0
          0.0002937765579900798 0.0001541457497312884 0 -0.00025575228066248553 0 0
          -0.00014716179502882398 0.00030626248943233013 0 -0.0001202519765198839 0 0
          -0.0000026983650150950347 0.00016012773634400306 0 -0.00003745268303408535 0 0
          0.000055593407506862016 0.00006874720015431199 0 -0.00012623153078421544 0 0
          -0.00007149838411142223 0.000034914903424431196 0 0.00010015799494628313 0 0
          0.00010157303792931859 -0.00010113162954456694 0 -0.000059772449455089164 0 0
          -0.00009816232034267784 -0.00004543799111463261 0 0.00009790158217995324 0 0
          0.00006612836376565989 -0.0001245155746108357 0 -1.9900766059615914e-7 0 0
          -0.00008018456198362899 -0.000028712230538957244 0 0.000057952952340336416 0 0
          0.00002842576709368099 -0.00005200341699992746 0 0.000021934904692738618 0 0
          0.0008866830319504507 0.00006961475451335098 0 -0.000519694439761588 0 0
          -0.0012974927977025168 0.0012972973587506945 0 0.00003330281191405542 0 0
          <InformationKey name="L2_NORM_RANGE" location="vtkDataArray" length="2">
            <Value index="0">
              6.3194300838e-05
            </Value>
            <Value index="1">
              0.0018350959306
            </Value>
          </InformationKey>
        </DataArray>
        <DataArray type="Float64" Name="Sld_traction" NumberOfComponents="3" format="ascii" RangeMin="631.9900508195101" RangeMax="16327.395535674872">
          -2334.3429913281007 -7866.805596375952 0 -3657.836225872139 5464.059715896848 0
          1100.7514889536762 -4680.920921814569 0 464.63847175203284 2709.951301175246 0
          2609.9662332630787 -2043.9626866000617 0 2590.547173212636 -255.14706998509544 0
          2135.565984818111 629.8538836198996 0 2089.9859985132057 -1732.8558942780614 0
          760.7504782297484 1616.9162189103695 0 118.17732279078733 -696.7489805081722 0
          -246.10060992276541 582.1047278029013 0 -10481.05403625287 9442.752431662146 0
          -6023.856876164039 -15175.53930883074 0
          <InformationKey name="L2_NORM_RANGE" location="vtkDataArray" length="2">
            <Value index="0">
              631.99005082
            </Value>
            <Value index="1">
              16327.395536
            </Value>
          </InformationKey>
        </DataArray>
        <DataArray type="Float64" Name="Velocity" NumberOfComponents="3" format="ascii" RangeMin="3.247855969651173" RangeMax="11.387879126071041">
          -0.4451626846648012 -4.581437229477828 0 0.26019753491689923 -6.028667613146416 0
          -0.4671709694661048 -6.021524168945247 0 0.3132566787843576 -7.5504199929409035 0
          -0.4995534438209694 -7.563176124603331 0 0.2915538848112692 -9.217670399322218 0
          -0.48940459486037846 -9.272359854592878 0 0.102181766841521 -10.514087978808407 0
          -0.3893032514125092 -10.503086838615086 0 0.05776792761761862 -11.387732603839243 0
          -0.3517192792435991 -11.342322050667674 0 0.2851636925896087 -4.554856373543494 0
          -0.34952686483187656 -3.2289935537810477 0
          <InformationKey name="L2_NORM_RANGE" location="vtkDataArray" length="2">
            <Value index="0">
              3.2478559697
            </Value>
            <Value index="1">
              11.387879126
            </Value>
          </InformationKey>
        </DataArray>
        <DataArray type="Float64" Name="Acceleration" NumberOfComponents="3" format="ascii" RangeMin="267.12015381847624" RangeMax="3611.2221693287956">
          -260.77424762196335 241.0257714347954 0 -158.1733936288706 814.6412414173092 0
          290.55598794818854 930.0740435760472 0 326.9411542643724 1049.8289599038262 0
          134.03086353171602 1085.4442344515473 0 42.86253485988135 364.67173598219733 0
          -184.10370788288833 -236.22013549002622 0 70.75340888635992 796.072677661241 0
          -222.31367528705027 -148.08715797249397 0 -76.1938190153877 -2266.9953461305886 0
          648.492691782151 889.594190904595 0 338.16165403174364 151.77045184663893 0
          -993.2374413202032 3471.9454116404922 0
          <InformationKey name="L2_NORM_RANGE" location="vtkDataArray" length="2">
            <Value index="0">
              267.12015382
            </Value>
            <Value index="1">
              3611.2221693
            </Value>
          </InformationKey>
        </DataArray>
        <DataArray type="Float64" Name="Sigma" NumberOfComponents="6" format="ascii" RangeMin="811.079920591707" RangeMax="47174.06382836025">
          -9776.764186410393 15581.498198302023 0 739.0666480119035 0 0
          16539.13429745497 7082.8709429856135 0 -3022.1922050523826 0 0
          -0.02653803460270865 6918.460002824542 0 -1065.4934824422926 0 0
          2188.721819569313 4614.83818990364 0 655.829469242206 0 0
          5084.069397366926 3058.7015954189537 0 -3081.601651964791 0 0
          -3482.996668873573 -133.14566201354137 0 3186.7051585957524 0 0
          3369.7385132208583 -1475.2511938247699 0 -2267.897309277012 0 0
          -5415.783196582663 -2282.002386074395 0 2140.6329356505994 0 0
          1815.5184771393779 -2759.3618704506553 0 -660.2050198358256 0 0
          -4201.804218858862 -1609.4751059561113 0 790.6790898810868 0 0
          -197.33790981671427 -707.4070622204308 0 344.2145192418236 0 0
          42772.72022050618 16892.035600860236 0 -10514.078004265511 0 0
          -33033.4743057133 15904.45921978269 0 12115.284838363286 0 0
          <InformationKey name="L2_NORM_RANGE" location="vtkDataArray" length="2">
            <Value index="0">
              811.07992059
            </Value>
            <Value index="1">
              47174.063828
            </Value>
          </InformationKey>
        </DataArray>
        <DataArray type="Float64" Name="Press" format="ascii" RangeMin="-7203.959249347396" RangeMax="885.1617170467025">
          -7203.959249347396 -2512.1527770937096 -2543.085048012861 -1543.3557812441047 -852.2148327328914 -463.79433146502834
          537.7053078692124 67.39753141856283 523.9353498674227 667.6991523896404 885.1617170467025 -5462.032377706292
          -6589.156392157169
        </DataArray>
        <DataArray type="Float64" Name="Dev strain" NumberOfComponents="6" format="ascii" RangeMin="0.0000814823824855431" RangeMax="0.0018846442628337435">
          -0.0003285787956925208 0.000897600654543185 0 -0.00010346740334503011 0 0
          0.00041750391934791665 0.00027787311108912524 0 -0.00025575228066248553 0 0
          -0.00005363292155610641 0.0003997913629050476 0 -0.0001202519765198839 0 0
          0.000053928663429889715 0.00021675476478898777 0 -0.00003745268303408535 0 0
          0.00008872724370316936 0.0001018810363506193 0 -0.00012623153078421544 0 0
          -0.00005695152908659166 0.00004946175844926176 0 0.00010015799494628313 0 0
          0.00009530768446426835 -0.00010739698300961717 0 -0.000059772449455089164 0 0
          -0.0001062919969049078 -0.00005356766767686254 0 0.00009790158217995324 0 0
          0.00004816207658787162 -0.00014248186178862396 0 -1.9900766059615914e-7 0 0
          -0.00010103825197362307 -0.00004956592052895133 0 0.000057952952340336416 0 0
          0.0000019797140905517996 -0.00007844947000305666 0 0.000021934904692738618 0 0
          0.0010796670043327844 0.00026259872689568493 0 -0.000519694439761588 0 0
          -0.000993827176318713 0.0016009629801344986 0 0.00003330281191405542 0 0
          <InformationKey name="L2_NORM_RANGE" location="vtkDataArray" length="2">
            <Value index="0">
              8.1482382486e-05
            </Value>
            <Value index="1">
              0.0018846442628
            </Value>
          </InformationKey>
        </DataArray>
        <DataArray type="Float64" Name="J2 Stresses" format="ascii" RangeMin="299304.40997930506" RangeMax="1085059689.9711587">
          169320656.90773395 164138423.48319045 24216363.495975368 13151145.434407584 19975775.728878707 8613269.22330391
          8051591.417539142 18414698.602516204 5564060.303519818 10279077.760950083 299304.40997930506 1085059689.9711587
          708776155.5686445
        </DataArray>
      </PointData>
      <CellData>
        <DataArray type="UInt8" Name="vtkGhostType" format="ascii" RangeMin="0" RangeMax="1">
          1 1 0 0 0 0
          0 0 0 0 0
        </DataArray>
        <DataArray type="Float64" Name="Gauss Stress" NumberOfComponents="6" format="ascii" RangeMin="1026.2602292740573" RangeMax="14676.01115030673">
          -6430.888763609459 9707.614999911364 0 780.0911607032263 0 0
          11452.315309134452 8126.086779333489 0 -4265.7345204353305 0 0
          -1832.2845004813298 5774.544023219403 0 -1116.2063464942573 0 0
          778.0363389705933 3217.781375385759 0 -1163.7552217216262 0 0
          4043.0786575463335 4005.858509787706 0 -1143.952072750823 0 0
          1397.5024617951685 224.00029441731158 0 -720.9312675486838 0 0
          310.1432008735462 1560.343059289009 0 253.64432529105648 0 0
          299.503994310924 -1795.859087064874 0 -262.489797820746 0 0
          -1795.9109481375447 -1249.69691136332 0 1019.8135949897801 0 0
          -168.94247741081074 -999.8159397744769 0 158.2295297623616 0 0
          -2181.012301542174 -1797.2691096018448 0 757.0356685652869 0 0
          <InformationKey name="L2_NORM_RANGE" location="vtkDataArray" length="2">
            <Value index="0">
              1026.2602293
            </Value>
            <Value index="1">
              14676.01115
            </Value>
          </InformationKey>
        </DataArray>
        <DataArray type="Float64" Name="Gauss Strain" NumberOfComponents="6" format="ascii" RangeMin="0.00007156153314774126" RangeMax="0.0012283202682165056">
          -0.0008060497331117955 0.0009230756701225781 0 0.00008358119578963141 0 0
          0.0005278051371048364 0.0001714235089118761 0 -0.0004570429843323568 0 0
          -0.00033711117943507364 0.00047790616239000493 0 -0.00011959353712438469 0 0
          -0.000059346739194449 0.00020205451470717587 0 -0.00012468805947017425 0 0
          0.00014572495733232004 0.00014173708435818143 0 -0.00012256629350901674 0 0
          0.00009182159389903663 -0.00003391078117716233 0 -0.00007724263580878753 0 0
          -0.000033573452055068426 0.0001003765327751597 0 0.00002717617770975602 0 0
          0.00008553096698881152 -0.0001389722203014526 0 -0.000028123906909365655 0 0
          -0.00008364732088970602 -0.000025124388378181996 0 0.0001092657423203336 0 0
          0.000023640392319744824 -0.00006538176436207655 0 0.00001695316390311018 0 0
          -0.00009159841048151797 -0.00005048306848791132 0 0.00008111096448913788 0 0
          <InformationKey name="L2_NORM_RANGE" location="vtkDataArray" length="2">
            <Value index="0">
              7.1561533148e-05
            </Value>
            <Value index="1">
              0.0012283202682
            </Value>
          </InformationKey>
        </DataArray>
      </CellData>
      <Points>
        <DataArray type="Float32" Name="Points" NumberOfComponents="3" format="ascii" RangeMin="0.4000000059604645" RangeMax="1.0012492197622458">
          0.5 0 0 0.6000000238418579 0.05000000074505806 0
          0.6000000238418579 0 0 0.699999988079071 0.05000000074505806 0
          0.699999988079071 0 0 0.800000011920929 0.05000000074505806 0
          0.800000011920929 0 0 0.8999999761581421 0.05000000074505806 0
          0.8999999761581421 0 0 1 0.05000000074505806 0
          1 0 0 0.5 0.05000000074505806 0
          0.4000000059604645 0 0
          <InformationKey name="L2_NORM_RANGE" location="vtkDataArray" length="2">
            <Value index="0">
              0.40000000596
            </Value>
            <Value index="1">
              1.0012492198
            </Value>
          </InformationKey>
        </DataArray>
      </Points>
      <Cells>
        <DataArray type="Int64" Name="connectivity" format="ascii" RangeMin="0" RangeMax="12">
          0 11 12 1 11 0
          2 1 0 4 3 2
          3 1 2 6 5 4
          5 3 4 8 7 6
          7 5 6 10 9 8
          9 7 8
        </DataArray>
        <DataArray type="Int64" Name="offsets" format="ascii" RangeMin="3" RangeMax="33">
          3 6 9 12 15 18
          21 24 27 30 33
        </DataArray>
        <DataArray type="UInt8" Name="types" format="ascii" RangeMin="5" RangeMax="5">
          5 5 5 5 5 5
          5 5 5 5 5
        </DataArray>
      </Cells>
    </Piece>
  </UnstructuredGrid>
</VTKFile>
