<?xml version="1.0"?>
<VTKFile type="UnstructuredGrid" version="0.1" byte_order="LittleEndian" header_type="UInt32" compressor="vtkZLibDataCompressor">
  <UnstructuredGrid>
    <Piece NumberOfPoints="13" NumberOfCells="11">
      <PointData>
        <DataArray type="Float64" Name="Disp" NumberOfComponents="3" format="ascii" RangeMin="0" RangeMax="0.0005617435443376702">
          0 0 0 0 0 0
          6.62201215103405e-7 -0.000005714795333222112 0 -0.000003176754804416911 -0.000008127653039263967 0
          -0.000007229770859833737 -0.000007141735392708973 0 7.770039137976539e-7 -0.000010455801332078744 0
          -0.000027158657302420392 0.000037472567756435815 0 0.000014997799519300258 0.00003649800308531091 0
          -0.00005514617052343679 0.00016799583213846642 0 0.00003296890777406336 0.00017136042579820113 0
          -0.00006854907752529976 0.00038219633896488525 0 0.00004079993279835917 0.0003944551908545181 0
          -0.00003203035732621132 0.0005608296228041126 0
          <InformationKey name="L2_NORM_RANGE" location="vtkDataArray" length="2">
            <Value index="0">
              0
            </Value>
            <Value index="1">
              0.00056174354434
            </Value>
          </InformationKey>
        </DataArray>
        <DataArray type="Float64" Name="Nodal Stress" NumberOfComponents="6" format="ascii" RangeMin="290.9577226925834" RangeMax="5750.290837876337">
          1273.0465281795427 -1934.6963469473944 0 554.6082133457896 0 0
          -164.5520454277369 -1767.3835815719676 0 -338.29785692037234 0 0
          -641.8275204344803 -213.6875831257379 0 -214.55276436721033 0 0
          11.290985486410118 492.1741897946858 0 -126.36954517971148 0 0
          -441.6498580327398 510.5310325024495 0 -3.4018964784445545 0 0
          268.4752898468854 393.37066205859503 0 -251.32292343381746 0 0
          -686.6664856725888 304.9622968419881 0 160.3105500591416 0 0
          -17.759965898800562 129.25793511622425 0 -260.06415788266105 0 0
          -715.1118866490532 -415.4424771107089 0 476.44108408245233 0 0
          -1384.668012416611 -948.4103936113933 0 69.59611588085431 0 0
          -295.20385292004175 -2104.544510558462 0 843.0220066433664 0 0
          -4679.536663074329 -3162.212045911649 0 1080.831307743711 0 0
          986.5991169838684 -5041.0560693226325 0 814.8997658733891 0 0
          <InformationKey name="L2_NORM_RANGE" location="vtkDataArray" length="2">
            <Value index="0">
              290.95772269
            </Value>
            <Value index="1">
              5750.2908379
            </Value>
          </InformationKey>
        </DataArray>
        <DataArray type="Float64" Name="Nodal Strain" NumberOfComponents="6" format="ascii" RangeMin="0.000030139564372276086" RangeMax="0.0004760765016173592">
          0.00016002819297523144 -0.00018365854364551184 0 0.000059422308572763154 0 0
          0.00005136712466844619 -0.00012036482563272137 0 -0.00003624619895575417 0 0
          -0.000038213123490829394 0.00000765901264939301 0 -0.000022987796182201103 0 0
          -0.00001677115067220948 0.000034752049789391484 0 -0.000013539594126397663 0 0
          -0.000049779669591711754 0.00005223971153705854 0 -3.644889084047738e-7 0 0
          0.000005127854201256284 0.000018509501223939454 0 -0.000026927456082194728 0 0
          -0.0000599391167209702 0.00004630682426273447 0 0.00001717613036347946 0 0
          -0.000005884923818350907 0.000009866994147544612 0 -0.000027864016915999396 0 0
          -0.00003624218914954992 -0.000004134752413298738 0 0.00005104725900883418 0 0
          -0.0000650330582579225 -0.00001829117052879197 0 0.000007456726701520105 0 0
          0.00005407631445422779 -0.00013978161314988867 0 0.00009032378642607496 0 0
          -0.00022131647429417896 -0.000058745979598177526 0 0.00011580335440111187 0 0
          0.00025050908226037033 -0.00039531111627246916 0 0.00008731068920072027 0 0
          <InformationKey name="L2_NORM_RANGE" location="vtkDataArray" length="2">
            <Value index="0">
              3.0139564372e-05
            </Value>
            <Value index="1">
              0.00047607650162
            </Value>
          </InformationKey>
        </DataArray>
        <DataArray type="Float64" Name="Sld_traction" NumberOfComponents="3" format="ascii" RangeMin="132.35184546651558" RangeMax="5268.505883285417">
          -75.57480491584717 -1224.9291519961118 0 86.52749600914933 1331.4056629235022 0
          -0.9471889802882494 132.34845609763659 0 176.80977524550195 -235.850702405152 0
          114.41124979201896 420.07157727741276 0 543.9827922520024 -438.0424827181575 0
          620.3652247794889 266.23339744336585 0 812.297213980785 -153.11399813492736 0
          1104.52018967777 -569.9094381243905 0 475.97163094502093 825.3903723414733 0
          1147.245113070137 -2424.928264602549 0 -1362.8996209240302 2864.2877291142054 0
          -434.9890949979958 -5250.517948683338 0
          <InformationKey name="L2_NORM_RANGE" location="vtkDataArray" length="2">
            <Value index="0">
              132.35184547
            </Value>
            <Value index="1">
              5268.5058833
            </Value>
          </InformationKey>
        </DataArray>
        <DataArray type="Float64" Name="Velocity" NumberOfComponents="3" format="ascii" RangeMin="0" RangeMax="0.7646340256902175">
          0 0 0 0 0 0
          0.0018012765139415778 -0.008724118470240232 0 -0.0032050540532595293 -0.01167257039483608 0
          -0.010636020682166115 -0.0062750054788084115 0 0.006149965842417761 -0.010440433380921009 0
          -0.04205037669254052 0.0763706283776408 0 0.031008749782119975 0.07694657160865413 0
          -0.07686104246907526 0.29011613781322604 0 0.059820097553764905 0.29764614157015007 0
          -0.0833506724891662 0.6016899283712297 0 0.05784185777024924 0.6236129567490576 0
          0.02092025009234074 0.7643477849639535 0
          <InformationKey name="L2_NORM_RANGE" location="vtkDataArray" length="2">
            <Value index="0">
              0
            </Value>
            <Value index="1">
              0.76463402569
            </Value>
          </InformationKey>
        </DataArray>
        <DataArray type="Float64" Name="Acceleration" NumberOfComponents="3" format="ascii" RangeMin="0" RangeMax="919.1623045057848">
          0 0 0 0 0 0
          4.556301195352691 -12.037292548072474 0 -0.11319699537047212 -14.179669422288452 0
          -13.62499928932951 3.466919655602249 0 21.49184771448043 0.061471804630937044 0
          -59.566877560480506 155.59224248481996 0 64.04380105127886 161.79427409337285 0
          -86.85948778255383 488.4812226990386 0 107.40475911880618 505.1428630877957 0
          -59.206379855465684 877.9743576253775 0 68.16769988756029 916.6310635781578 0
          211.8024296742082 814.0726486393633 0
          <InformationKey name="L2_NORM_RANGE" location="vtkDataArray" length="2">
            <Value index="0">
              0
            </Value>
            <Value index="1">
              919.16230451
            </Value>
          </InformationKey>
        </DataArray>
        <DataArray type="Float64" Name="Sigma" NumberOfComponents="6" format="ascii" RangeMin="931.614388476295" RangeMax="11007.153232868872">
          4160.780119717121 -2030.385832311411 0 1811.3661947718356 0 0
          -133.05827114413842 -3158.1488918349496 0 -914.4872473559517 0 0
          -1413.6962870776188 1162.7547371625042 0 -489.81228880456183 0 0
          1311.010085546237 1626.98418270392 0 119.82451689811569 0 0
          -550.0233129299231 738.3487884290371 0 142.19982656468346 0 0
          1368.1369135946588 538.3351518405143 0 -625.6694717095234 0 0
          -1421.418959756178 725.7234234651332 0 607.4804812979419 0 0
          1041.9729816024192 332.5249523495768 0 -881.043383572036 0 0
          -1384.7871000247978 -577.9685285227301 0 1150.0695969204826 0 0
          -2167.376709013057 -1224.5938690083185 0 -723.9402778870426 0 0
          516.5791391992243 -3342.111380078155 0 1419.3622690867487 0 0
          -10262.724600143207 -3871.138289705552 0 920.9747094500817 0 0
          5756.229770786107 -8279.271877597512 0 55.952005153343634 0 0
          <InformationKey name="L2_NORM_RANGE" location="vtkDataArray" length="2">
            <Value index="0">
              931.61438848
            </Value>
            <Value index="1">
              11007.153233
            </Value>
          </InformationKey>
        </DataArray>
        <DataArray type="Float64" Name="Press" format="ascii" RangeMin="-448.0519660877708" RangeMax="2574.2701720604973">
          -409.9553197516361 -422.5778830659874 -440.1310459250526 -448.0519660877708 -394.41166472997793 -258.2330289732636
          -303.6661458343451 -3.610764125784044 143.20267896071346 547.5189820554606 1239.6608719490896 1298.1814152443503
          2574.2701720604973
        </DataArray>
        <DataArray type="Float64" Name="Dev strain" NumberOfComponents="6" format="ascii" RangeMin="0.000030161352253386912" RangeMax="0.0005117401860528833">
          0.0001750515819796449 -0.00016863515464109836 0 0.000059422308572763154 0 0
          0.00006667328944502415 -0.00010505866085614342 0 -0.00003624619895575417 0 0
          -0.000022777370638628657 0.00002309476550159375 0 -0.000022987796182201103 0 0
          -0.0000017764836190072854 0.00004974671684259368 0 -0.000013539594126397663 0 0
          -0.000036318844680219684 0.0000657005364485506 0 -3.644889084047738e-7 0 0
          0.000015238617669059202 0.000028620264691742378 0 -0.000026927456082194728 0 0
          -0.00005221026717640642 0.00005403567380729825 0 0.00001717613036347946 0 0
          -0.000005726276302220639 0.000010025641663674881 0 -0.000027864016915999396 0 0
          -0.00004482262735115224 -0.000012715190614901057 0 0.00005104725900883418 0 0
          -0.00008689440244027648 -0.000040152514711145956 0 0.000007456726701520105 0 0
          0.000012865484462217743 -0.0001809924431418987 0 0.00009032378642607496 0 0
          -0.00027342070544712093 -0.00011085021075111953 0 0.00011580335440111187 0 0
          0.00017172644083033605 -0.0004740937577025033 0 0.00008731068920072027 0 0
          <InformationKey name="L2_NORM_RANGE" location="vtkDataArray" length="2">
            <Value index="0">
              3.0161352253e-05
            </Value>
            <Value index="1">
              0.00051174018605
            </Value>
          </InformationKey>
        </DataArray>
        <DataArray type="Float64" Name="J2 Stresses" format="ascii" RangeMin="428897.4867392741" RangeMax="60366662.54206616">
          11537540.78923261 5204876.1946532605 1735246.9050114357 2186501.9662988135 428897.4867392741 1178667.2469810531
          1365811.3070496388 792199.630096277 1456506.4856191198 3229598.352879308 6221928.554678631 60366662.54206616
          50841044.65535081
        </DataArray>
      </PointData>
      <CellData>
        <DataArray type="UInt8" Name="vtkGhostType" format="ascii" RangeMin="0" RangeMax="0">
          0 0 0 0 0 0
          0 0 0 0 0
        </DataArray>
        <DataArray type="Float64" Name="Gauss Stress" NumberOfComponents="6" format="ascii" RangeMin="477.3554189007292" RangeMax="3570.782972321648">
          -515.5017892514435 -559.7236223491118 0 -428.1583397541325 0 0
          447.1204375842289 -1766.1480785755102 0 135.68888620377408 0 0
          342.8090088066536 600.9904877274862 0 -121.21504274890813 0 0
          -645.1013970680356 748.4976771842198 0 -75.92931511392088 0 0
          141.06033216916921 343.69119624061045 0 -299.7441246612059 0 0
          -519.8720662096765 348.69884139903263 0 41.3369453843674 0 0
          -607.6933101816819 -260.97551609702737 0 -151.63802151286546 0 0
          -642.7691030593244 105.40187209752128 0 292.16889821546306 0 0
          -2942.720300236047 -1784.160756514375 0 538.7989002165959 0 0
          -368.400712291122 -1071.4304148813135 0 615.1638627067297 0 0
          374.0655896986882 -3460.136362709094 0 798.7629945633912 0 0
          <InformationKey name="L2_NORM_RANGE" location="vtkDataArray" length="2">
            <Value index="0">
              477.3554189
            </Value>
            <Value index="1">
              3570.7829723
            </Value>
          </InformationKey>
        </DataArray>
        <DataArray type="Float64" Name="Gauss Strain" NumberOfComponents="6" format="ascii" RangeMin="0.00003345679643262025" RangeMax="0.0003126970563490191">
          -0.000016831427005491975 -0.000021569480551670725 0 -0.00004587410783079991 0 0
          0.00009501389120514171 -0.00014212202124054465 0 0.000014538094950404366 0 0
          0.0000030224117816364677 0.00003068471309458282 0 -0.00001298732600881159 0 0
          -0.00007281073111858183 0.00007650345540844554 0 -0.000008135283762205803 0 0
          -0.0000021989475679382936 0.000019511502154001852 0 -0.00003211544192798634 0 0
          -0.00004958724906494237 0.00004347391960741936 0 0.000004428958434039363 0 0
          -0.0000340861108666549 0.00000306222421384383 0 -0.00001624693087637843 0 0
          -0.00004967643136486322 0.00003048474454479881 0 0.00003130381052308532 0 0
          -0.00014647428014134717 -0.00002234290045688228 0 0.00005772845359463528 0 0
          0.000011951035367823898 -0.00006337357562398232 0 0.00006591041386143531 0 0
          0.00015029526936094536 -0.0002605120826827456 0 0.00008558174941750621 0 0
          <InformationKey name="L2_NORM_RANGE" location="vtkDataArray" length="2">
            <Value index="0">
              3.3456796433e-05
            </Value>
            <Value index="1">
              0.00031269705635
            </Value>
          </InformationKey>
        </DataArray>
      </CellData>
      <Points>
        <DataArray type="Float32" Name="Points" NumberOfComponents="3" format="ascii" RangeMin="0" RangeMax="0.6020797527609908">
          0 0.05000000074505806 0 0 0 0
          0.10000000149011612 0.05000000074505806 0 0.10000000149011612 0 0
          0.20000000298023224 0.05000000074505806 0 0.20000000298023224 0 0
          0.30000001192092896 0.05000000074505806 0 0.30000001192092896 0 0
          0.4000000059604645 0.05000000074505806 0 0.4000000059604645 0 0
          0.5 0.05000000074505806 0 0.5 0 0
          0.6000000238418579 0.05000000074505806 0
          <InformationKey name="L2_NORM_RANGE" location="vtkDataArray" length="2">
            <Value index="0">
              0
            </Value>
            <Value index="1">
              0.60207975276
            </Value>
          </InformationKey>
        </DataArray>
      </Points>
      <Cells>
        <DataArray type="Int64" Name="connectivity" format="ascii" RangeMin="0" RangeMax="12">
          3 2 1 2 0 1
          5 4 3 4 2 3
          7 6 5 6 4 5
          9 8 7 8 6 7
          11 10 9 10 8 9
          12 10 11
        </DataArray>
        <DataArray type="Int64" Name="offsets" format="ascii" RangeMin="3" RangeMax="33">
          3 6 9 12 15 18
          21 24 27 30 33
        </DataArray>
        <DataArray type="UInt8" Name="types" format="ascii" RangeMin="5" RangeMax="5">
          5 5 5 5 5 5
          5 5 5 5 5
        </DataArray>
      </Cells>
    </Piece>
  </UnstructuredGrid>
</VTKFile>
