<?xml version="1.0"?>
<VTKFile type="UnstructuredGrid" version="0.1" byte_order="LittleEndian" header_type="UInt32" compressor="vtkZLibDataCompressor">
  <UnstructuredGrid>
    <Piece NumberOfPoints="13" NumberOfCells="14">
      <PointData>
        <DataArray type="Float64" Name="Disp" NumberOfComponents="3" format="ascii" RangeMin="0" RangeMax="0.11146227499128829">
          0.06083740704233703 -0.007152826163731573 0 0.09802454806842674 0.007954277798264478 0
          0.019300997932803467 -0.008743517859153904 0 0.03987634988470534 0.0010665623494365104 0
          0 0 0 0.05974767763081845 0.010214125945491129 0
          0.007136121041438195 -0.000018269375262574654 0 0.019894912621927763 0.009615821337626597 0
          0 0 0 0.08009616346127779 0.0019407947413875015 0
          0.10541409654549926 0.0031373198298216476 0 0.11132318793940424 0.005566558473747642 0
          0.09845193621419782 -0.002356603635931968 0
          <InformationKey name="L2_NORM_RANGE" location="vtkDataArray" length="2">
            <Value index="0">
              0
            </Value>
            <Value index="1">
              0.11146227499
            </Value>
          </InformationKey>
        </DataArray>
        <DataArray type="Float64" Name="Nodal Stress" NumberOfComponents="6" format="ascii" RangeMin="2.4947938721091574" RangeMax="49.109058579810565">
          0.8575330472231105 16.795598808083472 0 2.3299244195378623 0 0
          -1.3614518949242667 -4.005822954423082 0 0.15302722063099877 0 0
          -1.5391795364982725 -10.512330466977412 0 3.686416468231454 0 0
          -1.896734756534964 9.26762311173961 0 7.844449644964107 0 0
          13.342371040415708 -23.881752375822565 0 20.64200316227515 0 0
          -1.6083014764164845 1.2966514585680595 0 2.046323857447063 0 0
          3.3173706763990713 8.58730255470054 0 11.913281539522034 0 0
          -2.152028959529023 27.62440407162221 0 4.255220421701206 0 0
          2.349976632644731 44.57332154478059 0 20.47916626444758 0 0
          -0.2753457277076724 8.85214814756852 0 1.0987644569759611 0 0
          0.9948728907140066 7.499630894003568 0 -1.7088260873916143 0 0
          -0.3743838953960776 -2.329842496806677 0 -0.8097327356943721 0 0
          0.8501207995394583 20.368954690784427 0 0.6501439916452572 0 0
          <InformationKey name="L2_NORM_RANGE" location="vtkDataArray" length="2">
            <Value index="0">
              2.4947938721
            </Value>
            <Value index="1">
              49.10905858
            </Value>
          </InformationKey>
        </DataArray>
        <DataArray type="Float64" Name="Nodal Strain" NumberOfComponents="6" format="ascii" RangeMin="0" RangeMax="0">
          0 0 0 0 0 0
          0 0 0 0 0 0
          0 0 0 0 0 0
          0 0 0 0 0 0
          0 0 0 0 0 0
          0 0 0 0 0 0
          0 0 0 0 0 0
          0 0 0 0 0 0
          0 0 0 0 0 0
          0 0 0 0 0 0
          0 0 0 0 0 0
          0 0 0 0 0 0
          0 0 0 0 0 0
          <InformationKey name="L2_NORM_RANGE" location="vtkDataArray" length="2">
            <Value index="0">
              0
            </Value>
            <Value index="1">
              0
            </Value>
          </InformationKey>
        </DataArray>
        <DataArray type="Float64" Name="Sld_traction" NumberOfComponents="3" format="ascii" RangeMin="0" RangeMax="26.98685481796136">
          1.6012192800327507 0.06302471317285045 0 2.680563201840608 -0.4627865853264165 0
          0.5851593854500287 3.164937010475449 0 0 0 0
          -1.0022454990410334 17.29754797692211 0 2.7997551370291016 0.005258936923748861 0
          0 0 0 2.4130601080271354 -3.1171172427289684 0
          -9.1559366339094 -25.38620013553742 0 0 0 0
          0 0 0 2.247129597719922 -0.1542838774801635 0
          2.068041888620757 0.8921456553047107 0
          <InformationKey name="L2_NORM_RANGE" location="vtkDataArray" length="2">
            <Value index="0">
              0
            </Value>
            <Value index="1">
              26.986854818
            </Value>
          </InformationKey>
        </DataArray>
        <DataArray type="Float64" Name="Fld_traction" NumberOfComponents="3" format="ascii" RangeMin="0" RangeMax="3.5973067453389187">
          1.8641673217270416 -0.04547746620479433 0 3.0206581127901604 -0.035437953087174845 0
          1.2322656435718535 -0.02593967160211424 0 0 0 0
          0.46665409530710383 0.4007555951362174 0 3.167031989471231 -0.033829919005363474 0
          0 0 0 3.5968828364079304 0.05522391886603754 0
          1.815872612784229 -1.842762994456309 0 0 0 0
          0 0 0 2.112861265733151 0.20992994040066143 0
          3.121707936463651 0.19926986611923383 0
          <InformationKey name="L2_NORM_RANGE" location="vtkDataArray" length="2">
            <Value index="0">
              0
            </Value>
            <Value index="1">
              3.5973067453
            </Value>
          </InformationKey>
        </DataArray>
        <DataArray type="Float64" Name="Velocity" NumberOfComponents="3" format="ascii" RangeMin="0" RangeMax="0.2976541377189768">
          0.1551377604173398 -0.026009814784392557 0 0.2624736656168707 0.013314066882099896 0
          0.04264247884590115 -0.022781811317680194 0 0.09652822075278242 -0.0003742721409814584 0
          0 0 0 0.15063638364585932 0.02435489768249644 0
          0.014856748279838423 -0.00008974479697978699 0 0.04280710853186065 0.022435223505549426 0
          0 0 0 0.21089778045281388 -0.0016839017209811565 0
          0.28292005827950917 -0.0021587634401351516 0 0.2976400857455513 0.0028922411048359145 0
          0.2653440845522861 -0.016220932211003364 0
          <InformationKey name="L2_NORM_RANGE" location="vtkDataArray" length="2">
            <Value index="0">
              0
            </Value>
            <Value index="1">
              0.29765413772
            </Value>
          </InformationKey>
        </DataArray>
        <DataArray type="Float64" Name="Sigma" NumberOfComponents="6" format="ascii" RangeMin="5.905751481328888" RangeMax="71.82972054071256">
          -13.822469345802128 13.82246934580241 0 0.7643865138251211 0 0
          7.4841979243902985 -7.484197924390601 0 0.3831316114843579 0 0
          14.527452699224071 -14.52745269922404 0 -2.654531475637544 0 0
          -5.944039856905933 5.944039856906367 0 16.370387561393347 0 0
          46.22523821130996 -46.22523821130939 0 29.765138292509484 0 0
          4.940530725979532 -4.940530725979562 0 -0.014170622781206899 0 0
          -2.3840818519935296 2.384081851993183 0 10.089094889302933 0 0
          -26.76584377577082 26.765843775770662 0 -0.8101044925032305 0 0
          -45.95454241033458 45.95454241033504 0 28.65056771774575 0 0
          -4.690383688692819 4.690383688693048 0 1.5535450653275666 0 0
          -2.9593389376527743 2.9593389376531456 0 -4.166836529478983 0 0
          4.579622054634951 -4.579622054634682 0 0.25179868201426564 0 0
          -16.357824432624064 16.357824432623786 0 1.4429793829380957 0 0
          <InformationKey name="L2_NORM_RANGE" location="vtkDataArray" length="2">
            <Value index="0">
              5.9057514813
            </Value>
            <Value index="1">
              71.829720541
            </Value>
          </InformationKey>
        </DataArray>
        <DataArray type="Float64" Name="Press" format="ascii" RangeMin="-20.751730252987798" RangeMax="42.95846433569051">
          17.320182426546495 -9.990504457269628 -20.751730252987798 4.098695219547875 -18.479243463277005 -7.9884048118761415
          4.876846110333742 24.723126973280664 42.95846433569051 4.418711415852549 4.735984564273567 -7.564992353717781
          17.299729201226548
        </DataArray>
      </PointData>
      <CellData>
        <DataArray type="UInt8" Name="vtkGhostType" format="ascii" RangeMin="0" RangeMax="1">
          0 0 1 1 1 1
          1 1 0 0 0 0
          0 0
        </DataArray>
        <DataArray type="Float64" Name="Gauss Stress" NumberOfComponents="6" format="ascii" RangeMin="5.431012010506378" RangeMax="50.825920004570165">
          -1.5239697034591397 1.9687346321971049 0 4.826747533193643 0 0
          -0.46516854750343306 9.418817103649145 0 5.706867817479087 0 0
          0.05938890733582877 9.107603779679597 0 0.7679203187904934 0 0
          -1.2383437351137885 -7.307997762695325 0 -1.1773020786601203 0 0
          0.07074795411464851 7.959391584705608 0 -0.780241845018843 0 0
          -0.6120246790390383 8.430648785578573 0 1.1265520199166734 0 0
          1.3893151921688596 24.636433503581607 0 1.2536369873635946 0 0
          -1.9419509638720698 -7.098180938323446 0 0.6408353513435723 0 0
          9.080893643909697 10.489817677922034 0 22.834933633186054 0 0
          8.004827150869811 -30.907578888157097 0 12.39990056872496 0 0
          -0.8486768729313392 49.220968485801265 0 12.643186038181819 0 0
          -1.924743365971222 7.823571919722138 0 2.208152973720721 0 0
          -3.370779664537313 8.750840957764582 0 4.301917197750857 0 0
          -2.311978508581606 16.200923429216626 0 5.182037482036303 0 0
          <InformationKey name="L2_NORM_RANGE" location="vtkDataArray" length="2">
            <Value index="0">
              5.4310120105
            </Value>
            <Value index="1">
              50.825920005
            </Value>
          </InformationKey>
        </DataArray>
        <DataArray type="Float64" Name="Gauss Strain" NumberOfComponents="6" format="ascii" RangeMin="0" RangeMax="0">
          0 0 0 0 0 0
          0 0 0 0 0 0
          0 0 0 0 0 0
          0 0 0 0 0 0
          0 0 0 0 0 0
          0 0 0 0 0 0
          0 0 0 0 0 0
          0 0 0 0 0 0
          0 0 0 0 0 0
          0 0 0 0 0 0
          0 0 0 0 0 0
          0 0 0 0 0 0
          0 0 0 0 0 0
          0 0 0 0 0 0
          <InformationKey name="L2_NORM_RANGE" location="vtkDataArray" length="2">
            <Value index="0">
              0
            </Value>
            <Value index="1">
              0
            </Value>
          </InformationKey>
        </DataArray>
        <DataArray type="Float64" Name="Btraction" NumberOfComponents="3" format="ascii" RangeMin="0" RangeMax="2.254649553329936">
          1.0321443217662982 -0.023805712602302853 0 0 0 0
          0 0 0 1.7111731261744367 0.05816399577116218 0
          0 0 0 0 0 0
          1.6619584193968975 0.051264133304813164 0 2.062563367420463 -0.023089290697512768 0
          0 0 0 0.5663065796263189 0.12493864117803435 0
          1.804251816397386 -0.5958463585300904 0 0 0 0
          0 0 0 2.254638275293053 0.007131333286891353 0
          <InformationKey name="L2_NORM_RANGE" location="vtkDataArray" length="2">
            <Value index="0">
              0
            </Value>
            <Value index="1">
              2.2546495533
            </Value>
          </InformationKey>
        </DataArray>
      </CellData>
      <Points>
        <DataArray type="Float32" Name="Points" NumberOfComponents="3" format="ascii" RangeMin="10" RangeMax="13.021927811442218">
          11 3.7184319496154785 0 10 6.2815680503845215 0
          11 1.6591010093688965 0 10.5 2.6568450927734375 0
          11 0 0 10 3.61250901222229 0
          10.5 0.8241099119186401 0 10 1.6373380422592163 0
          10 0 0 10.5 5 0
          10.5 7.3431549072265625 0 10 8.340899467468262 0
          11 6.387491226196289 0
          <InformationKey name="L2_NORM_RANGE" location="vtkDataArray" length="2">
            <Value index="0">
              10
            </Value>
            <Value index="1">
              13.021927811
            </Value>
          </InformationKey>
        </DataArray>
      </Points>
      <Cells>
        <DataArray type="Int64" Name="connectivity" format="ascii" RangeMin="0" RangeMax="12">
          3 2 0 5 3 0
          5 0 9 10 11 1
          12 10 1 12 1 9
          9 0 12 5 9 1
          8 4 6 6 4 2
          8 6 7 6 2 7
          7 2 3 7 3 5
        </DataArray>
        <DataArray type="Int64" Name="offsets" format="ascii" RangeMin="3" RangeMax="42">
          3 6 9 12 15 18
          21 24 27 30 33 36
          39 42
        </DataArray>
        <DataArray type="UInt8" Name="types" format="ascii" RangeMin="5" RangeMax="5">
          5 5 5 5 5 5
          5 5 5 5 5 5
          5 5
        </DataArray>
      </Cells>
    </Piece>
  </UnstructuredGrid>
</VTKFile>
