<?xml version="1.0"?>
<VTKFile type="UnstructuredGrid" version="0.1" byte_order="LittleEndian" header_type="UInt32" compressor="vtkZLibDataCompressor">
  <UnstructuredGrid>
    <Piece NumberOfPoints="13" NumberOfCells="14">
      <PointData>
        <DataArray type="Float64" Name="Disp" NumberOfComponents="3" format="ascii" RangeMin="0" RangeMax="0.18314823689746565">
          0.09724604036101275 -0.014062962558594832 0 0.1609902255294244 0.010428087022329278 0
          0.029006764790728314 -0.014176608989503073 0 0.06221554629954157 0.0006081546662673311 0
          0 0 0 0.09493521426919886 0.015604301175694375 0
          0.010452908023919785 -0.0000452750773289096 0 0.02947123732211289 0.014664933358353723 0
          0 0 0 0.13026757712315834 0.0008128031276644734 0
          0.17353282965017075 0.0016619122876957726 0 0.18307231355956277 0.005273014943969982 0
          0.16222088983449612 -0.007285217663982915 0
          <InformationKey name="L2_NORM_RANGE" location="vtkDataArray" length="2">
            <Value index="0">
              0
            </Value>
            <Value index="1">
              0.1831482369
            </Value>
          </InformationKey>
        </DataArray>
        <DataArray type="Float64" Name="Nodal Stress" NumberOfComponents="6" format="ascii" RangeMin="4.490228873813719" RangeMax="69.52806740759145">
          1.0212098426310592 18.121717390977057 0 4.032858437604207 0 0
          -1.1455327994474938 -13.273633958991866 0 0.2540492137811735 0 0
          -1.6153216168766589 -25.362490097861226 0 5.4719755097108544 0 0
          -1.4974993841602056 8.16359597119723 0 13.20211070299638 0 0
          15.562856275759904 -44.85694943928015 0 28.211162166506707 0 0
          -1.4964652204811402 -2.4997324784429704 0 3.4167359744847308 0 0
          2.9643919286907985 7.373858843598569 0 15.423551314707657 0 0
          -1.4928268878193092 40.6313936996361 0 6.603458130087612 0 0
          -1.1581866303499897 63.0973577468286 0 29.181059037200605 0 0
          -0.33304648408309884 7.7810997106257 0 2.684125699607647 0 0
          1.4280462400383835 5.88482439408471 0 -3.8227463776700152 0 0
          -0.337464388278231 -8.54792928459705 0 -1.5689715278371694 0 0
          0.7423764774457611 26.984336428523157 0 1.120420824905917 0 0
          <InformationKey name="L2_NORM_RANGE" location="vtkDataArray" length="2">
            <Value index="0">
              4.4902288738
            </Value>
            <Value index="1">
              69.528067408
            </Value>
          </InformationKey>
        </DataArray>
        <DataArray type="Float64" Name="Nodal Strain" NumberOfComponents="6" format="ascii" RangeMin="0" RangeMax="0">
          0 0 0 0 0 0
          0 0 0 0 0 0
          0 0 0 0 0 0
          0 0 0 0 0 0
          0 0 0 0 0 0
          0 0 0 0 0 0
          0 0 0 0 0 0
          0 0 0 0 0 0
          0 0 0 0 0 0
          0 0 0 0 0 0
          0 0 0 0 0 0
          0 0 0 0 0 0
          0 0 0 0 0 0
          <InformationKey name="L2_NORM_RANGE" location="vtkDataArray" length="2">
            <Value index="0">
              0
            </Value>
            <Value index="1">
              0
            </Value>
          </InformationKey>
        </DataArray>
        <DataArray type="Float64" Name="Sld_traction" NumberOfComponents="3" format="ascii" RangeMin="0" RangeMax="36.92689168603301">
          1.6518064637653702 0.024203827245621763 0 2.4330770727968085 -0.9408554953531577 0
          0.5760789881663625 5.081899052065037 0 0 0 0
          -3.1242387063648076 28.219605776700195 0 2.5366025913371866 0.1606154530094816 0
          0 0 0 2.0496970345768397 -4.334391658382044 0
          -10.643665675899852 -35.35969047618609 0 0 0 0
          0 0 0 2.312536142402799 -0.3474595996039221 0
          1.7604948221224956 1.152775364617754 0
          <InformationKey name="L2_NORM_RANGE" location="vtkDataArray" length="2">
            <Value index="0">
              0
            </Value>
            <Value index="1">
              36.926891686
            </Value>
          </InformationKey>
        </DataArray>
        <DataArray type="Float64" Name="Fld_traction" NumberOfComponents="3" format="ascii" RangeMin="0" RangeMax="3.0337731401754175">
          2.0096595176789376 -0.035912211612643026 0 2.795873744786707 -0.01754311351408913 0
          1.6741534612388003 -0.02392978461705858 0 0 0 0
          0.7072009161539325 0.6019155610893376 0 2.6023322028437263 -0.025380319540987618 0
          0 0 0 3.033254322083564 0.05610422097481636 0
          1.6440750436549 -1.7131527936386652 0 0 0 0
          0 0 0 1.94555619057919 0.21124429501792136 0
          2.545246113447861 0.20897066976264683 0
          <InformationKey name="L2_NORM_RANGE" location="vtkDataArray" length="2">
            <Value index="0">
              0
            </Value>
            <Value index="1">
              3.0337731402
            </Value>
          </InformationKey>
        </DataArray>
        <DataArray type="Float64" Name="Velocity" NumberOfComponents="3" format="ascii" RangeMin="0" RangeMax="0.41854765789702914">
          0.20835821799115034 -0.04282975978162681 0 0.3659345988202451 0.01153185356409235 0
          0.054453284231604726 -0.03145846717510861 0 0.12664094040722007 -0.004151894278004135 0
          0 0 0 0.20070439689381814 0.02946480512344264 0
          0.018353552566703166 -0.00017928940035675993 0 0.05301721341339005 0.02801434460704056 0
          0 0 0 0.2898727235369707 -0.009457964643790803 0
          0.39693974966573353 -0.012360581017941151 0 0.41851060125369277 -0.005569431691037609 0
          0.3710398660909927 -0.03280052872195487 0
          <InformationKey name="L2_NORM_RANGE" location="vtkDataArray" length="2">
            <Value index="0">
              0
            </Value>
            <Value index="1">
              0.4185476579
            </Value>
          </InformationKey>
        </DataArray>
        <DataArray type="Float64" Name="Sigma" NumberOfComponents="6" format="ascii" RangeMin="7.654717285711778" RangeMax="109.23984480136693">
          -16.836674529213568 16.836674529214015 0 1.0812769779768425 0 0
          17.487983967122204 -17.487983967122823 0 0.5852145626763712 0 0
          30.15027038200415 -30.150270382004155 0 -3.7001213680800893 0 0
          -5.184433840500723 5.184433840501713 0 27.351102533262143 0 0
          71.526815242905 -71.52681524290398 0 41.2452796649695 0 0
          9.44206806485931 -9.44206806485888 0 -0.6005859916823997 0 0
          -1.9687209802530303 1.9687209802521668 0 10.930072766812316 0 0
          -41.14731252474369 41.14731252474356 0 -0.5520356200523073 0 0
          -70.9531707745583 70.95317077455934 0 42.69145612187775 0 0
          -4.377242281734676 4.377242281735493 0 4.502687723810741 0 0
          -1.5385989798084267 1.5385989798089057 0 -8.832851944961083 0 0
          10.16376043247698 -10.163760432476542 0 0.4305740467040793 0 0
          -25.061582210644133 25.061582210643365 0 2.39780653982531 0 0
          <InformationKey name="L2_NORM_RANGE" location="vtkDataArray" length="2">
            <Value index="0">
              7.6547172857
            </Value>
            <Value index="1">
              109.2398448
            </Value>
          </InformationKey>
        </DataArray>
        <DataArray type="Float64" Name="Press" format="ascii" RangeMin="-38.18032358747034" RangeMax="58.60886704007345">
          20.966733349455613 -19.55153295271773 -38.18032358747034 3.8153493158298746 -36.302163043780894 -12.846559943681257
          3.951356886568679 41.96269972811099 58.60886704007345 3.9444871398990387 4.250255860608673 -13.002364594793942
          25.468807942031987
        </DataArray>
      </PointData>
      <CellData>
        <DataArray type="UInt8" Name="vtkGhostType" format="ascii" RangeMin="0" RangeMax="1">
          0 0 1 1 1 1
          1 1 0 0 0 0
          0 0
        </DataArray>
        <DataArray type="Float64" Name="Gauss Stress" NumberOfComponents="6" format="ascii" RangeMin="6.725095327927108" RangeMax="75.04814823713465">
          -1.7563596366316643 -7.17580097815776 0 8.244086047719634 0 0
          -0.2145058610835846 8.171521008820354 0 9.277264506518858 0 0
          0.09760393319481911 7.945503097254668 0 1.6611262367017277 0 0
          -0.730165422370745 -18.13892903556448 0 -2.6056877785268786 0 0
          0.3517778755308596 6.426576024417468 0 -1.9499436141531334 0 0
          -0.6963594653477679 7.270867551489779 0 2.495236275437474 0 0
          1.3681764699314198 32.218509150993164 0 2.660590413870964 0 0
          -1.966932002084369 -17.00213850224872 0 1.495772098268237 0 0
          8.287661456984967 9.217712464922947 0 31.622269517886522 0 0
          9.725744966657855 -56.746498129779496 0 16.15841035456724 0 0
          -3.182093541600635 72.86404264476941 0 17.689831089545923 0 0
          -1.7440100319277445 6.899832050066966 0 2.225971926226641 0 0
          -2.861250175589912 7.926400479903893 0 7.699648515043246 0 0
          -1.3193964000418315 23.273722466882013 0 8.732826973842478 0 0
          <InformationKey name="L2_NORM_RANGE" location="vtkDataArray" length="2">
            <Value index="0">
              6.7250953279
            </Value>
            <Value index="1">
              75.048148237
            </Value>
          </InformationKey>
        </DataArray>
        <DataArray type="Float64" Name="Gauss Strain" NumberOfComponents="6" format="ascii" RangeMin="0" RangeMax="0">
          0 0 0 0 0 0
          0 0 0 0 0 0
          0 0 0 0 0 0
          0 0 0 0 0 0
          0 0 0 0 0 0
          0 0 0 0 0 0
          0 0 0 0 0 0
          0 0 0 0 0 0
          0 0 0 0 0 0
          0 0 0 0 0 0
          0 0 0 0 0 0
          0 0 0 0 0 0
          0 0 0 0 0 0
          0 0 0 0 0 0
          <InformationKey name="L2_NORM_RANGE" location="vtkDataArray" length="2">
            <Value index="0">
              0
            </Value>
            <Value index="1">
              0
            </Value>
          </InformationKey>
        </DataArray>
        <DataArray type="Float64" Name="Btraction" NumberOfComponents="3" format="ascii" RangeMin="0" RangeMax="1.8785567580240763">
          1.227937659639246 -0.0199473320765672 0 0 0 0
          0 0 0 1.5804766451219656 0.0645670605012774 0
          0 0 0 0 0 0
          1.518301877042266 0.05768615271666793 0 1.7994019825434777 -0.014307811018358915 0
          0 0 0 0.7937847924642442 0.19266192549075964 0
          1.5591097885794878 -0.5523495242212828 0 0 0 0
          0 0 0 1.8785288416424297 0.010241300477942913 0
          <InformationKey name="L2_NORM_RANGE" location="vtkDataArray" length="2">
            <Value index="0">
              0
            </Value>
            <Value index="1">
              1.878556758
            </Value>
          </InformationKey>
        </DataArray>
      </CellData>
      <Points>
        <DataArray type="Float32" Name="Points" NumberOfComponents="3" format="ascii" RangeMin="10" RangeMax="13.021927811442218">
          11 3.7184319496154785 0 10 6.2815680503845215 0
          11 1.6591010093688965 0 10.5 2.6568450927734375 0
          11 0 0 10 3.61250901222229 0
          10.5 0.8241099119186401 0 10 1.6373380422592163 0
          10 0 0 10.5 5 0
          10.5 7.3431549072265625 0 10 8.340899467468262 0
          11 6.387491226196289 0
          <InformationKey name="L2_NORM_RANGE" location="vtkDataArray" length="2">
            <Value index="0">
              10
            </Value>
            <Value index="1">
              13.021927811
            </Value>
          </InformationKey>
        </DataArray>
      </Points>
      <Cells>
        <DataArray type="Int64" Name="connectivity" format="ascii" RangeMin="0" RangeMax="12">
          3 2 0 5 3 0
          5 0 9 10 11 1
          12 10 1 12 1 9
          9 0 12 5 9 1
          8 4 6 6 4 2
          8 6 7 6 2 7
          7 2 3 7 3 5
        </DataArray>
        <DataArray type="Int64" Name="offsets" format="ascii" RangeMin="3" RangeMax="42">
          3 6 9 12 15 18
          21 24 27 30 33 36
          39 42
        </DataArray>
        <DataArray type="UInt8" Name="types" format="ascii" RangeMin="5" RangeMax="5">
          5 5 5 5 5 5
          5 5 5 5 5 5
          5 5
        </DataArray>
      </Cells>
    </Piece>
  </UnstructuredGrid>
</VTKFile>
