<?xml version="1.0"?>
<VTKFile type="UnstructuredGrid" version="0.1" byte_order="LittleEndian" header_type="UInt32" compressor="vtkZLibDataCompressor">
  <UnstructuredGrid>
    <Piece NumberOfPoints="11" NumberOfCells="12">
      <PointData>
        <DataArray type="Float64" Name="Disp" NumberOfComponents="3" format="ascii" RangeMin="0.023854438822850117" RangeMax="0.04254153119153903">
          0.04231688200959248 0.0029900400524430757 0 0.040591386023546575 0.002575214945516474 0
          0.03604330693970485 0.0008905131085942812 0 0.04158678085944774 0.0034466771891895425 0
          0.0386319398011004 0.0029315416510802463 0 0.04235027514244955 0.004029400883444998 0
          0.040860340509001655 0.004003941277522343 0 0.03020325686827873 0.0019381359095655907 0
          0.02367168273237324 0.004391278671483654 0 0.023810092811617188 -0.0014538678947120139 0
          0.036148333477796585 0.004269760302366199 0
          <InformationKey name="L2_NORM_RANGE" location="vtkDataArray" length="2">
            <Value index="0">
              0.023854438823
            </Value>
            <Value index="1">
              0.042541531192
            </Value>
          </InformationKey>
        </DataArray>
        <DataArray type="Float64" Name="Nodal Stress" NumberOfComponents="6" format="ascii" RangeMin="1.5051400482815052" RangeMax="11.07323039497927">
          4.211502258955942 6.684098575982292 0 -0.8387269941784983 0 0
          2.419350894525373 8.95003711881152 0 -0.0714194713417646 0 0
          0.6251148261608098 10.696151086655728 0 0.2009330749929421 0 0
          2.1766360903426967 4.427090376681511 0 -0.922994801954975 0 0
          0.47057503496037734 5.873383666944114 0 -0.16217554637383635 0 0
          1.8387398842422147 2.4997919189646423 0 -0.6708637544176796 0 0
          -0.2604559403082524 1.4705312380157816 0 -0.18747572141151678 0 0
          -0.13997541544876138 6.665200985299737 0 -0.051547673365970804 0 0
          -1.1274380607073167 2.8598834257160846 0 0.7301502090860186 0 0
          0.5091559826768054 11.035551855744693 0 0.757487164753995 0 0
          -1.007580521132376 1.8410270219268452 0 0.04814658210153867 0 0
          <InformationKey name="L2_NORM_RANGE" location="vtkDataArray" length="2">
            <Value index="0">
              1.5051400483
            </Value>
            <Value index="1">
              11.073230395
            </Value>
          </InformationKey>
        </DataArray>
        <DataArray type="Float64" Name="Nodal Strain" NumberOfComponents="6" format="ascii" RangeMin="0" RangeMax="0">
          0 0 0 0 0 0
          0 0 0 0 0 0
          0 0 0 0 0 0
          0 0 0 0 0 0
          0 0 0 0 0 0
          0 0 0 0 0 0
          0 0 0 0 0 0
          0 0 0 0 0 0
          0 0 0 0 0 0
          0 0 0 0 0 0
          0 0 0 0 0 0
          <InformationKey name="L2_NORM_RANGE" location="vtkDataArray" length="2">
            <Value index="0">
              0
            </Value>
            <Value index="1">
              0
            </Value>
          </InformationKey>
        </DataArray>
        <DataArray type="Float64" Name="Sld_traction" NumberOfComponents="3" format="ascii" RangeMin="0" RangeMax="3.684476597313375">
          3.0531080747182435 1.8931141675905547 0 3.678124177635857 0.2162644909375949 0
          1.5341527008542035 0.417786632972071 0 0 0 0
          0 0 0 -0.465330176191076 1.5344644223887727 0
          1.473182869367555 -0.043269946522542964 0 0 0 0
          2.002839847027384 -0.11957493064723908 0 1.053439220846138 0.07272898574547845 0
          1.9066353494813146 -0.19169382348978073 0
          <InformationKey name="L2_NORM_RANGE" location="vtkDataArray" length="2">
            <Value index="0">
              0
            </Value>
            <Value index="1">
              3.6844765973
            </Value>
          </InformationKey>
        </DataArray>
        <DataArray type="Float64" Name="Fld_traction" NumberOfComponents="3" format="ascii" RangeMin="0" RangeMax="41.733115042859595">
          34.01154923572728 24.184032123826103 0 27.509123235342134 0.9260306913422147 0
          -13.438078340795759 0.10213279952807158 0 0 0 0
          0 0 0 -22.49773162638042 20.69288357655474 0
          -29.55269635710098 0.4394780390937039 0 0 0 0
          0 0 0 -20.82059418615794 -0.08810577958248436 0
          -22.6025263183167 -0.0633967893597971 0
          <InformationKey name="L2_NORM_RANGE" location="vtkDataArray" length="2">
            <Value index="0">
              0
            </Value>
            <Value index="1">
              41.733115043
            </Value>
          </InformationKey>
        </DataArray>
        <DataArray type="Float64" Name="Velocity" NumberOfComponents="3" format="ascii" RangeMin="3.1622776601683796e+149" RangeMax="NaN">
          NaN NaN 0 NaN NaN 0
          NaN NaN 0 NaN NaN 0
          NaN NaN 0 NaN NaN 0
          NaN NaN 0 NaN NaN 0
          NaN NaN 0 NaN NaN 0
          NaN NaN 0
          <InformationKey name="L2_NORM_RANGE" location="vtkDataArray" length="2">
            <Value index="0">
              3.1622776602e+149
            </Value>
            <Value index="1">
              -nan
            </Value>
          </InformationKey>
        </DataArray>
        <DataArray type="Float64" Name="Sigma" NumberOfComponents="6" format="ascii" RangeMin="0.3208438756034961" RangeMax="11.492515478704288">
          -0.8200761020184041 0.8200761020184221 0 -0.8650142638954481 0 0
          -4.632967573238329 4.632967573238138 0 0.4121269115934397 0 0
          -6.927984996658003 6.927984996658066 0 0.5200370798120704 0 0
          -0.9646366920975475 0.9646366920974389 0 -1.675651448330656 0 0
          -2.6857362929806885 2.6857362929808795 0 -0.6195437368656995 0 0
          -0.0631266154238388 0.06312661542393268 0 -0.30817341443174706 0 0
          0.353829418603443 -0.3538294186033569 0 0.07903006748545212 0 0
          -3.390174549073282 3.390174549073157 0 -0.4360704907330833 0 0
          1.1770265209723443 -1.1770265209725934 0 0.27768524317799553 0 0
          -8.122501061627059 8.122501061627196 0 0.35758220871570245 0 0
          0.21259971466091673 -0.2125997146609894 0 0.17661937946788833 0 0
          <InformationKey name="L2_NORM_RANGE" location="vtkDataArray" length="2">
            <Value index="0">
              0.3208438756
            </Value>
            <Value index="1">
              11.492515479
            </Value>
          </InformationKey>
        </DataArray>
        <DataArray type="Float64" Name="Press" format="ascii" RangeMin="-3.043777653507072" RangeMax="10.210589054211429">
          6.857163552878012 8.544888596481632 7.799907621754611 2.929138097857728 3.4415101926199916 1.7732363940754658
          -2.424068826693099 3.3073000671518455 -3.043777653507072 10.210589054211429 -2.0938402005629633
        </DataArray>
      </PointData>
      <CellData>
        <DataArray type="UInt8" Name="vtkGhostType" format="ascii" RangeMin="0" RangeMax="0">
          0 0 0 0 0 0
          0 0 0 0 0 0
        </DataArray>
        <DataArray type="Float64" Name="Gauss Stress" NumberOfComponents="6" format="ascii" RangeMin="1.1270716052916767" RangeMax="13.28828978451065">
          3.2372328784238054 4.469125818117 0 -0.9496130422192837 0 0
          0.534790592107384 0.9840798513860369 0 -0.6349315984256503 0 0
          3.9711699599543646 8.249623538190455 0 -0.7095129335442214 0 0
          1.268727673637943 4.764577571459494 0 -0.3948314897505882 0 0
          0.8658185049309841 5.509068136674729 0 -0.04279558592893584 0 0
          0.04615412604273542 6.936586852527984 0 0.06639898705353833 0 0
          -1.0652353314507996 0.3476361083601549 0 -0.12129809663745308 0 0
          1.8465391826597386 11.344331757911103 0 0.10420675151327022 0 0
          -0.08451465372204536 6.1828997295965324 0 0.02570424080475312 0 0
          -0.36406411424229185 6.3729757731379095 0 0.08686198951562518 0 0
          0.959045378586514 13.252819116825435 0 0.1471829325982298 0 0
          -1.27695536678607 0.056743508840460644 0 0.006078043970933575 0 0
          <InformationKey name="L2_NORM_RANGE" location="vtkDataArray" length="2">
            <Value index="0">
              1.1270716053
            </Value>
            <Value index="1">
              13.288289785
            </Value>
          </InformationKey>
        </DataArray>
        <DataArray type="Float64" Name="Gauss Strain" NumberOfComponents="6" format="ascii" RangeMin="0" RangeMax="0">
          0 0 0 0 0 0
          0 0 0 0 0 0
          0 0 0 0 0 0
          0 0 0 0 0 0
          0 0 0 0 0 0
          0 0 0 0 0 0
          0 0 0 0 0 0
          0 0 0 0 0 0
          0 0 0 0 0 0
          0 0 0 0 0 0
          0 0 0 0 0 0
          0 0 0 0 0 0
          <InformationKey name="L2_NORM_RANGE" location="vtkDataArray" length="2">
            <Value index="0">
              0
            </Value>
            <Value index="1">
              0
            </Value>
          </InformationKey>
        </DataArray>
        <DataArray type="Float64" Name="Btraction" NumberOfComponents="3" format="ascii" RangeMin="0" RangeMax="22.149262330014754">
          3.8379392031156208 14.958971900126944 0 -17.35014266116046 7.044120538549479 0
          20.5068908236898 8.370020938389438 0 0 0 0
          0 0 0 0 0 0
          -17.385074225139224 0.12536041657796893 0 4.690348298182124 0.34272116362342875 0
          0 0 0 0 0 0
          -11.419557508984564 0.004675673315195736 0 0 0 0
          <InformationKey name="L2_NORM_RANGE" location="vtkDataArray" length="2">
            <Value index="0">
              0
            </Value>
            <Value index="1">
              22.14926233
            </Value>
          </InformationKey>
        </DataArray>
      </CellData>
      <Points>
        <DataArray type="Float32" Name="Points" NumberOfComponents="3" format="ascii" RangeMin="10.632507764558053" RangeMax="14.866068747318506">
          11 10 0 11 8.362662315368652 0
          11 6.387491226196289 0 10.5 9.17588996887207 0
          10.5 7.3431549072265625 0 10 10 0
          10 8.340899467468262 0 10.5 5 0
          10 3.61250901222229 0 11 3.7184319496154785 0
          10 6.2815680503845215 0
          <InformationKey name="L2_NORM_RANGE" location="vtkDataArray" length="2">
            <Value index="0">
              10.632507765
            </Value>
            <Value index="1">
              14.866068747
            </Value>
          </InformationKey>
        </DataArray>
      </Points>
      <Cells>
        <DataArray type="Int64" Name="connectivity" format="ascii" RangeMin="0" RangeMax="10">
          0 5 3 3 5 6
          0 3 1 3 6 1
          1 6 4 8 9 7
          4 6 10 1 4 2
          2 4 10 2 10 7
          7 9 2 8 7 10
        </DataArray>
        <DataArray type="Int64" Name="offsets" format="ascii" RangeMin="3" RangeMax="36">
          3 6 9 12 15 18
          21 24 27 30 33 36
        </DataArray>
        <DataArray type="UInt8" Name="types" format="ascii" RangeMin="5" RangeMax="5">
          5 5 5 5 5 5
          5 5 5 5 5 5
        </DataArray>
      </Cells>
    </Piece>
  </UnstructuredGrid>
</VTKFile>
