<?xml version="1.0"?>
<VTKFile type="UnstructuredGrid" version="0.1" byte_order="LittleEndian" header_type="UInt32" compressor="vtkZLibDataCompressor">
  <UnstructuredGrid>
    <Piece NumberOfPoints="13" NumberOfCells="14">
      <PointData>
        <DataArray type="Float64" Name="Disp" NumberOfComponents="3" format="ascii" RangeMin="0" RangeMax="0.05187314337990234">
          0.02917493313698261 -0.002289496320530088 0 0.04521883358949099 0.004886242851273337 0
          0.010475944721639334 -0.004146031103887385 0 0.020027844905668148 0.0009324343418098248 0
          0 0 0 0.02891467975290518 0.0050460330848758825 0
          0.004030856657404294 -0.000003401662042519627 0 0.01094013313136488 0.004917668920110969 0
          0 0 0 0.037425748947618416 0.0018745596859655615 0
          0.04865376987419928 0.0030528082994074716 0 0.051680823646744214 0.004462675352972694 0
          0.04512558030288115 0.00032693369889188627 0
          <InformationKey name="L2_NORM_RANGE" location="vtkDataArray" length="2">
            <Value index="0">
              0
            </Value>
            <Value index="1">
              0.05187314338
            </Value>
          </InformationKey>
        </DataArray>
        <DataArray type="Float64" Name="Nodal Stress" NumberOfComponents="6" format="ascii" RangeMin="1.7789635860658533" RangeMax="27.132179730700763">
          0.6102526203941927 11.843432638442449 0 0.9588082804345497 0 0
          -1.7172937761765976 1.5963300524074209 0 0.13773088028665717 0 0
          -1.1753262576578127 -1.538354664654944 0 1.9544239701488757 0 0
          -1.8635174709412152 6.656287384596417 0 3.0820966480695344 0 0
          8.237944065289886 -9.42782008866959 0 12.842558138387796 0 0
          -1.8213101433058136 2.237127701369233 0 0.8922312497358234 0 0
          1.99293980202386 6.069210644602041 0 8.091146821309431 0 0
          -2.571702886934204 13.488013317646757 0 2.156178314924418 0 0
          2.418938783210987 24.078564139281987 0 12.268930723278645 0 0
          -0.44666915371833144 7.288194880678074 0 0.19516200020301527 0 0
          0.5265919494073826 7.669175978562787 0 0.028415794017232248 0 0
          -0.5616459407964383 1.6765192504523518 0 -0.19633766983910161 0 0
          0.8866504119409244 13.227054522579687 0 0.387644494399409 0 0
          <InformationKey name="L2_NORM_RANGE" location="vtkDataArray" length="2">
            <Value index="0">
              1.7789635861
            </Value>
            <Value index="1">
              27.132179731
            </Value>
          </InformationKey>
        </DataArray>
        <DataArray type="Float64" Name="Nodal Strain" NumberOfComponents="6" format="ascii" RangeMin="0" RangeMax="0">
          0 0 0 0 0 0
          0 0 0 0 0 0
          0 0 0 0 0 0
          0 0 0 0 0 0
          0 0 0 0 0 0
          0 0 0 0 0 0
          0 0 0 0 0 0
          0 0 0 0 0 0
          0 0 0 0 0 0
          0 0 0 0 0 0
          0 0 0 0 0 0
          0 0 0 0 0 0
          0 0 0 0 0 0
          <InformationKey name="L2_NORM_RANGE" location="vtkDataArray" length="2">
            <Value index="0">
              0
            </Value>
            <Value index="1">
              0
            </Value>
          </InformationKey>
        </DataArray>
        <DataArray type="Float64" Name="Sld_traction" NumberOfComponents="3" format="ascii" RangeMin="0" RangeMax="15.675731791510621">
          1.5412605917705053 0.11907257906940784 0 3.1137208303740747 -0.1860750996260573 0
          0.6257244356641141 1.7113003419006743 0 0 0 0
          -0.47980460623797727 8.89345178324495 0 3.0963700126698552 -0.1325733512683396 0
          0 0 0 2.940963179502727 -1.8054952188452278 0
          -5.888621043497325 -14.527653265598586 0 0 0 0
          0 0 0 2.3730230433211297 -0.03612265927682736 0
          2.2929998000379146 0.5579674719106262 0
          <InformationKey name="L2_NORM_RANGE" location="vtkDataArray" length="2">
            <Value index="0">
              0
            </Value>
            <Value index="1">
              15.675731792
            </Value>
          </InformationKey>
        </DataArray>
        <DataArray type="Float64" Name="Fld_traction" NumberOfComponents="3" format="ascii" RangeMin="0" RangeMax="3.5508940473485087">
          1.1305318876126451 -0.06407168857182573 0 2.9238912403180484 -0.06125093340738291 0
          0.44991497061583424 -0.029570922068069955 0 0 0 0
          0.05155601717878381 -0.011420663682866 0 3.0329125225603493 -0.047706063916773414 0
          0 0 0 3.550440682219715 0.05674061626629246 0
          1.8334945833679226 -1.8470420699580667 0 0 0 0
          0 0 0 2.0340665073742996 0.24712161867731186 0
          2.520219759983495 0.16915007853149489 0
          <InformationKey name="L2_NORM_RANGE" location="vtkDataArray" length="2">
            <Value index="0">
              0
            </Value>
            <Value index="1">
              3.5508940473
            </Value>
          </InformationKey>
        </DataArray>
        <DataArray type="Float64" Name="Velocity" NumberOfComponents="3" format="ascii" RangeMin="0" RangeMax="0.09904829129573268">
          0.05330424152273644 -0.00750858170414925 0 0.08777787802893236 0.00574396596348313 0
          0.015269640574388371 -0.007682431683842063 0 0.033772204712095535 0.0005170821629829599 0
          0 0 0 0.05205262626093336 0.008912179427928518 0
          0.005444272295790087 -0.000020613222382935425 0 0.015617862927507886 0.00809163578621118 0
          0 0 0 0.0712612882967952 0.0007101504021448796 0
          0.09421683159175165 0.0009932938066672583 0 0.0990098265214781 0.0027601197059417097 0
          0.08852252092951951 -0.0035997329246153127 0
          <InformationKey name="L2_NORM_RANGE" location="vtkDataArray" length="2">
            <Value index="0">
              0
            </Value>
            <Value index="1">
              0.099048291296
            </Value>
          </InformationKey>
        </DataArray>
        <DataArray type="Float64" Name="Sigma" NumberOfComponents="6" format="ascii" RangeMin="0.6135860089645994" RangeMax="37.733528738467854">
          -8.743914950415213 8.743914950415205 0 0.5043850984924536 0 0
          0.42392366708596985 -0.4239236670860439 0 0.13063399008608062 0 0
          3.8034114715464638 -3.803411471546402 0 -1.6480671408232377 0 0
          -4.440591336630591 4.440591336630739 0 6.570870451191497 0 0
          23.470665308723348 -23.470665308723117 0 17.94644619384492 0 0
          1.508342013733551 -1.5083420137337957 0 0.3230996008078765 0 0
          -1.86123223123434 1.8612322312341991 0 8.282869425358552 0 0
          -12.952841933618755 12.952841933618672 0 -0.7990084630491132 0 0
          -23.38825638100746 23.388256381007587 0 16.094235131237337 0 0
          -3.883163679337406 3.8831636793372475 0 -0.017602712054897995 0 0
          -3.627955024422364 3.627955024422657 0 -0.35126043498221093 0 0
          0.6792987732048172 -0.6792987732047175 0 0.11356692826277487 0 0
          -8.59624126630756 8.596241266307622 0 0.6736269541698694 0 0
          <InformationKey name="L2_NORM_RANGE" location="vtkDataArray" length="2">
            <Value index="0">
              0.61358600896
            </Value>
            <Value index="1">
              37.733528738
            </Value>
          </InformationKey>
        </DataArray>
        <DataArray type="Float64" Name="Press" format="ascii" RangeMin="-7.22666390003511" RangeMax="24.344221906532916">
          11.375959503109776 -3.5402275776122885 -7.22666390003511 2.582314096559534 -7.098746599730807 -4.4467997870081835
          3.3098769508678387 9.145261569115256 24.344221906532916 3.4675014869328424 4.566427659514136 -4.002812884484911
          10.10876475200158
        </DataArray>
      </PointData>
      <CellData>
        <DataArray type="UInt8" Name="vtkGhostType" format="ascii" RangeMin="0" RangeMax="1">
          0 0 1 1 1 1
          1 1 0 0 0 0
          0 0
        </DataArray>
        <DataArray type="Float64" Name="Gauss Stress" NumberOfComponents="6" format="ascii" RangeMin="1.8403036746947696" RangeMax="26.21099978861325">
          -0.8831617052883803 5.37090150504458 0 1.8090628029535718 0 0
          -0.7215634868837097 7.062546028657756 0 2.466118383497275 0 0
          -0.24069180432821205 7.171799273017696 0 0.26996066241514405 0 0
          -1.8337817955715456 -0.15062673948372152 0 -0.035686505544451866 0 0
          -0.2217692632468422 7.645079152515888 0 0.15100016975791317 0 0
          -0.6731475390789534 7.363839979960322 0 0.2622194107336841 0 0
          1.2429686153280053 15.391848546034758 0 0.3868031135358083 0 0
          -2.156807958735172 -0.8562092930567415 0 0.14537695961301972 0 0
          6.258842984717166 7.44472518706288 0 14.107850250146935 0 0
          4.799103666712465 -12.14279269931113 0 8.193749492793412 0 0
          -0.4676567064481826 25.00056365745882 0 7.859365364515592 0 0
          -1.927396024452882 5.413045771084818 0 1.945264607162068 0 0
          -3.0297033443544006 6.030311188114234 0 1.3745982824397147 0 0
          -2.8681051259497297 7.721955711727409 0 2.0316538629834198 0 0
          <InformationKey name="L2_NORM_RANGE" location="vtkDataArray" length="2">
            <Value index="0">
              1.8403036747
            </Value>
            <Value index="1">
              26.210999789
            </Value>
          </InformationKey>
        </DataArray>
        <DataArray type="Float64" Name="Gauss Strain" NumberOfComponents="6" format="ascii" RangeMin="0" RangeMax="0">
          0 0 0 0 0 0
          0 0 0 0 0 0
          0 0 0 0 0 0
          0 0 0 0 0 0
          0 0 0 0 0 0
          0 0 0 0 0 0
          0 0 0 0 0 0
          0 0 0 0 0 0
          0 0 0 0 0 0
          0 0 0 0 0 0
          0 0 0 0 0 0
          0 0 0 0 0 0
          0 0 0 0 0 0
          0 0 0 0 0 0
          <InformationKey name="L2_NORM_RANGE" location="vtkDataArray" length="2">
            <Value index="0">
              0
            </Value>
            <Value index="1">
              0
            </Value>
          </InformationKey>
        </DataArray>
        <DataArray type="Float64" Name="Btraction" NumberOfComponents="3" format="ascii" RangeMin="0" RangeMax="2.1944531346613205">
          0.5268156194094931 -0.031214203546631885 0 0 0 0
          0 0 0 1.6526525825641158 0.06195689508997631 0
          0 0 0 0 0 0
          1.2169172158653798 0.03502612998655637 0 1.985601254292799 -0.0363189991080521 0
          0 0 0 0.16715699593153932 -0.013663861916978647 0
          1.7946450885292122 -0.5967671512305914 0 0 0 0
          0 0 0 2.1944510682600207 0.003011517449839681 0
          <InformationKey name="L2_NORM_RANGE" location="vtkDataArray" length="2">
            <Value index="0">
              0
            </Value>
            <Value index="1">
              2.1944531347
            </Value>
          </InformationKey>
        </DataArray>
      </CellData>
      <Points>
        <DataArray type="Float32" Name="Points" NumberOfComponents="3" format="ascii" RangeMin="10" RangeMax="13.021927811442218">
          11 3.7184319496154785 0 10 6.2815680503845215 0
          11 1.6591010093688965 0 10.5 2.6568450927734375 0
          11 0 0 10 3.61250901222229 0
          10.5 0.8241099119186401 0 10 1.6373380422592163 0
          10 0 0 10.5 5 0
          10.5 7.3431549072265625 0 10 8.340899467468262 0
          11 6.387491226196289 0
          <InformationKey name="L2_NORM_RANGE" location="vtkDataArray" length="2">
            <Value index="0">
              10
            </Value>
            <Value index="1">
              13.021927811
            </Value>
          </InformationKey>
        </DataArray>
      </Points>
      <Cells>
        <DataArray type="Int64" Name="connectivity" format="ascii" RangeMin="0" RangeMax="12">
          3 2 0 5 3 0
          5 0 9 10 11 1
          12 10 1 12 1 9
          9 0 12 5 9 1
          8 4 6 6 4 2
          8 6 7 6 2 7
          7 2 3 7 3 5
        </DataArray>
        <DataArray type="Int64" Name="offsets" format="ascii" RangeMin="3" RangeMax="42">
          3 6 9 12 15 18
          21 24 27 30 33 36
          39 42
        </DataArray>
        <DataArray type="UInt8" Name="types" format="ascii" RangeMin="5" RangeMax="5">
          5 5 5 5 5 5
          5 5 5 5 5 5
          5 5
        </DataArray>
      </Cells>
    </Piece>
  </UnstructuredGrid>
</VTKFile>
