<?xml version="1.0"?>
<VTKFile type="UnstructuredGrid" version="0.1" byte_order="LittleEndian" header_type="UInt32" compressor="vtkZLibDataCompressor">
  <UnstructuredGrid>
    <Piece NumberOfPoints="13" NumberOfCells="14">
      <PointData>
        <DataArray type="Float64" Name="Disp" NumberOfComponents="3" format="ascii" RangeMin="0" RangeMax="1.9632583988578154">
          0.5968093170040062 -0.1849587162734479 0 1.3478537929382974 -0.01187631285285412 0
          0.15233502156663478 -0.08865153746781558 0 0.3728927505960989 -0.028583023425738513 0
          0 0 0 0.6029445782425003 0.07319470925918983 0
          0.06624457666139678 -0.0016833044565879758 0 0.1624099089579108 0.07473454540981755 0
          0 0 0 0.9692692836794146 -0.10587072954621868 0
          1.6408332059368667 -0.2031575463535355 0 1.9608012526061827 -0.0981936274092041 0
          1.3358135549859507 -0.3054720318133145 0
          <InformationKey name="L2_NORM_RANGE" location="vtkDataArray" length="2">
            <Value index="0">
              0
            </Value>
            <Value index="1">
              1.9632583989
            </Value>
          </InformationKey>
        </DataArray>
        <DataArray type="Float64" Name="Sld_traction" NumberOfComponents="3" format="ascii" RangeMin="0" RangeMax="167.2513788880709">
          65.47861383767733 24.211867518348274 0 21.673878807091963 -30.7856328047244 0
          142.08636863853192 41.10237560449552 0 0 0 0
          -45.82242555480702 44.29692600530196 0 53.95425350815062 -53.93064085125961 0
          0 0 0 148.36590909715807 -77.2047975046556 0
          -7.540685746521955 -44.37962019696265 0 0 0 0
          0 0 0 6.2352910062651095 -11.382953389233798 0
          22.227565461983257 16.242524542968393 0
          <InformationKey name="L2_NORM_RANGE" location="vtkDataArray" length="2">
            <Value index="0">
              0
            </Value>
            <Value index="1">
              167.25137889
            </Value>
          </InformationKey>
        </DataArray>
        <DataArray type="Float64" Name="Fld_traction" NumberOfComponents="3" format="ascii" RangeMin="0" RangeMax="6.7018020351296865">
          2.354266803510106 -0.5889934390615553 0 4.98991670758812 -1.3142109465210066 0
          2.3530362227789383 -0.3871744161879017 0 0 0 0
          1.1435608510469135 1.1242923306396178 0 6.15674403700263 -1.4780359337685869 0
          0 0 0 6.61910037749363 -1.0496002623532905 0
          3.375250887459245 -3.713388218274245 0 0 0 0
          0 0 0 3.268409521273446 -0.7441297479997021 0
          2.4129428044185497 -0.6924443711469752 0
          <InformationKey name="L2_NORM_RANGE" location="vtkDataArray" length="2">
            <Value index="0">
              0
            </Value>
            <Value index="1">
              6.7018020351
            </Value>
          </InformationKey>
        </DataArray>
        <DataArray type="Float64" Name="Velocity" NumberOfComponents="3" format="ascii" RangeMin="0" RangeMax="0.014942348303234647">
          -0.0073871571014419435 0.006031089675948412 0 0.005560097156825927 0.011486997633050382 0
          -0.003429918497128037 0.003920523211472911 0 -0.005830125172071182 0.004736442151625803 0
          0 0 0 -0.008112333667502747 0.007510587460870799 0
          -0.0014832317054346601 0.0012032640546781087 0 -0.004211692943114312 0.0010809218469916594 0
          0 0 0 -0.0011000668470052544 0.00837184582840611 0
          0.006864053964281469 0.012614118981659372 0 0.006745623670721734 0.013333054192801362 0
          0.005003449461182363 0.008883762777393379 0
          <InformationKey name="L2_NORM_RANGE" location="vtkDataArray" length="2">
            <Value index="0">
              0
            </Value>
            <Value index="1">
              0.014942348303
            </Value>
          </InformationKey>
        </DataArray>
      </PointData>
      <CellData>
        <DataArray type="UInt8" Name="vtkGhostType" format="ascii" RangeMin="0" RangeMax="1">
          0 0 1 1 1 1
          1 1 0 0 0 0
          0 0
        </DataArray>
        <DataArray type="Float64" Name="Gauss Stress" NumberOfComponents="6" format="ascii" RangeMin="34.70881953001612" RangeMax="584.7733155787233">
          109.0424422187269 -252.94976569177788 0 -27.761546691674337 0 0
          -39.51512126005118 61.23145638757737 0 -143.2316235108237 0 0
          32.405197458765564 -47.02197825034475 0 106.39490968011287 0 0
          -3.571415882019526 23.31165525408809 0 25.465935503716217 0 0
          14.465987290720339 -13.8733349809166 0 34.974141220326665 0 0
          -15.223072902412088 33.41115075872367 0 -46.116664402162804 0 0
          31.23509017257178 -72.35254728100492 0 0.6185972148387939 0 0
          -14.174118822983683 55.63142873153199 0 58.77653654939898 0 0
          28.274307624155178 -24.543094423351384 0 401.8958679705388 0 0
          181.00114998770061 -556.0472243278293 0 3.146209366810901 0 0
          -209.96234877682605 528.2255094118905 0 134.94404909276028 0 0
          -64.44620404571828 67.98640291098236 0 -256.87843261504105 0 0
          80.1267537237293 -81.53918890101652 0 243.11785958707236 0 0
          -60.742276930006014 222.15076285211322 0 122.37204348383315 0 0
          <InformationKey name="L2_NORM_RANGE" location="vtkDataArray" length="2">
            <Value index="0">
              34.70881953
            </Value>
            <Value index="1">
              584.77331558
            </Value>
          </InformationKey>
        </DataArray>
        <DataArray type="Float64" Name="Gauss Strain" NumberOfComponents="6" format="ascii" RangeMin="0.005516275132926335" RangeMax="0.08072141618811816">
          0.012585086712709246 -0.024004813820312387 0 -0.00561223258342807 0 0
          -0.004650551173173256 0.005412295471794282 0 -0.02861274091394564 0 0
          0.0032332438369972456 -0.004719625081645695 0 0.021306177960945485 0 0
          -0.0006513612841240191 0.002033320074336764 0 0.005086317852335312 0 0
          0.001413760189694857 -0.0014202510646897926 0 0.00699502330230692 0 0
          -0.001825611042266972 0.003031922721971003 0 -0.009212165325733334 0 0
          0.003681044999611638 -0.0067090457545843085 0 0.0001240935957314081 0 0
          -0.0020790270416645162 0.004881660410558486 0 0.011721850620110521 0 0
          0 -0.005292814603800489 0 0.08054770726088473 0 0
          0.02220726072211937 -0.05361022676280046 0 0.000647278245514467 0 0
          -0.027365519942940668 0.04493678739231932 0 0.0264343716909927 0 0
          -0.007706619681872584 0.005547257422699181 0 -0.05141687164412519 0 0
          0.006916403736286268 -0.009267777611816408 0 0.048676467840264234 0 0
          -0.008811134471418125 0.019167034904352953 0 0.024205231504365255 0 0
          <InformationKey name="L2_NORM_RANGE" location="vtkDataArray" length="2">
            <Value index="0">
              0.0055162751329
            </Value>
            <Value index="1">
              0.080721416188
            </Value>
          </InformationKey>
        </DataArray>
        <DataArray type="Float64" Name="Btraction" NumberOfComponents="3" format="ascii" RangeMin="0" RangeMax="4.341161458045283">
          1.5691010087630144 -0.3253892850831523 0 0 0 0
          0 0 0 2.7527754096205213 -0.6861135648402361 0
          0 0 0 0 0 0
          1.5890698693095513 -0.42714593673617673 0 3.7155535815302483 -0.9307489600965311 0
          0 0 0 1.16553235794195 0.24570597148390536 0
          3.3314504216509575 -1.587662826875845 0 0 0 0
          0 0 0 4.258614804832085 -0.8425453987072924 0
          <InformationKey name="L2_NORM_RANGE" location="vtkDataArray" length="2">
            <Value index="0">
              0
            </Value>
            <Value index="1">
              4.341161458
            </Value>
          </InformationKey>
        </DataArray>
      </CellData>
      <Points>
        <DataArray type="Float32" Name="Points" NumberOfComponents="3" format="ascii" RangeMin="10" RangeMax="13.021927811442218">
          11 3.7184319496154785 0 10 6.2815680503845215 0
          11 1.6591010093688965 0 10.5 2.6568450927734375 0
          11 0 0 10 3.61250901222229 0
          10.5 0.8241099119186401 0 10 1.6373380422592163 0
          10 0 0 10.5 5 0
          10.5 7.3431549072265625 0 10 8.340899467468262 0
          11 6.387491226196289 0
          <InformationKey name="L2_NORM_RANGE" location="vtkDataArray" length="2">
            <Value index="0">
              10
            </Value>
            <Value index="1">
              13.021927811
            </Value>
          </InformationKey>
        </DataArray>
      </Points>
      <Cells>
        <DataArray type="Int64" Name="connectivity" format="ascii" RangeMin="0" RangeMax="12">
          3 2 0 5 3 0
          5 0 9 10 11 1
          12 10 1 12 1 9
          9 0 12 5 9 1
          8 4 6 6 4 2
          8 6 7 6 2 7
          7 2 3 7 3 5
        </DataArray>
        <DataArray type="Int64" Name="offsets" format="ascii" RangeMin="3" RangeMax="42">
          3 6 9 12 15 18
          21 24 27 30 33 36
          39 42
        </DataArray>
        <DataArray type="UInt8" Name="types" format="ascii" RangeMin="5" RangeMax="5">
          5 5 5 5 5 5
          5 5 5 5 5 5
          5 5
        </DataArray>
      </Cells>
    </Piece>
  </UnstructuredGrid>
</VTKFile>
