<?xml version="1.0"?>
<VTKFile type="UnstructuredGrid" version="0.1" byte_order="LittleEndian" header_type="UInt32" compressor="vtkZLibDataCompressor">
  <UnstructuredGrid>
    <Piece NumberOfPoints="13" NumberOfCells="14">
      <PointData>
        <DataArray type="Float64" Name="Disp" NumberOfComponents="3" format="ascii" RangeMin="0" RangeMax="2.028081943135888">
          0.6149107333708268 -0.19258170811525713 0 1.3910857428266785 -0.017494918334394843 0
          0.1568813768297392 -0.09160655424816636 0 0.38451555097659423 -0.03038837803280045 0
          0 0 0 0.622269442255153 0.07382685187722139 0
          0.06829514331937654 -0.0017688728801431904 0 0.16760411798995906 0.07689759014773832 0
          0 0 0 0.9997249199811976 -0.112793716690755 0
          1.6933059688234253 -0.21701869001469964 0 2.025087769560891 -0.11016303213299014 0
          1.377212258131257 -0.3209465197702352 0
          <InformationKey name="L2_NORM_RANGE" location="vtkDataArray" length="2">
            <Value index="0">
              0
            </Value>
            <Value index="1">
              2.0280819431
            </Value>
          </InformationKey>
        </DataArray>
        <DataArray type="Float64" Name="Sld_traction" NumberOfComponents="3" format="ascii" RangeMin="0" RangeMax="172.27541031688926">
          68.79372866348572 23.751001935110576 0 22.061242384345988 -32.023781584921245 0
          147.00874144178786 41.509994099385835 0 0 0 0
          -47.61637343487355 45.524684398858135 0 54.84271119559152 -55.75455100525206 0
          0 0 0 152.58571446235277 -79.97760150108219 0
          -7.329121948417893 -45.83842736546084 0 0 0 0
          0 0 0 6.2800107435936905 -12.20258420450216 0
          24.424788747774254 15.9534404851403 0
          <InformationKey name="L2_NORM_RANGE" location="vtkDataArray" length="2">
            <Value index="0">
              0
            </Value>
            <Value index="1">
              172.27541032
            </Value>
          </InformationKey>
        </DataArray>
        <DataArray type="Float64" Name="Fld_traction" NumberOfComponents="3" format="ascii" RangeMin="0" RangeMax="6.133196535435963">
          3.220091803358255 -0.8361683529188432 0 4.589064197177745 -1.2414268744232622 0
          3.261975123310634 -0.5552095856371643 0 0 0 0
          1.589781865746658 1.5557696489274386 0 5.65937255038121 -1.3997210546356766 0
          0 0 0 6.052890377077995 -0.9892511437245373 0
          3.0840723030687864 -3.392243808151841 0 0 0 0
          0 0 0 2.887410042502992 -0.6542620706012319 0
          3.2236813290571558 -0.9645921402106611 0
          <InformationKey name="L2_NORM_RANGE" location="vtkDataArray" length="2">
            <Value index="0">
              0
            </Value>
            <Value index="1">
              6.1331965354
            </Value>
          </InformationKey>
        </DataArray>
        <DataArray type="Float64" Name="Velocity" NumberOfComponents="3" format="ascii" RangeMin="0" RangeMax="0.03060558891014189">
          -0.013353300845989347 -0.006881842304494082 0 -0.01707155825711193 -0.010894328972620479 0
          -0.007698580109105291 -0.0014119854071210983 0 -0.010968514586121109 -0.005276023644995381 0
          0 0 0 -0.012518283850130207 -0.007823772983600402 0
          -0.0039120950476319825 -0.0017596511836214528 0 -0.007956812080517447 -0.00498225148135709 0
          0 0 0 -0.015181158345283552 -0.008634054657410628 0
          -0.022656922541476776 -0.0077019010290073076 0 -0.02934965940482659 -0.008677532215859207 0
          -0.016907527905007047 -0.007928863241721183 0
          <InformationKey name="L2_NORM_RANGE" location="vtkDataArray" length="2">
            <Value index="0">
              0
            </Value>
            <Value index="1">
              0.03060558891
            </Value>
          </InformationKey>
        </DataArray>
      </PointData>
      <CellData>
        <DataArray type="UInt8" Name="vtkGhostType" format="ascii" RangeMin="0" RangeMax="1">
          0 0 1 1 1 1
          1 1 0 0 0 0
          0 0
        </DataArray>
        <DataArray type="Float64" Name="Gauss Stress" NumberOfComponents="6" format="ascii" RangeMin="36.118307531815326" RangeMax="602.9093678828572">
          112.88595624643341 -260.47395586747956 0 -31.59599913480404 0 0
          -42.246142578505584 66.13950089530911 0 -147.5398560300853 0 0
          36.325984427660494 -51.16656946807994 0 109.4063273574512 0 0
          -3.262786085627159 23.554712476719974 0 27.185692672089075 0 0
          16.965770327469336 -17.4756424246884 0 36.92612619938199 0 0
          -16.43152236300235 35.65048247155031 0 -49.047404161201555 0 0
          33.051023800651535 -75.7651800988047 0 -1.737561964051735 0 0
          -13.307251826998078 56.86076401836324 0 61.09935117507719 0 0
          30.10404814931305 -25.792499180318806 0 414.33634700103516 0 0
          186.19362841434017 -573.4376505379921 0 0.9484536238951502 0 0
          -216.270942908247 544.4134588508109 0 141.07128124932527 0 0
          -67.62992948272364 72.81982910519096 0 -264.7091972113343 0 0
          86.96163880432812 -86.66514493139485 0 249.9291424789992 0 0
          -60.31250825000757 228.36845278600902 0 128.22027606227948 0 0
          <InformationKey name="L2_NORM_RANGE" location="vtkDataArray" length="2">
            <Value index="0">
              36.118307532
            </Value>
            <Value index="1">
              602.90936788
            </Value>
          </InformationKey>
        </DataArray>
        <DataArray type="Float64" Name="Gauss Strain" NumberOfComponents="6" format="ascii" RangeMin="0.005837144992086662" RangeMax="0.08323838104408694">
          0.012994054335943247 -0.024755903297987047 0 -0.006389264567732382 0 0
          -0.00498182077394882 0.005842606492890923 0 -0.029469483030628386 0 0
          0.0036122478415845927 -0.00514845277316911 0 0.021909889165666017 0 0
          -0.0006298597846452481 0.002048170866328635 0 0.00542959799733384 0 0
          0.0016755876413404587 -0.0017689325542278311 0 0.007386037753628694 0 0
          -0.0019670443082216993 0.003234493657403802 0 -0.00979693219069838 0 0
          0.0038821121359823288 -0.007033700123230235 0 -0.00034860433480775387 0 0
          -0.002026632871350297 0.004969175842390983 0 0.012183310820603801 0 0
          5.5511151231257815e-17 -0.005601957595765539 0 0.08304966074545915 0 0
          0.02282636039052066 -0.05538886364985328 0 0.00019531452887821076 0 0
          -0.028261160334937085 0.046201607832913605 0 0.02761870254344303 0 0
          -0.008127803181020576 0.005927704802778876 0 -0.052981539764771046 0 0
          0.0075009370291263516 -0.009879590659370274 0 0.05003721531385734 0 0
          -0.008891664350461959 0.01964612639363128 0 0.025350638949540392 0 0
          <InformationKey name="L2_NORM_RANGE" location="vtkDataArray" length="2">
            <Value index="0">
              0.0058371449921
            </Value>
            <Value index="1">
              0.083238381044
            </Value>
          </InformationKey>
        </DataArray>
        <DataArray type="Float64" Name="Btraction" NumberOfComponents="3" format="ascii" RangeMin="0" RangeMax="3.984473909877819">
          2.1606889755562957 -0.46379264618533567 0 0 0 0
          0 0 0 2.4921580798935783 -0.6318963150081645 0
          0 0 0 0 0 0
          2.147924377471803 -0.6002534977098346 0 3.4161455825196505 -0.8803826430196462 0
          0 0 0 1.6172523296857637 0.33352002109675805 0
          3.0456542267155937 -1.460498317292126 0 0 0 0
          0 0 0 3.9040876424864015 -0.7963240661200712 0
          <InformationKey name="L2_NORM_RANGE" location="vtkDataArray" length="2">
            <Value index="0">
              0
            </Value>
            <Value index="1">
              3.9844739099
            </Value>
          </InformationKey>
        </DataArray>
      </CellData>
      <Points>
        <DataArray type="Float32" Name="Points" NumberOfComponents="3" format="ascii" RangeMin="10" RangeMax="13.021927811442218">
          11 3.7184319496154785 0 10 6.2815680503845215 0
          11 1.6591010093688965 0 10.5 2.6568450927734375 0
          11 0 0 10 3.61250901222229 0
          10.5 0.8241099119186401 0 10 1.6373380422592163 0
          10 0 0 10.5 5 0
          10.5 7.3431549072265625 0 10 8.340899467468262 0
          11 6.387491226196289 0
          <InformationKey name="L2_NORM_RANGE" location="vtkDataArray" length="2">
            <Value index="0">
              10
            </Value>
            <Value index="1">
              13.021927811
            </Value>
          </InformationKey>
        </DataArray>
      </Points>
      <Cells>
        <DataArray type="Int64" Name="connectivity" format="ascii" RangeMin="0" RangeMax="12">
          3 2 0 5 3 0
          5 0 9 10 11 1
          12 10 1 12 1 9
          9 0 12 5 9 1
          8 4 6 6 4 2
          8 6 7 6 2 7
          7 2 3 7 3 5
        </DataArray>
        <DataArray type="Int64" Name="offsets" format="ascii" RangeMin="3" RangeMax="42">
          3 6 9 12 15 18
          21 24 27 30 33 36
          39 42
        </DataArray>
        <DataArray type="UInt8" Name="types" format="ascii" RangeMin="5" RangeMax="5">
          5 5 5 5 5 5
          5 5 5 5 5 5
          5 5
        </DataArray>
      </Cells>
    </Piece>
  </UnstructuredGrid>
</VTKFile>
