<?xml version="1.0"?>
<VTKFile type="UnstructuredGrid" version="0.1" byte_order="LittleEndian" header_type="UInt32" compressor="vtkZLibDataCompressor">
  <UnstructuredGrid>
    <Piece NumberOfPoints="48" NumberOfCells="84">
      <PointData>
        <DataArray type="Float64" Name="sld_BC" NumberOfComponents="3" format="ascii" RangeMin="0" RangeMax="0">
          0 0 0 0 0 0
          0 0 0 0 0 0
          0 0 0 0 0 0
          0 0 0 0 0 0
          0 0 0 0 0 0
          0 0 0 0 0 0
          0 0 0 0 0 0
          0 0 0 0 0 0
          0 0 0 0 0 0
          0 0 0 0 0 0
          0 0 0 0 0 0
          0 0 0 0 0 0
          0 0 0 0 0 0
          0 0 0 0 0 0
          0 0 0 0 0 0
          0 0 0 0 0 0
          0 0 0 0 0 0
          0 0 0 0 0 0
          0 0 0 0 0 0
          0 0 0 0 0 0
          0 0 0 0 0 0
          0 0 0 0 0 0
          0 0 0 0 0 0
          0 0 0 0 0 0
          <InformationKey name="L2_NORM_RANGE" location="vtkDataArray" length="2">
            <Value index="0">
              0
            </Value>
            <Value index="1">
              0
            </Value>
          </InformationKey>
        </DataArray>
        <DataArray type="Float64" Name="sld_FIXNO" NumberOfComponents="3" format="ascii" RangeMin="1.7320508075688772" RangeMax="1.7320508075688772">
          1 1 1 1 1 1
          -1 -1 -1 1 1 1
          -1 -1 -1 1 1 1
          -1 -1 -1 -1 -1 -1
          -1 -1 -1 1 1 1
          -1 -1 -1 1 1 1
          -1 -1 -1 -1 -1 -1
          -1 -1 -1 -1 -1 -1
          1 1 1 1 1 1
          -1 -1 -1 -1 -1 -1
          -1 -1 -1 -1 -1 -1
          -1 -1 -1 -1 -1 -1
          -1 -1 -1 -1 -1 -1
          -1 -1 -1 -1 -1 -1
          -1 -1 -1 -1 -1 -1
          -1 -1 -1 -1 -1 -1
          -1 -1 -1 -1 -1 -1
          -1 -1 -1 -1 -1 -1
          -1 -1 -1 -1 -1 -1
          -1 -1 -1 -1 -1 -1
          -1 -1 -1 -1 -1 -1
          -1 -1 -1 -1 -1 -1
          -1 -1 -1 -1 -1 -1
          -1 -1 -1 -1 -1 -1
          <InformationKey name="L2_NORM_RANGE" location="vtkDataArray" length="2">
            <Value index="0">
              1.7320508076
            </Value>
            <Value index="1">
              1.7320508076
            </Value>
          </InformationKey>
        </DataArray>
        <DataArray type="Float64" Name="Disp" NumberOfComponents="3" format="ascii" RangeMin="0" RangeMax="0.00001378927435644876">
          0 0 0 0 0 0
          2.088656944151615e-7 9.467404186491763e-8 -2.402414556430504e-7 0 0 0
          -1.5579596686788553e-7 -5.5684453647365146e-8 -2.4825128426982654e-7 0 0 0
          3.786267923772739e-7 5.6909985180802184e-8 -6.858149956299946e-7 -2.7113597980798023e-7 -5.190267907555992e-8 -6.908759811626773e-7
          4.4605987042838804e-7 7.733027107356534e-8 -0.0000013730622740611342 0 0 0
          -4.889415550971355e-7 -8.958894948358662e-8 -0.000001360064682241784 0 0 0
          2.635774677723365e-7 4.3646451641655e-8 -5.827990916989057e-7 -3.138607172142791e-7 -3.145751723754056e-8 -6.136506743240538e-7
          5.807638179787736e-7 1.016473938244524e-7 -0.0000023958627532365125 -5.352655554348064e-7 -7.806793564526586e-8 -0.000002387792260674126
          0 0 0 0 0 0
          6.787167600239456e-7 8.256646702655011e-8 -0.0000035360891631375803 2.1727726067776332e-7 -4.5041130204931794e-9 -5.258022081231874e-7
          -6.25932321160379e-7 -1.5375560083474578e-7 -0.000003477626138781868 -2.0732017748465998e-7 2.08995709887759e-8 -4.941097455403911e-7
          4.613570625818051e-7 3.463245038063603e-8 -0.0000019159505056207272 -4.766309892659983e-7 -4.884328439391776e-8 -0.0000018874819946285931
          7.547311706166573e-7 1.3711925261971597e-7 -0.000005763619379035282 -7.48052257318293e-7 -1.254661453778473e-7 -0.000005728150596514223
          8.501450035229666e-7 1.4292446921371263e-7 -0.0000061271786750263345 7.098663071489804e-7 1.3237165069785103e-7 -0.000004281061594984924
          -7.364544510734307e-7 -1.5205339816989282e-7 -0.0000061194383662414195 -6.869952439367837e-7 -6.841601689690686e-8 -0.000004223634600210696
          8.965421895020299e-7 1.5774265237445582e-7 -0.0000073432682933724435 8.717877274992826e-7 1.8689252797581092e-7 -0.000008889079966478518
          -7.730308921847636e-7 -1.3273450644913852e-7 -0.000007344367126596518 -8.279297740733403e-7 -1.6687564219370425e-7 -0.00000889775021303833
          9.21753947486419e-7 2.0014565151898588e-7 -0.00000874874354873001 -7.819461147176188e-7 -1.5577096102055883e-7 -0.00000874703675251919
          8.850439852442731e-7 1.9494029482533395e-7 -0.000008918825364269675 -8.782980948869107e-7 -1.8403088373472322e-7 -0.00000892758449531502
          9.626467040712235e-7 2.2051480547617087e-7 -0.000010583053579311606 -9.060805592016255e-7 -2.2439830005963948e-7 -0.000010622931421674822
          9.358230850668353e-7 2.3820632678623618e-7 -0.000011241772734562303 -7.860207546688577e-7 -1.4238918645939134e-7 -0.00001124631956691549
          9.060038496124757e-7 2.3538075211587607e-7 -0.000011859992703085512 -8.33573552496699e-7 -1.5617860786897945e-7 -0.000011871663415328288
          9.255221144057875e-7 2.5410850143822695e-7 -0.000012631667497192446 -9.082870508968215e-7 -2.0877260076079964e-7 -0.000012638972096629107
          9.566681742871345e-7 2.6065724400869163e-7 -0.000013667280058645143 -9.863444898566113e-7 -2.838772010876373e-7 -0.000013751022709582278
          <InformationKey name="L2_NORM_RANGE" location="vtkDataArray" length="2">
            <Value index="0">
              0
            </Value>
            <Value index="1">
              1.3789274356e-05
            </Value>
          </InformationKey>
        </DataArray>
      </PointData>
      <CellData>
        <DataArray type="UInt8" Name="vtkGhostType" format="ascii" RangeMin="0" RangeMax="0">
          0 0 0 0 0 0
          0 0 0 0 0 0
          0 0 0 0 0 0
          0 0 0 0 0 0
          0 0 0 0 0 0
          0 0 0 0 0 0
          0 0 0 0 0 0
          0 0 0 0 0 0
          0 0 0 0 0 0
          0 0 0 0 0 0
          0 0 0 0 0 0
          0 0 0 0 0 0
          0 0 0 0 0 0
          0 0 0 0 0 0
        </DataArray>
        <DataArray type="Float64" Name="Gauss Stress" NumberOfComponents="6" format="ascii" RangeMin="28114.937849501657" RangeMax="651786.5173541654">
          -11923.711114105496 -20430.88405110845 -612.7138431878157 2006.249372454662 871.421793217202 -15023.11517958435
          22138.578852208637 4608.951835774213 4610.6667847547205 -13665.205146309585 -9773.399306176674 6292.25414235604
          -384289.74390025425 -164695.6045286804 -164695.6045286804 0 -261681.24502758041 11068.443410084717
          366178.01829912164 136037.30723843919 87279.67249567564 -19541.29539174545 48147.79433542817 -2385.3848534368626
          -279066.3517706813 -119599.86504457772 -119599.86504457772 0 -127050.01587532354 -28498.183768575767
          383368.53005518473 169582.0042830634 181904.81755502668 115660.38116329443 157558.2235855982 48452.271082090854
          -99372.71280782472 -86854.73815505514 111617.06658540358 -96673.80473788531 -106269.10055512712 -66627.51965247221
          39857.969087784004 52049.34340821084 107327.8784752301 -137868.93811432546 -140962.58954038643 34983.400422643834
          -85278.2029261672 -51628.78413063621 -44485.68853868117 25172.39524401748 56616.4758043082 -24129.501963666113
          108471.87523856641 37191.4600982567 28218.383031218324 -16958.078930978372 -30581.648792009568 11577.934718632674
          -460975.80480604013 -170063.19156275142 -252696.62407623004 -70874.53147728855 -338320.8367270916 -8106.224041950865
          348723.44934686745 80966.67938985678 71970.01663674947 -13195.446229190995 58133.52901831154 17000.799181641858
          -28928.255659103797 -8456.499139230335 12125.998046052006 13752.292888544918 10739.806394134495 -12584.197115434654
          -384289.74390025425 -164695.6045286804 -164695.6045286804 0 -261681.24502758041 11068.443410084717
          64819.789655045504 41270.40304040949 46436.25668196408 -124047.4022195437 -151152.33409958574 25787.741000281483
          -279066.3517706813 -119599.86504457772 -119599.86504457772 0 -127050.01587532354 -28498.183768575767
          409733.4160938166 175600.03546877857 175600.03546877857 0 -258847.47038113023 19385.365830994728
          -487899.15514682303 -209099.63792006698 -209099.63792006698 0 -272550.0554289117 -13971.708050662126
          -504211.2313586202 -188890.0681187855 -191910.73258966947 76589.85031632996 -220051.7780138554 -18103.706710752573
          94896.05249418234 13119.380356747313 48424.28710883116 -12202.555466785667 16407.001217027442 -34433.32697006805
          334109.09433663543 87653.59810939015 100533.62409510734 91367.86917743177 209213.1544529415 39166.63916174437
          -171788.317000066 -62845.69659178121 9365.480648877448 17287.20869147828 -38593.06116144013 -33136.98669668408
          -69441.36690889043 -58875.13452611674 41260.73429592948 -1051.336736963799 10073.920217103923 -9357.297689635414
          109398.11759355533 55161.217093791915 51565.46685435139 -91914.46842207658 -174329.49577143596 57380.969154413484
          -9107.118506874387 -7583.018584421676 18334.383358163428 37660.67525315359 -16492.491818728682 -15521.500547268999
          -449190.8175681361 -134797.21065992472 -175196.4084684183 8767.742919501112 -271667.9428390991 11940.695303335464
          -160512.5164926938 -50479.958407391656 -78778.36003985425 44173.80460460167 101294.14188673979 -15340.54587309676
          194401.25949742552 59391.458984815734 -40788.233166752456 -3521.5718354439305 -94102.78832935076 16353.791759807376
          -334881.68155711965 -143473.62579965813 -200443.6141913011 -77772.15971059854 -268149.2622512354 -16857.88745073603
          289648.2709279783 62345.30625130226 -9255.91639467157 2445.3885091475104 72562.49398517859 35950.85208054085
          181961.39150836307 109796.91788154808 24142.567651380756 -12958.32004114386 40649.6062463464 29751.841315297068
          35943.802628018835 9744.398118720452 10292.86780238165 11141.726320090092 -38029.16940123128 3037.866383297906
          137991.83372744394 62106.13536205488 62227.057174996866 17066.23223428446 -34184.47801225051 61963.48227298288
          254462.84136757365 109579.2738934703 83217.45093961284 -26290.08643352581 55165.99003186288 41052.71964306755
          -187982.56911968056 -50473.89389681539 -97532.12254364914 18549.242394790792 -134394.14824409175 28256.559957930247
          271170.44362739375 97420.44023374376 -6348.783553083573 76271.40667068576 131622.2921883646 20986.288866515493
          -101806.23352569461 -8021.905986831959 -30750.775405608052 3733.441359127387 26265.18959897475 26355.389439625727
          203474.0378367462 61439.91669004863 -35379.8031904173 -70462.10408505148 -159920.12723109347 38263.55245148161
          -7001.893940358706 53220.707389295334 31383.906125372265 -22542.571534250455 -105648.3170812957 33447.147547992434
          80421.2276681966 53990.71269805095 57841.84420056554 -40353.34157727077 -58381.95032371871 56046.21178457881
          -203139.4652743233 -69544.59734588186 -64286.95669537027 77052.08648718029 22426.60841532796 -23036.927741627675
          -152416.89249498845 -93461.85869195688 -56245.36326539233 17807.890126508355 56222.520532790906 -51331.30179194828
          51435.808982177376 17706.544798809144 38260.96822498723 -4483.879264553022 -55261.602049722474 1265.4822962179612
          -131005.26920356252 -26921.072737206247 -32768.703708903035 4059.827234115413 48001.522891548826 -17148.34668598992
          -44720.53017275716 -80016.56999393196 -14079.705564454478 -48811.431486102825 -26206.045742006576 -32009.74964112007
          -59183.36282456576 -68963.91402561417 -23834.98418172639 8333.927179445513 -5013.140397945026 -20607.13455954457
          -53496.76823713316 -46434.5193837001 -15370.18741292239 60172.70253034776 -503.59320200255036 -35963.570811861005
          -345476.95108894305 -122528.43643685426 -140401.6162577392 -126774.72496459947 -266999.93307426 -39290.41520503831
          -230185.49573918735 17728.900336550312 -63736.97862079111 -1724.3556895394051 -257341.99561255815 213234.10057142866
          79676.08255286724 64271.36183301016 60524.72643538858 -79873.19740397029 -55754.37398564625 31466.85330687747
          52422.870201752165 21463.267107520107 39506.33431240702 13183.84983710223 -45301.12286915933 2491.174088922994
          -67766.05197121178 -39401.95683066272 -14809.90952093701 27104.283443256456 48600.91610979216 -24479.93275988684
          -79789.31533142849 -49757.2688540425 -28742.004190275966 43617.50413547164 -2070.8596226219224 61228.83476362594
          468336.11382842844 128177.6537366549 189076.10133489053 -45230.17978747038 234535.1281600084 52317.635907357486
          -423578.1029105878 -157475.34474070158 -164194.06323002133 -74324.5223799191 -156489.95229194566 -176.9820396868156
          -273238.91175001697 -135275.51845018932 -112432.35799469636 -7927.847823733862 -195507.2372642325 -75366.9909583786
          489560.22017540585 207730.98468996663 219309.33252497728 79994.97422081651 244206.56466239726 -4102.601850097397
          196133.29209252284 80486.91977964321 26049.041577382013 10500.92940869288 25612.958298120233 24682.037676171407
          51328.8606048855 47715.96541284437 14232.830235490344 1805.7324304046238 -56503.93160362956 10267.2983791174
          -105705.4970269678 -27678.468498755377 -22674.69653809162 45181.168691226034 23627.624557978597 -27125.82292846927
          -95300.54850398362 -33416.41085747355 -21274.59468881181 -1535.0645864691687 7295.910358184381 -15494.52474981107
          78109.12516877227 62801.216781735086 59613.595704777545 -23829.18390641125 -104199.96453320967 32087.809726624553
          418421.0002339103 149487.24198932268 232075.63791726623 41946.55095738167 183743.5399584035 16008.031783902743
          301191.3614719932 51540.92264897884 167522.85048658797 43699.21033106498 183919.87301394282 -247462.13979076868
          -185951.91446531593 -110812.19284200095 -27326.066941898738 -15309.050333850952 -190904.24942561428 -13289.219947518075
          -252761.7256040509 -75722.35170779093 -36842.05794325621 11346.976648066211 -227486.60378358988 -23023.624843217618
          -283912.4080648728 -83186.95149303602 -48426.64261707634 -44477.49728323497 -244900.87569722012 -53742.27937241545
          -320192.2999418255 -100794.3639064773 -64592.833904194515 41628.669473983915 185727.5899696401 -59357.06329800882
          146565.39401560766 62421.76058058752 -8241.41866325801 -68069.61319726123 -126157.52302426574 37849.92212319619
          200631.86112143606 36149.429060568546 96.82201248343335 -17554.800555565842 -154973.74931376847 7640.975151496722
          97635.4197606497 28962.127793047075 -32958.30077600891 -29198.63775661448 -112568.46378247594 1691.4114195243808
          364735.67263368465 145486.9194319552 136925.79249491915 45575.33338399521 157971.55040894242 -10522.543408522291
          385168.09216488263 155900.94177577877 146179.7250574256 -18191.274508695016 195443.305259553 -20374.753752017037
          375999.4493938629 110549.01925550755 129823.55547003896 80045.36730115874 168724.3708339815 14573.556016503277
          -157167.6517622697 -80940.67816171137 -142370.06401931224 -29231.08233985085 -102034.54405628951 -26140.13069683186
          -73822.90369484997 -68549.56164646296 -58852.724727166715 -7481.064182650694 -122553.0629340618 -8725.833334971296
          -188148.22505430682 -58440.577113964966 -90117.62577525369 26890.523267908076 4858.119362105501 -26924.431780390256
          -77326.88543706856 -50437.5822774663 -109266.90535647838 14065.52402779784 48567.057151460984 -17308.970894914986
          131966.58841093892 32216.515945705512 -65599.0582414624 27430.6397982447 14823.775500337728 27587.41351535434
          -228904.1371387049 -76231.95815867822 -107681.81371398775 22882.74718632655 -192721.16076404904 -33279.804414588
          -220887.24840089332 -56546.50235648893 -99371.11035198753 -75097.82358724266 -191419.24061407775 -22299.350185594412
          141818.7682434726 55219.305586359886 -57814.626562475096 -20754.81742027308 -55105.42426416614 9666.029024735955
          159214.04330651416 55119.17271621664 -6637.600235298698 -7513.3055249885465 97398.1068819532 -50209.561693253156
          184723.85273419594 124466.30756342612 21819.48304717004 81827.43738190584 96210.98873714515 60422.493938556436
          <InformationKey name="L2_NORM_RANGE" location="vtkDataArray" length="2">
            <Value index="0">
              28114.93785
            </Value>
            <Value index="1">
              651786.51735
            </Value>
          </InformationKey>
        </DataArray>
        <DataArray type="Float64" Name="Gauss Strain" NumberOfComponents="6" format="ascii" RangeMin="2.2079942125118242e-7" RangeMax="0.000004810844906929517">
          -2.805315872908309e-8 -8.334978281960228e-8 4.5468323531881846e-8 2.6081241841910603e-8 1.1328483311823625e-8 -1.953004973345965e-7
          9.686346633024979e-8 -1.707910927657398e-8 -1.7067962108200676e-8 -1.7764766690202456e-7 -1.2705419098029672e-7 8.179930385062851e-8
          -0.00000142736190591523 0 0 0 -0.0000034018561853585446 1.438897643311013e-7
          0.0000014959146218944362 0 -3.16924625827963e-7 -2.540368400926908e-7 6.259213263605661e-7 -3.10100030946792e-8
          -0.0000010365321637196735 0 0 0 -0.0000016516502063792059 -3.7047638899148493e-7
          0.0000013896124175187882 0 8.009828626776131e-8 0.0000015035849551228277 0.0000020482569066127763 6.29879524067181e-7
          -5.340070566846462e-7 -4.5264022144164405e-7 8.374265093713377e-7 -0.0000012567594615925086 -0.0000013814983072166525 -8.661577554821388e-7
          -3.9775987386241363e-8 3.9467945696533065e-8 3.987784236321582e-7 -0.0000017922961954862304 -0.0000018325136640250233 4.547842054943698e-7
          -2.8221930562685993e-7 -6.349808345590854e-8 -1.7067962108200676e-8 3.2724113817222717e-7 7.360141854560065e-7 -3.1368352552765945e-7
          4.4424461149861956e-7 -1.9078086913393613e-8 -7.740308784914308e-8 -2.204550261027188e-7 -3.975614342961243e-7 1.5051315134222475e-7
          -0.0000016707393005717282 2.2019268550964814e-7 -3.16924625827963e-7 -9.213689092047509e-7 -0.00000439817087745219 -1.0538091254536123e-7
          0.0000015142122026944277 -2.2620680202614135e-7 -2.84685109921339e-7 -1.7154080097948294e-7 7.5573587723805e-7 2.210103893613441e-7
          -1.5014552665575155e-7 -1.707910927657398e-8 1.1670712242776124e-7 1.7877980755108388e-7 1.3961748312374845e-7 -1.6359456250065045e-7
          -0.00000142736190591523 0 0 0 -0.0000034018561853585446 1.438897643311013e-7
          1.9253895869166713e-7 3.9467945696533065e-8 7.304599436663796e-8 -0.000001612616228854068 -0.0000019649803432946143 3.352406330036593e-7
          -0.0000010365321637196735 0 0 0 -0.0000016516502063792059 -3.7047638899148493e-7
          0.0000015218669740627474 0 0 0 -0.000003365017114954693 2.520097558029314e-7
          -0.000001812196861973914 0 0 0 -0.0000035431507205758517 -1.816322046586076e-7
          -0.000001949854955730419 9.973260532850715e-8 8.009828626776131e-8 9.956680541122897e-7 -0.00000286067311418012 -2.3534818723978347e-7
          3.821647612725439e-7 -1.4938360762078366e-7 8.009828626776131e-8 -1.5863322106821365e-7 2.1329101582135668e-7 -4.476332506108846e-7
          0.0000013882646383764313 -2.1369608710066357e-7 -1.299759181935018e-7 0.0000011877822993066127 0.0000027197710078882387 5.091663091026768e-7
          -7.787212610859745e-7 -7.059422843212321e-8 3.987784236321582e-7 2.2473371298921764e-7 -5.017097950987215e-7 -4.3078082705689296e-7
          -3.207852341991713e-7 -2.5210472371114225e-7 3.987784236321582e-7 -1.3667377580529386e-8 1.30960962822351e-7 -1.2164486996526038e-7
          3.869005620455616e-7 3.436070879709953e-8 1.0988332240736086e-8 -0.0000011948880894869953 -0.0000022662834450286668 7.459525990073752e-7
          -6.166263969498458e-8 -5.175599019904194e-8 1.1670712242776124e-7 4.895887782909966e-7 -2.1440239364347284e-7 -2.0177950711449697e-7
          -0.0000017809636591481666 2.625947857552081e-7 0 1.1398065795351443e-7 -0.000003531683256908287 1.5522903894336097e-7
          -6.086751047926002e-7 1.0653652276186387e-7 -7.740308784914308e-8 5.742594598598216e-7 0.0000013168238445276172 -1.9942709635025782e-7
          9.441014587600325e-7 6.653775542806914e-8 -5.846302435571241e-7 -4.5780433860771086e-8 -0.0000012233362482815597 2.1259929287749586e-7
          -0.0000011585325477991595 8.561981462434064e-8 -2.84685109921339e-7 -0.000001011038076237781 -0.0000034859404092660593 -2.191525368595684e-7
          0.0000013686072698549454 -1.0886200054344881e-7 -5.742699477422788e-7 3.179005061891762e-8 9.433124218073215e-7 4.67361077047031e-7
          7.08897729242422e-7 2.3982865066812474e-7 -3.16924625827963e-7 -1.6845816053487013e-7 5.284448812025031e-7 3.867739370988618e-7
          1.4966311425844103e-7 -2.0633015051998477e-8 -1.7067962108200676e-8 1.448424421611712e-7 -4.943792022160066e-7 3.949226298287278e-8
          5.03459379831642e-7 1.020234045661327e-8 1.0988332240736086e-8 2.2186101904569795e-7 -4.443982141592566e-7 8.055252695487774e-7
          9.831191195882438e-7 4.137593100657168e-8 -1.299759181935018e-7 -3.4177112363583547e-7 7.171578704142173e-7 5.336853553598779e-7
          -7.179038209377058e-7 1.7590256801091762e-7 -1.299759181935018e-7 2.4114015113228025e-7 -0.0000017471239271731927 3.673352794530931e-7
          0.0000012192447331159784 8.98697110572535e-8 -5.846302435571241e-7 9.915282867189146e-7 0.0000017110897984487395 2.728217552647014e-7
          -4.5087214553981305e-7 1.5872598346279422e-7 1.098833224074964e-8 4.853473766865602e-8 3.4144746478667173e-7 3.4262006271513445e-7
          9.782800189342839e-7 5.505823148074986e-8 -5.742699477422788e-7 -9.160073531056691e-7 -0.0000020789616540042148 4.97426181869261e-7
          -1.6191638997379496e-7 2.2953051866895638e-7 8.759131045345638e-8 -2.930534299452559e-7 -0.000001373428122056844 4.3481291812390156e-7
          2.343573029930582e-7 6.255895568711156e-8 8.759131045345638e-8 -5.245934405045199e-7 -7.589653542083431e-7 7.286007531995243e-7
          -8.149499953097381e-7 5.341664622513095e-8 8.759131045345638e-8 0.0000010016771243333436 2.9154590939926345e-7 -2.994800606411597e-7
          -5.375236295389184e-7 -1.5431590981921327e-7 8.759131045345638e-8 2.3150257164460852e-7 7.308927669262815e-7 -6.673069232953275e-7
          1.7322777537519234e-7 -4.6012441816701214e-8 8.759131045345638e-8 -5.8290430439189276e-8 -7.18400826646392e-7 1.6451269850833494e-8
          -5.654916813486486e-7 1.110555956826671e-7 7.304599436663796e-8 5.277775404350036e-8 6.240197975901346e-7 -2.2292850691786894e-7
          -8.245823752620616e-8 -3.118824963638422e-7 1.1670712242776124e-7 -6.345486093193366e-7 -3.4067859464608543e-7 -4.16126745334561e-7
          -1.5671846681181796e-7 -2.2029204961863265e-7 7.304599436663796e-8 1.0834105333279166e-7 -6.517082517328533e-8 -2.678927492740794e-7
          -1.7477678099073209e-7 -1.2887216344341717e-7 7.304599436663796e-8 7.822451328945207e-7 -6.546711626033154e-9 -4.67526420554193e-7
          -0.0000013329896764028252 1.1617566883575209e-7 0 -0.0000016480714245397932 -0.00000347099912996538 -5.107753976654981e-7
          -0.0000010819153612695757 5.295282132227192e-7 0 -2.2416623964012264e-8 -0.0000033454459429632554 0.0000027720433074285715
          2.1118628036173808e-7 1.110555956826671e-7 8.67024655981267e-8 -0.0000010383515662516136 -7.248068618134011e-7 4.0906909298940705e-7
          1.7065994887887015e-7 -3.057747123363825e-8 8.67024655981267e-8 1.7139004788232898e-7 -5.889145972990711e-7 3.2385263155998914e-8
          -2.5751246032865933e-7 -7.31458419150904e-8 8.67024655981267e-8 3.5235568476233386e-7 6.31811909427298e-7 -3.1823912587852883e-7
          -2.811976670906648e-7 -8.59893649876558e-8 5.060985532682666e-8 5.670275537611312e-7 -2.6921175094084985e-8 7.959748519271371e-7
          0.0000018657999365348238 -3.452300540617039e-7 5.0609855326827515e-8 -5.879923372371148e-7 0.0000030489566660801082 6.801292667956473e-7
          -0.000001635386402596855 9.428152550740595e-8 5.0609855326827515e-8 -9.662187909389482e-7 -0.000002034369379795293 -2.300766515928602e-9
          -9.94632744082756e-7 -9.787068763387673e-8 5.0609855326827515e-8 -1.030620217085402e-7 -0.0000025415940844350222 -9.79770882458922e-7
          0.0000018072406250546138 -2.4649405600741453e-8 5.0609855326827515e-8 0.0000010399346648706143 0.0000031746853406111644 -5.3333824051266156e-8
          8.208625184270765e-7 6.916109839335872e-8 -2.84685109921339e-7 1.3651208231300748e-7 3.32968457875563e-7 3.2086648979022823e-7
          1.6372110955192544e-7 1.402372908036581e-7 -7.740308784914308e-8 2.3474521595260106e-8 -7.345511108471842e-7 1.334748789285262e-7
          -4.529977375795686e-7 5.417794785381228e-8 8.67024655981267e-8 5.873551929859385e-7 3.0715911925372177e-7 -3.5263569807010047e-7
          -3.9446623420049006e-7 7.780660501825404e-9 8.67024655981267e-8 -1.995583962409919e-8 9.484683465639694e-8 -2.0142882174754385e-7
          2.0692340711409235e-7 1.0742200259835076e-7 8.67024655981267e-8 -3.097793907833462e-7 -0.0000013545995389317256 4.1714152644611914e-7
          0.0000015197606813096679 -2.2830874728015124e-7 3.0851582625148166e-7 5.453051624459616e-7 0.000002388666019459245 2.081044131907356e-7
          0.0000011773611476566158 -4.453667046929775e-7 3.0851582625148166e-7 5.680897343038446e-7 0.0000023909583491812566 -0.0000032170078172799933
          -7.225521826507301e-7 -2.3414399209918275e-7 3.0851582625148166e-7 -1.9901765434006232e-7 -0.000002481755242532985 -1.7275985931773496e-7
          -0.000001094962013543684 5.579391678200614e-8 3.0851582625148166e-7 1.4751069642486073e-7 -0.000002957325849186668 -2.9930712296182893e-7
          -0.0000012221416491591955 8.257381855774352e-8 3.0851582625148166e-7 -5.782074646820544e-7 -0.0000031837113840638615 -6.986496318414007e-7
          -0.0000013528807029931197 7.320588123664353e-8 3.0851582625148166e-7 5.411727031617907e-7 0.0000024144586696053205 -7.716418228741145e-7
          6.515564572020442e-7 1.0462283987441314e-7 -3.5468782521058293e-7 -8.84904971564396e-7 -0.0000016400477993154544 4.920489876015504e-7
          9.487899289976024e-7 -1.2034587939803658e-7 -3.546878252105897e-7 -2.282124072223559e-7 -0.0000020146587410789893 9.933267696945737e-8
          4.941713582776912e-7 4.779496048827418e-8 -3.546878252105897e-7 -3.795822908359881e-7 -0.000001463390029172187 2.198834845381695e-8
          0.000001400059295278112 -2.5057600533129776e-8 -8.070492562386422e-8 5.924793339919376e-7 0.000002053630155316251 -1.367930643107898e-7
          0.000001472719460574607 -1.7517016954568587e-8 -8.070492562386422e-8 -2.3648656861303519e-7 0.0000025407629683741885 -2.648717987762215e-7
          0.0000015194383848809949 -2.0598941101831512e-7 -8.070492562386084e-8 0.0000010405897749150635 0.000002193416820841759 1.8945622821454257e-7
          -4.5087214553981305e-7 4.46031828638161e-8 -3.546878252105897e-7 -3.8000407041806106e-7 -0.0000013264490727317635 -3.3982169905881405e-7
          -1.780110889138052e-7 -1.4373436559928982e-7 -8.070492562386422e-8 -9.725383437445901e-8 -0.0000015931898181428034 -1.1343583335462682e-7
          -7.179038209377058e-7 1.251958906745159e-7 -8.070492562386084e-8 3.495768024828049e-7 6.315555170737151e-8 -3.5001761314507327e-7
          -1.4707769573442573e-7 2.770277480298895e-8 -3.546878252105897e-7 1.8285181236137184e-7 6.313717429689928e-7 -2.250166216338948e-7
          7.099067554983301e-7 6.153128447431277e-8 -5.742699477422788e-7 3.5659831737718106e-7 1.9270908150439042e-7 3.5863637569960635e-7
          -8.686500278845255e-7 1.2371913548564797e-7 -8.070492562386422e-8 2.974757134222451e-7 -0.000002505375089932637 -4.3263745738964397e-7
          -8.705598229417521e-7 1.9765502634687671e-7 -8.070492562386422e-8 -9.762717066341544e-7 -0.0000024884501279830105 -2.898915524127273e-7
          7.129868226815355e-7 1.500903154103032e-7 -5.846302435571241e-7 -2.6981262646355e-7 -7.163705154341598e-7 1.256583773215674e-7
          7.233478578111939e-7 4.6731198974259996e-8 -3.546878252105897e-7 -9.767297182485109e-8 0.0000012661753894653915 -6.527243020122911e-7
          7.041905777550855e-7 3.125165341450817e-7 -3.5468782521058293e-7 0.0000010637566859647758 0.0000012507428535828864 7.854924212012335e-7
          <InformationKey name="L2_NORM_RANGE" location="vtkDataArray" length="2">
            <Value index="0">
              2.2079942125e-07
            </Value>
            <Value index="1">
              4.8108449069e-06
            </Value>
          </InformationKey>
        </DataArray>
      </CellData>
      <Points>
        <DataArray type="Float32" Name="Points" NumberOfComponents="3" format="ascii" RangeMin="0" RangeMax="1.1224972161649325">
          0 0 0.10000000149011612 0 0 0
          0.15030500292778015 0 0.10000000149011612 0 0.16592560708522797 0.10000000149011612
          0.15030500292778015 0 0 0 0.16592560708522797 0
          0.20661930739879608 0.14996789395809174 0.10000000149011612 0.20661930739879608 0.14996789395809174 0
          0.3211615979671478 0 0.10000000149011612 0 0.3345595896244049 0.10000000149011612
          0.3211615979671478 0 0 0 0.3345595896244049 0
          0.17319349944591522 0.3171347975730896 0.10000000149011612 0.17319349944591522 0.3171347975730896 0
          0.3808547854423523 0.2523554861545563 0.10000000149011612 0.3808547854423523 0.2523554861545563 0
          0 0.5 0.10000000149011612 0 0.5 0
          0.5119820833206177 0 0.10000000149011612 0.14524710178375244 0.5 0.10000000149011612