<?xml version="1.0"?>
<VTKFile type="UnstructuredGrid" version="0.1" byte_order="LittleEndian" header_type="UInt32" compressor="vtkZLibDataCompressor">
  <UnstructuredGrid>
    <Piece NumberOfPoints="264" NumberOfCells="140">
      <PointData>
        <DataArray type="Float64" Name="nsi_BC" NumberOfComponents="3" format="ascii" RangeMin="0" RangeMax="44">
          0 0 0 0 0 0
          0 0 0 0 0 0
          0 0 0 0 0 0
          0 0 0 0 0 0
          0 0 0 0 0 0
          0 0 0 0 0 0
          0 0 0 0 0 0
          0 0 0 0 0 0
          0 0 0 0 0 0
          0 0 0 0 0 0
          0 0 0 0 0 0
          0 0 0 0 0 0
          0 0 0 0 0 0
          0 0 0 0 0 0
          0 0 0 0 0 0
          0 0 0 0 0 0
          0 0 0 0 0 0
          0 0 0 0 0 0
          0 0 0 0 0 0
          0 0 0 0 0 0
          0 0 0 0 0 0
          0 0 0 0 0 0
          0 0 0 0 0 0
          0 0 0 0 0 0
          0 0 0 0 0 0
          0 0 0 0 0 0
          0 0 0 0 0 0
          0 0 0 0 0 0
          0 0 0 0 0 0
          0 0 0 0 0 0
          0 0 0 0 0 0
          0 0 0 0 0 0
          0 0 0 0 0 0
          0 0 0 0 0 0
          0 0 0 0 0 0
          0 0 0 0 0 0
          0 0 0 0 0 0
          0 0 0 0 0 0
          0 0 0 0 0 0
          0 0 0 0 0 0
          0 0 0 0 0 0
          0 0 0 0 0 0
          0 0 0 0 0 0
          0 0 0 0 0 0
          0 0 0 0 0 0
          0 0 0 0 0 0
          0 0 0 0 0 0
          0 0 0 0 0 0
          0 0 0 0 0 0
          0 0 0 0 0 0
          0 0 0 0 0 0
          0 0 0 0 0 0
          0 0 0 0 0 0
          0 0 0 0 0 0
          0 0 0 0 0 0
          0 0 0 0 0 0
          0 0 0 0 0 0
          0 0 0 0 0 0
          0 0 0 0 0 0
          0 0 0 0 0 0
          0 0 0 0 0 0
          0 0 0 0 0 0
          0 0 0 0 0 0
          0 0 0 0 0 0
          0 0 0 0 0 0
          0 0 0 0 0 0
          0 0 0 0 0 0
          0 0 0 0 0 0
          0 0 0 0 0 0
          0 0 0 0 0 0
          0 0 0 0 0 0
          0 0 0 0 0 0
          0 0 0 0 0 0
          0 0 0 0 0 0
          0 0 0 0 0 0
          0 0 0 0 0 0
          0 0 0 0 0 0
          0 0 0 0 0 0
          0 0 0 0 0 0
          0 0 0 0 0 0
          0 0 0 0 0 0
          0 0 0 0 0 0
          0 0 0 0 0 0
          0 0 0 0 0 0
          0 0 0 0 0 0
          0 0 0 0 0 0
          0 0 0 0 0 0
          0 0 0 0 0 0
          0 0 0 0 0 0
          0 0 0 0 0 0
          0 0 0 0 0 0
          0 0 0 0 0 0
          0 0 0 0 0 0
          0 0 0 0 0 0
          0 0 0 0 0 0
          0 0 0 0 0 0
          0 0 0 0 0 0
          0 0 0 0 0 0
          0 0 0 0 0 0
          0 0 0 0 0 0
          0 0 0 0 0 0
          0 0 0 0 0 0
          0 0 0 0 0 0
          0 0 0 0 0 0
          0 0 0 0 0 0
          0 0 0 0 0 0
          0 0 0 0 0 0
          0 0 0 0 0 0
          0 0 0 0 0 0
          0 0 0 0 0 0
          0 0 0 0 0 0
          0 0 0 0 0 0
          0 0 0 0 0 0
          0 0 0 0 0 0
          0 0 0 0 0 0
          0 0 0 0 0 0
          0 0 0 0 0 0
          0 0 0 0 0 0
          0 0 0 0 0 0
          0 0 0 0 0 0
          44 0 0 44 0 0
          44 0 0 44 0 0
          44 0 0 44 0 0
          44 0 0 44 0 0
          44 0 0 44 0 0
          44 0 0 0 0 0
          0 0 0 44 0 0
          0 0 0 44 0 0
          44 0 0 44 0 0
          44 0 0 44 0 0
          44 0 0 44 0 0
          44 0 0 44 0 0
          <InformationKey name="L2_NORM_RANGE" location="vtkDataArray" length="2">
            <Value index="0">
              0
            </Value>
            <Value index="1">
              44
            </Value>
          </InformationKey>
        </DataArray>
        <DataArray type="Float64" Name="nsi_FIXNO" NumberOfComponents="3" format="ascii" RangeMin="1" RangeMax="1.7320508075688772">
          0 1 0 0 1 0
          0 1 0 0 1 0
          0 1 0 0 1 0
          0 1 0 0 1 0
          0 1 0 0 1 0
          0 1 0 0 1 0
          0 1 0 0 1 0
          0 1 0 -1 -1 -1
          -1 -1 -1 -1 -1 -1
          -1 -1 -1 -1 -1 -1
          -1 -1 -1 -1 -1 -1
          -1 -1 -1 -1 -1 -1
          -1 -1 -1 -1 -1 -1
          -1 -1 -1 -1 -1 -1
          -1 -1 -1 -1 -1 -1
          0 1 0 0 1 0
          0 1 0 -1 -1 -1
          0 1 0 -1 -1 -1
          0 1 0 -1 -1 -1
          0 1 0 -1 -1 -1
          -1 -1 -1 -1 -1 -1
          -1 -1 -1 -1 -1 -1
          -1 -1 -1 -1 -1 -1
          -1 -1 -1 -1 -1 -1
          -1 -1 -1 -1 -1 -1
          -1 -1 -1 0 1 0
          0 1 0 0 1 0
          -1 -1 -1 -1 -1 -1
          -1 -1 -1 -1 -1 -1
          -1 -1 -1 -1 -1 -1
          -1 -1 -1 -1 -1 -1
          0 1 0 0 1 0
          0 1 0 -1 -1 -1
          0 1 0 -1 -1 -1
          -1 -1 -1 0 1 0
          0 1 0 0 1 0
          -1 -1 -1 0 1 0
          -1 -1 -1 -1 -1 -1
          -1 -1 -1 -1 -1 -1
          -1 -1 -1 -1 -1 -1
          0 1 0 -1 -1 -1
          -1 -1 -1 -1 -1 -1
          0 1 0 -1 -1 -1
          0 1 0 -1 -1 -1
          -1 -1 -1 0 1 0
          -1 -1 -1 -1 -1 -1
          1 0 0 -1 -1 -1
          1 0 0 0 1 0
          1 0 0 0 1 0
          1 0 0 0 1 0
          1 0 0 0 1 0
          -1 -1 -1 -1 -1 -1
          0 1 0 1 0 0
          0 1 0 -1 -1 -1
          -1 -1 -1 1 0 0
          -1 -1 -1 -1 -1 -1
          1 0 0 -1 -1 -1
          -1 -1 -1 1 0 0
          1 0 0 -1 -1 -1
          1 0 0 1 0 0
          -1 -1 -1 0 1 0
          -1 -1 -1 -1 -1 -1
          0 1 0 -1 -1 -1
          -1 -1 -1 -1 -1 -1
          -1 -1 -1 0 1 0
          -1 -1 -1 -1 -1 -1
          -1 -1 -1 -1 -1 -1
          -1 -1 -1 -1 -1 -1
          -1 -1 -1 -1 -1 -1
          -1 -1 -1 -1 -1 -1
          -1 -1 -1 -1 -1 -1
          -1 -1 -1 -1 -1 -1
          -1 -1 -1 -1 -1 -1
          -1 -1 -1 0 1 0
          0 1 0 0 1 0
          -1 -1 -1 -1 -1 -1
          1 0 0 0 1 0
          -1 -1 -1 1 0 0
          0 1 0 -1 -1 -1
          -1 -1 -1 -1 -1 -1
          1 0 0 0 1 0
          -1 -1 -1 1 0 0
          1 0 0 -1 -1 -1
          -1 -1 -1 1 0 0
          1 0 0 1 0 0
          -1 -1 -1 -1 -1 -1
          -1 -1 -1 1 0 0
          -1 -1 -1 1 0 0
          -1 -1 -1 1 0 0
          -1 -1 -1 0 1 0
          0 1 0 1 0 0
          -1 -1 -1 -1 -1 -1
          0 1 0 -1 -1 -1
          -1 -1 -1 -1 -1 -1
          -1 -1 -1 -1 -1 -1
          -1 -1 -1 -1 -1 -1
          -1 -1 -1 -1 -1 -1
          -1 -1 -1 -1 -1 -1
          -1 -1 -1 -1 -1 -1
          -1 -1 -1 -1 -1 -1
          -1 -1 -1 -1 -1 -1
          -1 -1 -1 -1 -1 -1
          -1 -1 -1 -1 -1 -1
          -1 -1 -1 0 1 0
          0 1 0 -1 -1 -1
          -1 -1 -1 0 1 0
          -1 -1 -1 -1 -1 -1
          -1 -1 -1 0 1 0
          0 1 0 -1 -1 -1
          -1 -1 -1 0 1 0
          -1 -1 -1 -1 -1 -1
          -1 -1 -1 -1 -1 -1
          -1 -1 -1 -1 -1 -1
          -1 -1 -1 -1 -1 -1
          -1 -1 -1 -1 -1 -1
          -1 -1 -1 -1 -1 -1
          -1 -1 -1 -1 -1 -1
          0 1 0 0 1 0
          0 1 0 -1 -1 -1
          -1 -1 -1 -1 -1 -1
          1 1 1 1 1 1
          1 1 1 1 1 1
          1 1 1 1 1 1
          1 1 1 1 1 1
          1 1 1 1 1 1
          1 1 1 0 1 0
          0 1 0 1 1 1
          0 1 0 1 1 1
          1 1 1 1 1 1
          1 1 1 1 1 1
          1 1 1 1 1 1
          1 1 1 1 1 1
          <InformationKey name="L2_NORM_RANGE" location="vtkDataArray" length="2">
            <Value index="0">
              1
            </Value>
            <Value index="1">
              1.7320508076
            </Value>
          </InformationKey>
        </DataArray>
        <DataArray type="Float64" Name="Velocity" NumberOfComponents="3" format="ascii" RangeMin="0.7326943334771904" RangeMax="56.63940880515832">
          42.97031852511333 0 -8.001599450684612e-13 42.97031852515164 0 8.609286067748392e-13
          42.77713913974368 0 1.8830351348497226e-12 42.77713913966522 0 -1.9607260342708606e-12
          42.97031852511333 0 -8.001599450684612e-13 42.77713913974368 0 1.8830351348497226e-12
          43.617458925988565 0 -6.623498969804996e-12 43.617458926202694 0 6.6279635143671995e-12
          43.617458925988565 0 -6.623498969804996e-12 45.92496406736426 0 2.693000488957284e-11
          45.92496406672597 0 -2.6641170268152452e-11 45.92496406736426 0 2.693000488957284e-11
          46.37088454442045 0 -9.516481179306667e-11 46.37088454631735 0 9.501226231495788e-11
          46.37088454442045 0 -9.516481179306667e-11 45.04064606569699 0.002493949559276633 -1.151103584208418e-13
          45.040646065654386 0.002493949554994048 1.9625147217919584e-13 45.03350446269761 0.024575293120798234 3.0919949395442195e-13
          43.36607976844687 -0.33066232485619224 -3.930954769842543e-12 45.03350446278085 0.024575293117742973 -3.9209484733379703e-13
          43.366079768902225 -0.33066232453402034 3.4807758240735368e-12 45.04064606569699 0.002493949559276633 -1.151103584208418e-13
          45.03350446269761 0.024575293120798234 3.0919949395442195e-13 44.510266707770555 0.09478243975599467 -1.499105348024955e-12
          43.36607976844687 -0.33066232485619224 -3.930954769842543e-12 44.51026670754748 0.09478243971077048 1.6085841343476282e-12
          44.53614050809041 -1.2463908579004026 1.1836419361462942e-11 44.53614050682277 -1.2463908580131047 -1.1269725422133722e-11
          44.510266707770555 0.09478243975599467 -1.499105348024955e-12 44.53614050809041 -1.2463908579004026 1.1836419361462942e-11
          44.16989452145689 0 2.18045462537915e-10 44.169894516751064 0 -2.1807111491000968e-10
          44.16989452145689 0 2.18045462537915e-10 44.3637494294055 -1.125594599238862 -3.352249797357345e-11
          43.75605458174579 0 -2.436259823669282e-10 44.363749431475014 -1.1255945991109664 3.330190379576034e-11
          43.75605458220161 0 2.439551693905507e-10 44.3637494294055 -1.125594599238862 -3.352249797357345e-11
          43.75605458174579 0 -2.436259823669282e-10 43.320179010273904 0.2081636541211369 6.725054622768369e-12
          43.32017901097167 0.20816365372628332 -6.965658798442358e-12 43.186173308182354 -0.15419898010740737 9.31667803172823e-12
          43.18617330750128 -0.15419897990075976 -8.879262851218075e-12 43.320179010273904 0.2081636541211369 6.725054622768369e-12
          43.186173308182354 -0.15419898010740737 9.31667803172823e-12 44.88810762965055 -0.8354822226223437 6.507751372613912e-11
          44.888107628754305 -0.8354822195484841 -6.484572076585208e-11 43.18058851227432 0.31137769379541685 -2.4418315107929238e-11
          43.1805885106426 0.3113776935069818 2.4578563000729468e-11 44.88810762965055 -0.8354822226223437 6.507751372613912e-11
          43.18058851227432 0.31137769379541685 -2.4418315107929238e-11 44.60757848852709 0 -1.5641398039894405e-9
          44.60757849224437 0 1.5634309711605737e-9 44.60757848852709 0 -1.5641398039894405e-9
          43.29817717688018 0.8575707098842373 -4.2346000463673927e-11 41.14390497779803 -4.511649040544176 -5.223776858158445e-11
          43.29817717669385 0.8575707098399173 4.219160326262903e-11 41.14390497779698 -4.511649043731868 5.19989042613078e-11
          43.29817717688018 0.8575707098842373 -4.2346000463673927e-11 41.14390497779803 -4.511649040544176 -5.223776858158445e-11
          45.0920600043571 1.0038377493637862 -1.2007360633148935e-10 45.09206000364735 1.0038377488349004 1.2032789656328496e-10
          43.02657608571863 0 -9.180150035365936e-13 43.02657608556609 0 9.98557524532405e-13
          42.90782166107063 0 2.1710296190993003e-12 45.18885705343913 -0.17570917523643895 3.8026237652583726e-11
          42.90782166128024 0 -2.269471767346218e-12 45.18885705161824 -0.17570917500174224 -3.796801777412375e-11
          45.0920600043571 1.0038377493637862 -1.2007360633148935e-10 43.02657608571863 0 -9.180150035365936e-13
          42.90782166107063 0 2.1710296190993003e-12 44.04103117417979 0 -7.667847922194205e-12
          45.18885705343913 -0.17570917523643895 3.8026237652583726e-11 44.041031173702066 0 7.819659627563998e-12
          51.64877037786445 -5.309714697045457 3.629998098900922e-11 42.57119012654447 5.216990502934779 1.2923484160432732e-10
          49.17575256593789 -0.4675101913457955 8.134351696161406e-11 51.64877037695902 -5.309714697103923 -3.6203271183103514e-11
          42.571190127353155 5.216990503030554 -1.294971444088679e-10 49.17575256980815 -0.4675101898480632 -8.123635216974872e-11
          44.04103117417979 0 -7.667847922194205e-12 51.64877037786445 -5.309714697045457 3.629998098900922e-11
          42.57119012654447 5.216990502934779 1.2923484160432732e-10 49.17575256593789 -0.4675101913457955 8.134351696161406e-11
          46.02905736485871 0 2.454886666694667e-11 52.909980189882766 -2.6467281382269365 -9.680621926633691e-11
          46.02905736405297 0 -2.441321453128478e-11 52.909980193471306 -2.64672813830944 9.690804903699366e-11
          44.60225231049709 0.646392179695321 2.2570091361500363e-10 46.02905736485871 0 2.454886666694667e-11
          52.909980189882766 -2.6467281382269365 -9.680621926633691e-11 44.602252310298034 0.6463921814163984 -2.2632596881000553e-10
          -2.4359041692371066e-7 -0.73269433347715 -8.89269985433291e-11 44.60225231049709 0.646392179695321 2.2570091361500363e-10
          -2.43590417033847e-7 -0.73269433373527 8.912767129631546e-11 45.461121203693125 0 1.751829369910194e-8
          49.54720529434073 -0.000008610536402798458 2.2579936841443929e-10 45.062729584282536 0 -8.044516524078818e-11
          -2.4359041692371066e-7 -0.73269433347715 -8.89269985433291e-11 45.46112119931092 0 -1.7518297755688762e-8
          49.54720529508229 -0.000008610536386822602 -2.258145238748064e-10 45.0627295867355 0 8.061184329802844e-11
          46.557426632460036 1.3853031504013285 2.4730961550462953e-10 46.55742663242784 1.3853031518531365 -2.4697948251964893e-10
          45.461121203693125 0 1.751829369910194e-8 49.54720529434073 -0.000008610536402798458 2.2579936841443929e-10
          45.062729584282536 0 -8.044516524078818e-11 46.557426632460036 1.3853031504013285 2.4730961550462953e-10
          44.72193905058402 0.7294040289288486 -1.4539004633522513e-9 34.50580471127886 -0.00000599657408844644 2.7981287137305447e-10
          50.325845216560786 0.5843250472835476 -7.545608658680302e-11 44.72193905280881 0.7294040313888583 1.4540128475583319e-9
          34.50580471013641 -0.000005996574077938997 -2.796006963072616e-10 50.32584521783965 0.58432504748993 7.554552078104535e-11
          44.72193905058402 0.7294040289288486 -1.4539004633522513e-9 0.0000011128507413039899 3.3473378894312016 -7.233283764768466e-10
          34.50580471127886 -0.00000599657408844644 2.7981287137305447e-10 50.325845216560786 0.5843250472835476 -7.545608658680302e-11
          0.0000011128507397796495 3.3473378874294317 7.232507137815356e-10 0.0000011128507413039899 3.3473378894312016 -7.233283764768466e-10
          34.03898628551147 8.093464748625978 1.7065817499706792e-9 44.066728499918526 0 1.7067572004626965e-10
          56.63875445638957 0.27225617836202914 -6.016319658779676e-10 34.03898628667465 8.093464744223482 -1.7069297948636116e-9
          44.06672849937959 0 -1.7028857681824005e-10 56.638754451551975 0.27225617937342905 6.012712049999206e-10
          44.97750379133395 0.2221040810890713 -5.133239904146914e-10 44.97750379259366 0.22210408101685322 5.133001883820552e-10
          34.03898628551147 8.093464748625978 1.7065817499706792e-9 44.066728499918526 0 1.7067572004626965e-10
          56.63875445638957 0.27225617836202914 -6.016319658779676e-10 44.97750379133395 0.2221040810890713 -5.133239904146914e-10
          44.045437537713696 0.21793015830961862 -6.149224495887837e-10 44.04543753594108 0.2179301620129264 6.153417918029824e-10
          47.43859070870671 -1.4369256705721285 -1.0874082625724713e-9 44.045437537713696 0.21793015830961862 -6.149224495887837e-10
          47.438590696844564 -1.436925680237323 1.087322366079221e-9 29.305397732242476 -0.9551889513784245 -4.282851656670417e-9
          29.305397729343436 -0.9551889481556418 4.2829098065229325e-9 45.7974764159709 1.479688487721492 9.850797485866898e-9
          49.677567738413984 -2.4252365515188083 1.0866188996312338e-9 45.797476415166805 1.479688490297152 -9.85051629331218e-9
          49.677567742068334 -2.42523655468896 -1.0865139949983249e-9 47.43859070870671 -1.4369256705721285 -1.0874082625724713e-9
          29.305397732242476 -0.9551889513784245 -4.282851656670417e-9 45.7974764159709 1.479688487721492 9.850797485866898e-9
          49.677567738413984 -2.4252365515188083 1.0866188996312338e-9 45.196465573161746 0 -1.6564548248379223e-10
          45.196465571231094 0 1.658953144688013e-10 45.196465573161746 0 -1.6564548248379223e-10
          45.057609540916104 0.41250583590129675 3.5299124201895725e-11 45.05760954485371 0.41250583617587305 -3.6134806202217346e-11
          -0.0000014674958112642161 -4.52413771805482 1.0029899997672981e-8 41.22312730282491 0 -1.0795692373704546e-7
          45.057609540916104 0.41250583590129675 3.5299124201895725e-11 -0.0000014674958091334592 -4.52413770855364 -1.0029879259629517e-8
          41.22312730532676 0 1.0795676521910615e-7 52.26214121735237 -0.6711558983131702 -1.66482651786752e-8
          44.89934921478743 -0.36307227755761434 7.828650179578918e-10 52.26214121575623 -0.6711559000836396 1.664790734052413e-8
          -0.0000014674958112642161 -4.52413771805482 1.0029899997672981e-8 41.22312730282491 0 -1.0795692373704546e-7
          44.89934922266241 -0.3630722735039819 -7.830556556487562e-10 41.021773842255115 -0.000007128948530861075 7.859219892964812e-9
          41.02177386607188 -0.00000712894853451778 -7.859195995900148e-9 52.26214121735237 -0.6711558983131702 -1.66482651786752e-8
          44.89934921478743 -0.36307227755761434 7.828650179578918e-10 41.021773842255115 -0.000007128948530861075 7.859219892964812e-9
          38.041116996957555 -0.0000066109565600180374 1.743181426911601e-8 38.041116989949614 -0.000006610956568902486 -1.7432046657128543e-8
          55.48920162925406 0.064439968045882 1.984545677770493e-9 55.48920163131026 0.06443997143361492 -1.9846315470837823e-9
          39.968847427979014 2.1719434532352446 -5.877979959799726e-8 38.041116996957555 -0.0000066109565600180374 1.743181426911601e-8
          39.96884742810198 2.171943453379581 5.878014413366116e-8 0.00000462273336602907 14.251408584070685 -3.9318910823123716e-8
          55.48920162925406 0.064439968045882 1.984545677770493e-9 0.000004622733374295999 14.251408598587934 3.931904950597875e-8
          39.968847427979014 2.1719434532352446 -5.877979959799726e-8 44.62647917273365 0 -2.014896843490223e-9
          44.626479175517275 0 2.0158361045881954e-9 0.00000462273336602907 14.251408584070685 -3.9318910823123716e-8
          53.00086241955201 2.0415702650637897 -3.61410342870508e-8 53.000862420146795 2.0415702680467067 3.614080418778049e-8
          44.62647917273365 0 -2.014896843490223e-9 53.00086241955201 2.0415702650637897 -3.61410342870508e-8
          45.838692756678796 -0.34277995358263047 1.0588225903962798e-8 45.83869275155986 -0.3427799508420132 -1.0587939877136328e-8
          43.43106309195695 -0.9301493405605482 6.548595035432624e-9 43.431063092276815 -0.9301493425035671 -6.548615590711941e-9
          45.838692756678796 -0.34277995358263047 1.0588225903962798e-8 43.43106309195695 -0.9301493405605482 6.548595035432624e-9
          43.15278150528889 -2.4380627812601645 -6.698131077990227e-8 43.15278149129042 -2.438062794424132 6.698098447695457e-8
          45.891914079153345 -3.664600129887929 -1.0000073472418585e-7 43.15278150528889 -2.4380627812601645 -6.698131077990227e-8
          45.89191407809353 -3.6646001268907265 1.0000082229711515e-7 45.72370551038667 -3.2426362576999317 -5.257314405798452e-8
          45.72370550951307 -3.2426362628296586 5.257357382388685e-8 45.891914079153345 -3.664600129887929 -1.0000073472418585e-7
          45.72370551038667 -3.2426362576999317 -5.257314405798452e-8 48.68424035146282 -0.5128834686096401 3.7996523390554847e-7
          48.684240351666496 -0.512883468643132 -3.7996534614530595e-7 42.60034596399198 -3.7440422168226535 -4.305920370603402e-8
          42.60034596807844 -3.744042217612696 4.3058993209383087e-8 48.68424035146282 -0.5128834686096401 3.7996523390554847e-7
          42.60034596399198 -3.7440422168226535 -4.305920370603402e-8 45.177835370762224 0 1.997648281746206e-8
          45.17783537029182 0 -1.9976956768451444e-8 44.64953298030518 1.5920083543184276 3.8395527411607847e-7
          44.64953298116018 1.5920083560406513 -3.839553861139307e-7 45.177835370762224 0 1.997648281746206e-8
          40.10305794628669 -1.782909182551086 -6.789593428913892e-8 44.64953298030518 1.5920083543184276 3.8395527411607847e-7
          40.10305794017254 -1.782909178693697 6.789574370673087e-8 45.101939965736875 0 5.190494141283705e-7
          45.10193996634947 0 -5.190502138529964e-7 40.10305794628669 -1.782909182551086 -6.789593428913892e-8
          40.77329865982096 0.5759239407264168 4.718550303551416e-7 45.101939965736875 0 5.190494141283705e-7
          40.773298659733136 0.5759239411929746 -4.7185483543488153e-7 43.590279993922636 -1.159429073177283 -8.461826571986608e-8
          43.59027999361344 -1.1594290771646076 8.461817558945674e-8 40.77329865982096 0.5759239407264168 4.718550303551416e-7
          43.590279993922636 -1.159429073177283 -8.461826571986608e-8 40.70716325086766 -0.051506496983533545 4.609451464293273e-7
          40.70716324927166 -0.051506497651630095 -4.609455768290805e-7 40.70716325086766 -0.051506496983533545 4.609451464293273e-7
          41.609570287611795 -1.9578594307595933 4.45928715744237e-7 41.60957028816098 -1.9578594310672448 -4.459287174000949e-7
          41.609570287611795 -1.9578594307595933 4.45928715744237e-7 46.320188682394985 -1.6464381152452272 4.0326367017083807e-7
          46.32018868249595 -1.646438114618678 -4.032644318557753e-7 46.320188682394985 -1.6464381152452272 4.0326367017083807e-7
          40.797766178511836 0 -1.1918634080256232e-7 40.79776617769829 0 1.1918647059267311e-7
          40.797766178511836 0 -1.1918634080256232e-7 43.46677105138572 1.5032084721021195 4.542594129353678e-7
          43.466771052483196 1.503208471327494 -4.5425952102170474e-7 43.46677105138572 1.5032084721021195 4.542594129353678e-7
          44.00000000049267 0 0 44.00000000049267 0 0
          44.00000000049267 0 0 44.00000000049267 0 0
          44.00000000049267 0 0 44.00000000049267 0 0
          44.00000000049266 0 0 44.000000000492676 0 0
          44.00000000049266 0 0 44.00000000049267 0 0
          44.00000000049267 0 0 41.68247414068394 0 5.317897608826001e-7
          41.68247414013643 0 -5.317889893917951e-7 44.00000000049267 0 0
          41.68247414068394 0 5.317897608826001e-7 44.00000000049267 0 0
          44.00000000049267 0 0 44.00000000049267 0 0
          44.00000000049267 0 0 44.00000000049266 0 0
          44.00000000049267 0 0 44.00000000049267 0 0
          44.00000000049267 0 0 44.00000000049267 0 0
          <InformationKey name="L2_NORM_RANGE" location="vtkDataArray" length="2">
            <Value index="0">
              0.73269433348
            </Value>
            <Value index="1">
              56.639408805
            </Value>
          </InformationKey>
        </DataArray>
        <DataArray type="Float64" Name="Pressure" format="ascii" RangeMin="0" RangeMax="39741.95281125777">
          0 0 2465.229752694205 2465.2297526963293 0 2465.229752694205
          5046.315949758284 5046.315949748991 5046.315949758284 7773.658550488266 7773.658550512329 7773.658550488266
          10990.263614084772 10990.263614030515 10990.263614084772 0 0 2726.625152078362
          10473.790542368706 2726.625152074454 10473.79054233433 0 2726.625152078362 5354.893823370222
          10473.790542368706 5354.893823386199 12604.298591730298 12604.298591762605 5354.893823370222 12604.298591730298
          14389.50441420907 14389.50441439529 14389.50441420907 16491.59858826217 18096.683032761048 16491.598588204335
          18096.683031868975 16491.59858826217 18096.683032761048 10648.43850096788 10648.438500915412 16251.904320016536
          16251.904320122792 10648.43850096788 16251.904320016536 19887.603132129694 19887.60313239198 16299.789090239969
          16299.789090279612 19887.603132129694 16299.789090239969 22204.579949975625 22204.579949914656 22204.579949975625
          13232.429858089907 20134.368295974848 13232.429858090847 20134.368295865923 13232.429858089907 20134.368295974848
          16443.35950606209 16443.35950610724 0 0 2481.6379455986125 23307.855310142968
          2481.637945594147 23307.855310128005 16443.35950606209 0 2481.6379455986125 5104.837277394758
          23307.855310142968 5104.837277421029 21837.267738764996 20196.862321586566 23008.35112158623 21837.267738742736
          20196.862321492303 23008.351121609452 5104.837277394758 21837.267738764996 20196.862321586566 23008.35112158623
          7865.211406111574 22986.22953715577 7865.211405981205 22986.229537196927 15805.492152647128 7865.211406111574
          22986.22953715577 15805.492152518917 22847.435732786314 15805.492152647128 22847.435732773756 26553.543140405778
          23747.435949997613 10911.021362659712 22847.435732786314 26553.543140422917 23747.43595008422 10911.021362598734
          20025.444532289686 20025.444532220015 26553.543140405778 23747.435949997613 10911.021362659712 20025.444532289686
          26334.59866159966 23638.14410476933 25550.54991402633 26334.598661564985 23638.14410479713 25550.549913792987
          26334.59866159966 25297.83770592481 23638.14410476933 25550.54991402633 25297.837705894555 25297.83770592481
          25966.740265731107 14207.359101402999 23584.103132445773 25966.740265675548 14207.359101882423 23584.103132380184
          19261.12605916924 19261.12605920962 25966.740265731107 14207.359101402999 23584.103132445773 19261.12605916924
          23415.302663055147 23415.30266310624 27875.59276457276 23415.302663055147 27875.59276377124 27097.451963861586
          27097.45196339972 29141.507337884945 26498.968355029487 29141.507338182644 26498.968355250847 27875.59276457276
          27097.451963861586 29141.507337884945 26498.968355029487 18086.598081030883 18086.598080963533 18086.598081030883
          22927.947026238817 22927.947026248137 29284.585312925123 31593.239347678886 22927.947026238817 29284.58531281587
          31593.23934776187 30528.27829504953 26409.908195442513 30528.278295026343 29284.585312925123 31593.239347678886
          26409.908195170738 29553.835766397315 29553.835765633365 30528.27829504953 26409.908195442513 29553.835766397315
          29951.119031520317 29951.11903191274 29201.571316059235 29201.57131666247 32378.585711218304 29951.119031520317
          32378.58571116116 31054.408577100396 29201.571316059235 31054.408577214435 32378.585711218304 22271.07349551227
          22271.073495490225 31054.408577100396 32325.743973175417 32325.743973115546 22271.07349551227 32325.743973175417
          26540.192728947008 26540.19272911595 29143.112673836018 29143.112675438046 26540.192728947008 29143.112673836018
          33254.91347960338 33254.913479339935 33243.94604362214 33254.91347960338 33243.946043714954 32129.4865565933
          32129.486556347292 33243.94604362214 32129.4865565933 35064.840637892026 35064.84063789442 33635.630343573815
          33635.63034362415 35064.840637892026 33635.630343573815 26618.982027108952 26618.98202716692 35406.80472826305
          35406.80472828256 26618.982027108952 32442.9505959446 35406.80472826305 32442.950596208575 36290.78514214877
          36290.78514216039 32442.9505959446 35593.32376466027 36290.78514214877 35593.32376469443 30723.438638594766
          30723.438638292566 35593.32376466027 30723.438638594766 35622.16221313863 35622.16221311981 35622.16221313863
          35459.252073405536 35459.25207346804 35459.252073405536 35077.12344449705 35077.12344447801 35077.12344449705
          31501.74436499559 31501.744365123912 31501.74436499559 35187.45281223285 35187.45281229847 35187.45281223285
          39741.95281125777 39741.95281125738 39194.71820049698 39741.95281125777 39194.71820049198 39194.71820049698
          38970.42723138735 38970.42723137372 38970.42723138735 39022.344680831724 39022.344680840986 36239.790312305006
          36239.79031227883 39022.344680831724 36239.790312305006 39223.667952006865 39223.66795198932 39223.667952006865
          39592.02729486859 39592.02729484222 39592.02729486859 39402.746593928954 39402.746593938646 39402.746593928954
        </DataArray>
        <DataArray type="Float64" Name="BTraction" NumberOfComponents="3" format="ascii" RangeMin="0" RangeMax="39500.651022757316">
          0.000012098629627248842 -75.35245480088163 -5.219961917152878e-16 0.000023679035870501486 -147.47732060136198 1.0818607112822519e-16
          -0.000012420843009330555 -392.2956737791489 6.543697237075873e-14 -0.00007866533585471752 -2484.5391626557303 -1.5202089266330327e-18
          0.000012098629627248842 -75.35245480088163 -5.219961917152878e-16 -0.000012420843009330555 -392.2956737791489 6.543697237075873e-14
          5.120141436664063e-8 -728.4401584291743 0 3.5455911696856835e-7 -5044.299149581798 -1.1798590143555566e-16
          5.120141436664063e-8 -728.4401584291743 0 0.000037565828092167405 -1566.9858169186564 0
          0.0001904654050432487 -7944.895769042355 1.4039796827841468e-15 0.000037565828092167405 -1566.9858169186564 0
          0.000029280384909705123 -3384.4623638112685 0 0.00009603985368298505 -11101.058671260524 -1.022451209196869e-15
          0.000029280384909705123 -3384.4623638112685 0 0.000009429871387081878 -0.0000017342060056305967 3.7154130206606776e-16
          0.000020430012953414633 -0.00000375719347152887 9.329516235166569e-17 4.3344655567426825e-14 1.4401364164639636e-15 -3.8852949243225064e-14
          8.847495762719586e-14 -5.506439476455489e-14 0 0 0 0
          0 0 0 0.000009429871387081878 -0.0000017342060056305967 3.7154130206606776e-16