<?xml version="1.0"?>
<VTKFile type="UnstructuredGrid" version="0.1" byte_order="LittleEndian" header_type="UInt32" compressor="vtkZLibDataCompressor">
  <UnstructuredGrid>
    <Piece NumberOfPoints="76" NumberOfCells="0">
      <PointData>
        <DataArray type="Float64" Name="nsi_BC" NumberOfComponents="3" format="ascii" RangeMin="0" RangeMax="100">
          0 0 0 0 0 0
          0 0 0 0 0 0
          0 0 0 0 0 0
          0 0 0 0 0 0
          0 0 0 0 0 0
          0 0 0 0 0 0
          0 0 0 0 0 0
          0 0 0 0 0 0
          0 0 0 0 0 0
          0 0 0 0 0 0
          0 0 0 0 0 0
          0 0 0 0 0 0
          0 0 0 0 0 0
          0 0 0 0 0 0
          0 0 0 0 0 0
          0 0 0 0 0 0
          0 0 0 0 0 0
          0 0 0 0 0 0
          0 0 0 0 0 0
          0 0 0 0 0 0
          0 0 0 0 0 0
          100 0 0 100 0 0
          100 0 0 0 0 0
          100 0 0 0 0 0
          100 0 0 0 0 0
          100 0 0 100 0 0
          100 0 0 100 0 0
          0 0 0 0 0 0
          0 0 0 0 0 0
          0 0 0 0 0 0
          0 0 0 0 0 0
          0 0 0 0 0 0
          0 0 0 0 0 0
          0 0 0 0 0 0
          0 0 0 0 0 0
          0 0 0 0 0 0
          0 0 0 0 0 0
          0 0 0 0 0 0
          <InformationKey name="L2_NORM_RANGE" location="vtkDataArray" length="2">
            <Value index="0">
              0
            </Value>
            <Value index="1">
              100
            </Value>
          </InformationKey>
        </DataArray>
        <DataArray type="Float64" Name="nsi_FIXNO" NumberOfComponents="3" format="ascii" RangeMin="1" RangeMax="1.4142135623730951">
          -1 -1 0 -1 -1 0
          1 0 0 -1 -1 0
          -1 -1 0 1 0 0
          -1 -1 0 1 0 0
          1 0 0 -1 -1 0
          -1 -1 0 -1 -1 0
          -1 -1 0 -1 -1 0
          -1 -1 0 1 0 0
          -1 -1 0 -1 -1 0
          -1 -1 0 -1 -1 0
          -1 -1 0 -1 -1 0
          -1 -1 0 1 0 0
          -1 -1 0 -1 -1 0
          -1 -1 0 -1 -1 0
          -1 -1 0 -1 -1 0
          1 0 0 -1 -1 0
          -1 -1 0 -1 -1 0
          1 0 0 -1 -1 0
          -1 -1 0 -1 -1 0
          -1 -1 0 -1 -1 0
          -1 -1 0 -1 -1 0
          1 1 0 1 1 0
          1 1 0 -1 -1 0
          1 1 0 1 0 0
          1 1 0 -1 -1 0
          1 1 0 1 1 0
          1 1 0 1 1 0
          1 0 0 1 0 0
          -1 -1 0 -1 -1 0
          -1 -1 0 -1 -1 0
          -1 -1 0 -1 -1 0
          -1 -1 0 -1 -1 0
          -1 -1 0 -1 -1 0
          -1 -1 0 -1 -1 0
          -1 -1 0 -1 -1 0
          1 0 0 -1 -1 0
          1 0 0 1 0 0
          -1 -1 0 1 0 0
          <InformationKey name="L2_NORM_RANGE" location="vtkDataArray" length="2">
            <Value index="0">
              1
            </Value>
            <Value index="1">
              1.4142135624
            </Value>
          </InformationKey>
        </DataArray>
        <DataArray type="Float64" Name="Velocity" NumberOfComponents="3" format="ascii" RangeMin="2.288490643273977" RangeMax="100.00000000000001">
          42.09375802750468 -9.674699906518768 0 36.530558889756286 -1.2658949889075692 0
          62.2567612656933 -35.94398262125486 0 50.280586456111905 -2.0433970048746195 0
          40.770688462308335 -2.588989460542396 0 19.083312930410507 11.017763442581161 0
          39.20361403363353 -0.805403451089292 0 32.86839236562163 -3.718648580285277e-14 0
          5.670479581807452e-15 3.931768805189587 0 35.97772876295797 1.4154763600977707 0
          30.05738222663715 -11.40276725775182 0 32.48360119824429 2.1247706639567623 0
          25.34056760508824 -5.630586408616581 0 28.086725129484236 12.56304965587073 0
          41.94383404174207 15.31631883027679 0 2.288490643273977 -1.5071959562312284e-16 0
          30.00420190640992 2.2225073396026302 0 14.257429170079549 -0.3958936194462129 0
          22.52838140699667 9.136071559890917 0 26.99263107041075 -4.3368528153348 0
          26.242601723351445 7.114558607721874 0 9.952881857789695 -2.400548487784947 0
          23.23414931297991 -3.2713370552721313 0 33.85097906252756 2.0252396074186537e-14 0
          31.867567308714786 -1.0135402311481714 0 25.11374171876483 2.537723136302932 0
          29.472888296538457 1.7035836980093235 0 27.983607605581273 6.6511967479315635 0
          4.222878291712569 -4.159651290202009 0 27.633397744670166 6.339930724018722 0
          52.50178424932679 -1.6682548006183298e-15 0 15.966611196448145 -0.7712055321976485 0
          35.58543522114732 -1.5986028919465225 0 12.084341925115934 2.641937113419509 0
          22.486032318808398 -9.643821482523607e-15 0 21.339915178425727 6.196029988055076 0
          45.70113079180038 -8.416674460694486 0 15.123545361644203 0.8000267373916702 0
          52.966064796364115 -8.711741963837897 0 9.607364070032293 4.345632848718009 0
          56.89588947174185 1.0832765760758771 0 57.46806912048151 5.746660461315675 0
          99.99999999999999 0 0 100 0 0
          99.99999999999999 0 0 59.10553367784109 12.315827269162883 0
          99.99999999999999 0 0 20.900369238776506 2.664803657854824e-15 0
          100 0 0 55.56764602167878 5.642995561770917 0
          100 0 0 100.00000000000001 0 0
          99.99999999999999 0 0 100.00000000000001 0 0
          20.379553441612437 -11.76614876588382 0 4.615053306449175e-15 -2.999964927553936 0
          36.76261586626926 -15.195254097387695 0 19.21124355068871 -0.10155624014920596 0
          18.63490134751765 -2.2042687206495915 0 30.78010016799505 -6.981554963760769 0
          24.12257669782299 -2.5519560559018823 0 41.91951643103287 -6.918954391938098 0
          23.091992810593784 -3.3164859586291047 0 22.692106568706453 -3.115599811881654 0
          34.461252540561276 -5.643671313982324 0 33.92568746441171 4.977194194443149 0
          28.700458935965052 2.5365110664713737 0 27.512166567616873 -1.5012685569226405 0
          25.38583547150969 0.6261509139803243 0 28.481671337864327 -1.6291047238432337 0
          16.577419496469417 -6.212137219266921e-16 0 17.092278038499064 -2.210590305167303 0
          18.07750845974952 2.3161128063469793e-14 0 38.954905726447194 -6.062131482362457e-14 0
          36.42624436148173 -0.7265639975040926 0 28.26208246464301 1.4486468553175263e-14 0
          <InformationKey name="L2_NORM_RANGE" location="vtkDataArray" length="2">
            <Value index="0">
              2.2884906433
            </Value>
            <Value index="1">
              100
            </Value>
          </InformationKey>
        </DataArray>
        <DataArray type="Float64" Name="Pressure" format="ascii" RangeMin="643512.256192788" RangeMax="1680006.2912861346">
          925764.1769598542 875769.2245795118 960314.2990925417 1009854.7314923418 984059.1391089716 1130605.011026483
          1085523.191654391 865642.1872562172 1215831.7300174201 941122.3740607749 1231282.8473448248 1021559.4407705681
          1243511.850225502 1231047.960655877 1172770.1621398132 1271812.1594949625 1118952.3129806584 1289681.8462251085
          1259981.5915946476 1302955.9519994718 1215772.5459916182 1324045.136982262 1342382.1179106603 1080605.4610590003
          1147269.8485883656 1352155.9719249145 1220248.1213928864 1323921.2120155601 1394710.8368772469 1300668.5593067415
          1400841.2357588215 1417341.5091286723 1404515.2298106793 1428498.558265057 1257686.187338563 1406198.3384587774
          1483146.377190879 1311811.5153796396 1516538.032565766 1379623.507263571 1544034.6434496653 1533133.9243110404
          1579791.6109284328 1585456.391551959 1607913.8245422945 1501841.5733766449 1647060.0500559744 1388840.8039948866
          1680006.2912861346 1463630.5131700027 1671407.0891631283 1651894.7738278352 1593528.955831201 1566297.7253062946
          1148783.368162917 874791.5023005181 899970.9148800406 770614.1442017071 824757.4167312956 830273.2262531179
          1190314.3576428087 1163828.0293475827 760252.7278344167 763346.4809852437 833940.3411653673 997399.351675906
          1094939.1887222973 1233294.7269627368 1155635.0920768492 815170.0122642403 643512.256192788 700340.91656042
          734832.9517097687 942882.8425365178 978365.7669030678 1135160.451593987
        </DataArray>
      </PointData>
      <CellData>
        <DataArray type="UInt8" Name="vtkGhostType" format="ascii" RangeMin="0" RangeMax="1">
          1 1 1 1 0 1
          1 1 1 0 1 1
          0 0 0 0 0 0
          0 0 0 0 1 0
          0 1 0 0 0
        </DataArray>
      </CellData>
      <Points>
        <DataArray type="Float32" Name="Points" NumberOfComponents="3" format="ascii" RangeMin="0" RangeMax="10.845259428233879">
          4.574699878692627 4.995409965515137 0 4.978107929229736 6.251728057861328 0
          4.25 4.433012962341309 0 4.162350177764893 4.7142109870910645 0
          4.403809070587158 5.83139181137085 0 3.75 4.433012962341309 0
          3.8271689414978027 5.076944828033447 0 5.0478739738464355 8 0
          3.5 4 0 4.6403961181640625 7.333686828613281 0
          3.314276933670044 3.7099781036376953 0 4.232917785644531 6.667374134063721 0
          3.129826068878174 3.179774045944214 0 3.314276933670044 4.1429901123046875 0
          3.4148190021514893 4.795746803283691 0 2.6204938888549805 0 0
          3.656277894973755 5.912927150726318 0 2.8785550594329834 3.8529679775238037 0
          2.979095935821533 4.50572395324707 0 2.5717179775238037 2.692473888397217 0
          3.079637050628662 5.158480167388916 0 2.1914169788360596 1.439182996749878 0
          2.3204469680786133 3.3656671047210693 0 3.8300790786743164 8 0
          3.4226009845733643 7.333686828613281 0 2.2134060859680176 4.213673114776611 0
          2.877134084701538 6.474040985107422 0 2.3139469623565674 4.866429805755615 0
          1.7623389959335327 2.8783669471740723 0 2.300493001937866 5.7195940017700195 0
          1.3102469444274902 0 0 1.6552979946136475 3.7263729572296143 0
          1.3102469444274902 1.0974390506744385 0 1.5482569932937622 4.574378967285156 0
          2.6122829914093018 8 0 1.534803032875061 5.4275431632995605 0
          0.8811694979667664 2.5366220474243164 0 2.0668160915374756 7.140354156494141 0
          0.8811694979667664 3.492302894592285 0 1.5213489532470703 6.280706882476807 0
          0.7741286158561707 4.340309143066406 0 0.7741286158561707 5.2238640785217285 0
          0 0 0 0 1.0974390506744385 0
          0 2.194878101348877 0 0.7606747150421143 6.077027797698975 0
          0 3.1505589485168457 0 1.306141972541809 8 0
          0 4.106238842010498 0 0.7606747150421143 7.140354156494141 0
          0 4.98979377746582 0 0 5.873348236083984 0
          0 6.936674118041992 0 0 8 0
          3.75 3.5669870376586914 0 4.5 4 0
          4.537350177764893 4.497704982757568 0 5.4634552001953125 4.2178168296813965 0
          4.981727123260498 4.1089091300964355 0 5.019076824188232 4.6066131591796875 0
          3.3810958862304688 2.5065810680389404 0 3.5655479431152344 3.0367839336395264 0
          5.723298072814941 5.8360819816589355 0 5.593377113342285 5.026949882507324 0
          5.148999214172363 5.415746212005615 0 4.728445053100586 1.5895390510559082 0
          4.054769992828369 2.0480599403381348 0 3.0007948875427246 1.253290057182312 0
          3.674468994140625 0.7947694063186646 0 5.385585784912109 6.918041229248047 0
          7.322544097900391 8 0 6.522921085357666 6.918041229248047 0
          6.185208797454834 8 0 5.057207107543945 0 0
          4.892826080322266 0.7947694063186646 0 3.838850975036621 0 0
          <InformationKey name="L2_NORM_RANGE" location="vtkDataArray" length="2">
            <Value index="0">
              0
            </Value>
            <Value index="1">
              10.845259428
            </Value>
          </InformationKey>
        </DataArray>
      </Points>
      <Cells>
        <DataArray type="Int64" Name="connectivity" format="ascii" RangeMin="1e+299" RangeMax="-1e+299">
        </DataArray>
        <DataArray type="Int64" Name="offsets" format="ascii" RangeMin="1e+299" RangeMax="-1e+299">
        </DataArray>
        <DataArray type="UInt8" Name="types" format="ascii" RangeMin="1e+299" RangeMax="-1e+299">
        </DataArray>
      </Cells>
    </Piece>
  </UnstructuredGrid>
</VTKFile>
