<?xml version="1.0"?>
<VTKFile type="UnstructuredGrid" version="0.1" byte_order="LittleEndian" header_type="UInt32" compressor="vtkZLibDataCompressor">
  <UnstructuredGrid>
    <Piece NumberOfPoints="82" NumberOfCells="0">
      <PointData>
        <DataArray type="Float64" Name="nsi_BC" NumberOfComponents="3" format="ascii" RangeMin="0" RangeMax="0">
          0 0 0 0 0 0
          0 0 0 0 0 0
          0 0 0 0 0 0
          0 0 0 0 0 0
          0 0 0 0 0 0
          0 0 0 0 0 0
          0 0 0 0 0 0
          0 0 0 0 0 0
          0 0 0 0 0 0
          0 0 0 0 0 0
          0 0 0 0 0 0
          0 0 0 0 0 0
          0 0 0 0 0 0
          0 0 0 0 0 0
          0 0 0 0 0 0
          0 0 0 0 0 0
          0 0 0 0 0 0
          0 0 0 0 0 0
          0 0 0 0 0 0
          0 0 0 0 0 0
          0 0 0 0 0 0
          0 0 0 0 0 0
          0 0 0 0 0 0
          0 0 0 0 0 0
          0 0 0 0 0 0
          0 0 0 0 0 0
          0 0 0 0 0 0
          0 0 0 0 0 0
          0 0 0 0 0 0
          0 0 0 0 0 0
          0 0 0 0 0 0
          0 0 0 0 0 0
          0 0 0 0 0 0
          0 0 0 0 0 0
          0 0 0 0 0 0
          0 0 0 0 0 0
          0 0 0 0 0 0
          0 0 0 0 0 0
          0 0 0 0 0 0
          0 0 0 0 0 0
          0 0 0 0 0 0
          <InformationKey name="L2_NORM_RANGE" location="vtkDataArray" length="2">
            <Value index="0">
              0
            </Value>
            <Value index="1">
              0
            </Value>
          </InformationKey>
        </DataArray>
        <DataArray type="Float64" Name="nsi_FIXNO" NumberOfComponents="3" format="ascii" RangeMin="1" RangeMax="1.4142135623730951">
          -1 -1 0 -1 -1 0
          1 0 0 -1 -1 0
          -1 -1 0 -1 -1 0
          -1 -1 0 -1 -1 0
          1 0 0 -1 -1 0
          1 0 0 -1 -1 0
          -1 -1 0 -1 -1 0
          -1 -1 0 1 0 0
          -1 -1 0 1 0 0
          -1 -1 0 -1 -1 0
          -1 -1 0 -1 -1 0
          -1 -1 0 -1 -1 0
          -1 -1 0 1 0 0
          1 0 0 -1 -1 0
          -1 -1 0 -1 -1 0
          -1 -1 0 -1 -1 0
          -1 -1 0 -1 -1 0
          -1 -1 0 -1 -1 0
          -1 -1 0 -1 -1 0
          -1 -1 0 -1 -1 0
          1 0 0 1 0 0
          -1 -1 0 -1 -1 0
          1 0 0 1 0 0
          -1 -1 0 -1 -1 0
          -1 -1 0 -1 -1 0
          1 0 0 -1 -1 0
          -1 -1 0 -1 -1 0
          1 0 0 1 0 0
          -1 -1 0 1 0 0
          -1 -1 0 -1 -1 0
          -1 -1 0 -1 -1 0
          -1 -1 0 1 0 0
          -1 -1 0 1 0 0
          -1 -1 0 -1 -1 0
          -1 -1 0 1 0 0
          -1 -1 0 -1 -1 0
          1 0 0 -1 -1 0
          -1 -1 0 -1 -1 0
          1 0 0 -1 -1 0
          -1 -1 0 -1 -1 0
          -1 -1 0 -1 -1 0
          <InformationKey name="L2_NORM_RANGE" location="vtkDataArray" length="2">
            <Value index="0">
              1
            </Value>
            <Value index="1">
              1.4142135624
            </Value>
          </InformationKey>
        </DataArray>
        <DataArray type="Float64" Name="Velocity" NumberOfComponents="3" format="ascii" RangeMin="0.9789837350914468" RangeMax="53.323465677657666">
          6.065110867098057 0.032603205874047345 0 5.687085770909817 -0.09167728545215004 0
          7.1071954006324445 -5.460029059574916e-15 0 6.174379255481307 -0.0674321770107355 0
          8.320330586381168 0.32605158655866173 0 6.143855874598355 0.2112314626389919 0
          5.395537124334417 -0.017972661982021954 0 5.247179776587314 0.24815607798860348 0
          9.509293675293213 1.5928958130062264e-14 0 7.195187105468603 1.4746859819415472 0
          6.2193313140493744 1.4800426938762854e-14 0 6.13168803010852 -0.39832866254466737 0
          8.012412724009558 1.672813004379041 0 6.8004091186458275 -0.8804217688455541 0
          8.266119319767792 -0.04258777794751036 0 11.732180198009459 -8.599928135180027e-16 0
          9.946351977840353 1.604134255263418 0 6.977598205509083 -1.2587598345110646e-14 0
          8.179916513523908 -1.1276825770641135 0 8.299979569981023 -0.4546205036614142 0
          19.46705950075783 2.4698221493766677 0 8.269344976800543 -1.2317173687083616 0
          10.600677287355436 1.0328067543315103 0 21.97527259094641 3.7474643847154416 0
          15.29546155183218 5.456491600925424 0 19.551115283468345 -3.042529028500379e-14 0
          8.667563481783935 -3.248038316036838e-16 0 18.956384589995434 -0.9513098690249694 0
          9.292627684664103 0.015378544158965394 0 8.759573346705077 -1.1686383369921416 0
          11.538943439643926 -1.7633237106771031 0 16.737627222020556 2.5180474972865166 0
          13.00755405725346 3.365706587017005 0 11.600132968818741 -1.6528313704624793 0
          23.050259694142568 9.405036878840447 0 10.124264388916158 -1.2608956759631467 0
          16.21427078147957 -4.2319506870847645 0 23.286943458979728 8.589574186118037 0
          18.011061528131005 -3.042634057428281 0 18.316490442630773 7.954213753545939 0
          9.359751351699666 1.199182952571298e-14 0 2.8802993453931943e-15 -1.8723070879725934 0
          14.36935606272148 0.6596466885363332 0 17.937586037044454 -8.219186927339365 0
          46.179467946608696 26.661746605285916 0 14.353248324625767 7.357132325642766e-15 0
          14.363857548547719 -1.0431138992486704 0 30.78922365928843 1.17403234208502 0
          22.507317609165042 4.065699608668874 0 12.694913678039224 0.03686636476802007 0
          10.58111742930752 -6.1090152018889405 0 22.108281344188292 -3.8095898301795317 0
          10.21983117032132 -1.8829110436473175 0 14.991314699728736 -1.0216680215168186 0
          5.859493436011411 1.3560731739462082e-14 0 6.922828458110954 1.9432868368335164e-14 0
          6.516046002327382 0.07677815641517154 0 7.036521034510862 -1.593490443894995e-14 0
          7.289010835981694 0.21496023703157158 0 6.568391273639689 0.17003670946375515 0
          5.828508550669854 -0.1351393295469417 0 6.002712169835244 -0.21833256524129813 0
          6.72697878831499 -0.06285172172954606 0 9.932178846267297 5.734350078345006 0
          5.040385063708875 -0.4603351329861132 0 5.160125683109326e-15 3.57790216841588 0
          15.574381217489384 6.951702205276288 0 16.22697751845175 -6.705357102786269 0
          21.463873807391202 -5.345965590305445 0 42.094894398353304 -24.30351534415175 0
          25.142655734818028 -0.21870102793267177 0 11.74852634738858 -3.159820176635079 0
          -0.9789837350914468 6.447569847325454e-17 0 15.470097997369741 1.1748653103974736 0
          18.89413712660252 -0.4912784373218735 0 20.73932055945091 -1.0661302275267213 0
          16.293932599245814 -1.8434552153765946e-14 0 18.23573091050033 0.8967928707895874 0
          -1.378735968312808 -2.1224031548135582 0 13.108715459797772 -2.3142261519925897 0
          15.00491764340418 -2.5014199591960056 0 4.058149452908579 -1.1430268503547119 0
          <InformationKey name="L2_NORM_RANGE" location="vtkDataArray" length="2">
            <Value index="0">
              0.97898373509
            </Value>
            <Value index="1">
              53.323465678
            </Value>
          </InformationKey>
        </DataArray>
        <DataArray type="Float64" Name="Pressure" format="ascii" RangeMin="222427.086122227" RangeMax="854983.6698931293">
          320975.7623376332 315167.4409057015 342513.19894070935 340199.6065997102 363055.576050973 296852.38095226383
          328219.2333886427 352940.73614950414 390847.0567353216 382446.87961794034 305503.1917110967 338282.97891030775
          416635.54862653394 367821.7230022162 393301.3443306587 459585.21371824434 433733.5585640531 344617.6367678108
          381513.45529355557 412673.2363441434 495332.9452813379 410448.4387148562 450474.6163031664 507197.44534963643
          492672.107224812 572252.0331418628 391727.95329446683 596465.2622435789 464806.7423535201 426200.3440038183
          461888.78301464574 609609.5313883947 498118.53314594243 460958.50482731283 589852.1935818573 496736.3097200776
          502387.43736734474 562058.0659799831 507196.0752071985 542541.7713687639 447545.0497743022 525828.8319318081
          668160.294464639 545194.2677896746 587095.3989977875 687447.4386235327 494837.60249003634 624772.2364390356
          659686.8588125525 700984.8251517961 704268.5335324706 712660.0850645412 727238.4060335148 750178.9279841061
          303056.5950194213 222427.086122227 287779.9943125666 265568.68597768067 254760.55150373632 254869.77810004004
          280421.65014359134 298664.6876586356 270880.71240192937 690616.9940527694 790054.360584718 744588.6059801116
          753698.1591265898 754721.7113585778 563607.8125325603 584819.6448762106 616856.611449458 761023.9639919132
          777223.7317833342 618640.8700687031 532264.8591034574 598120.5196103567 525605.5442651336 571170.6752537773
          854983.6698931293 820935.6639751038 795018.1546262808 809282.8569292421
        </DataArray>
      </PointData>
      <CellData>
        <DataArray type="UInt8" Name="vtkGhostType" format="ascii" RangeMin="0" RangeMax="1">
          1 1 1 1 1 1
          0 0 0 0 0 0
          0 0 0 0 0 0
          0 0 0 0 0 0
          0 0 0 0 0 0
          0 0
        </DataArray>
      </CellData>
      <Points>
        <DataArray type="Float32" Name="Points" NumberOfComponents="3" format="ascii" RangeMin="2.6204938888549805" RangeMax="14.14161310867357">
          8.954882621765137 1.125633955001831 0 9.248306274414062 3.769001007080078 0
          8.412951469421387 0 0 8.412951469421387 2.2512669563293457 0
          7.871018886566162 1.125633955001831 0 9.787784576416016 6.643366813659668 0
          8.799636840820312 5.206761837005615 0 7.964282035827637 3.6890289783477783 0
          7.329086780548096 0 0 7.283721923828125 2.2820630073547363 0
          9.491908073425293 8 0 8.50376033782959 6.563395023345947 0
          6.741789817810059 1.1564290523529053 0 7.515613079071045 5.126791000366211 0
          6.835052967071533 3.7198240756988525 0 6.1931471824646 0 0
          6.154493808746338 2.3128581047058105 0 8.407225608825684 8 0
          7.4190778732299805 6.563395023345947 0 6.4895339012146 4.672304153442383 0
          5.605851173400879 1.1564290523529053 0 6.619455814361572 5.481435775756836 0
          5.808973789215088 3.2653369903564453 0 5.441469192504883 1.9511979818344116 0
          5.364596843719482 2.658724069595337 0 5.057207107543945 0 0
          7.322544097900391 8 0 4.892826080322266 0.7947694063186646 0
          5.4634552001953125 4.2178168296813965 0 6.522921085357666 6.918041229248047 0
          5.593377113342285 5.026949882507324 0 4.728445053100586 1.5895390510559082 0
          5.019076824188232 3.611203908920288 0 5.723298072814941 5.8360819816589355 0
          4.651572227478027 2.297065019607544 0 4.981727123260498 4.1089091300964355 0
          5.019076824188232 4.6066131591796875 0 4.574699878692627 3.0045900344848633 0
          5.148999214172363 5.415746212005615 0 4.537350177764893 3.5022950172424316 0
          6.185208797454834 8 0 4.5 4 0
          4.054769992828369 2.0480599403381348 0 4.537350177764893 4.497704982757568 0
          4.25 3.5669870376586914 0 3.838850975036621 0 0
          5.385585784912109 6.918041229248047 0 4.162350177764893 3.2857890129089355 0
          3.977897882461548 2.755584955215454 0 3.674468994140625 0.7947694063186646 0
          3.75 3.5669870376586914 0 3.5655479431152344 3.0367839336395264 0
          3.3810958862304688 2.5065810680389404 0 3.0007948875427246 1.253290057182312 0
          9.496814727783203 0 0 11.661270141601562 8 0
          10.083660125732422 5.286734104156494 0 10.576589584350586 8 0
          10.872469902038574 6.643366813659668 0 10.975410461425781 2.7158799171447754 0
          10.236109733581543 1.3579399585723877 0 9.69417953491211 2.4835739135742188 0
          10.529540061950684 4.001307010650635 0 3.75 4.433012962341309 0
          2.8785550594329834 3.8529679775238037 0 3.5 4 0
          3.314276933670044 4.1429901123046875 0 3.314276933670044 3.7099781036376953 0
          4.574699878692627 4.995409965515137 0 4.25 4.433012962341309 0
          4.162350177764893 4.7142109870910645 0 3.129826068878174 3.179774045944214 0
          2.6204938888549805 0 0 4.232917785644531 6.667374134063721 0
          4.978107929229736 6.251728057861328 0 4.403809070587158 5.83139181137085 0
          5.0478739738464355 8 0 4.6403961181640625 7.333686828613281 0
          1.7623389959335327 2.8783669471740723 0 2.3204469680786133 3.3656671047210693 0
          2.5717179775238037 2.692473888397217 0 2.1914169788360596 1.439182996749878 0
          <InformationKey name="L2_NORM_RANGE" location="vtkDataArray" length="2">
            <Value index="0">
              2.6204938889
            </Value>
            <Value index="1">
              14.141613109
            </Value>
          </InformationKey>
        </DataArray>
      </Points>
      <Cells>
        <DataArray type="Int64" Name="connectivity" format="ascii" RangeMin="1e+299" RangeMax="-1e+299">
        </DataArray>
        <DataArray type="Int64" Name="offsets" format="ascii" RangeMin="1e+299" RangeMax="-1e+299">
        </DataArray>
        <DataArray type="UInt8" Name="types" format="ascii" RangeMin="1e+299" RangeMax="-1e+299">
        </DataArray>
      </Cells>
    </Piece>
  </UnstructuredGrid>
</VTKFile>
