<?xml version="1.0"?>
<VTKFile type="UnstructuredGrid" version="0.1" byte_order="LittleEndian" header_type="UInt32" compressor="vtkZLibDataCompressor">
  <UnstructuredGrid>
    <Piece NumberOfPoints="67" NumberOfCells="2">
      <PointData>
        <DataArray type="Float64" Name="nsi_BC" NumberOfComponents="3" format="ascii" RangeMin="0" RangeMax="0">
          0 0 0 0 0 0
          0 0 0 0 0 0
          0 0 0 0 0 0
          0 0 0 0 0 0
          0 0 0 0 0 0
          0 0 0 0 0 0
          0 0 0 0 0 0
          0 0 0 0 0 0
          0 0 0 0 0 0
          0 0 0 0 0 0
          0 0 0 0 0 0
          0 0 0 0 0 0
          0 0 0 0 0 0
          0 0 0 0 0 0
          0 0 0 0 0 0
          0 0 0 0 0 0
          0 0 0 0 0 0
          0 0 0 0 0 0
          0 0 0 0 0 0
          0 0 0 0 0 0
          0 0 0 0 0 0
          0 0 0 0 0 0
          0 0 0 0 0 0
          0 0 0 0 0 0
          0 0 0 0 0 0
          0 0 0 0 0 0
          0 0 0 0 0 0
          0 0 0 0 0 0
          0 0 0 0 0 0
          0 0 0 0 0 0
          0 0 0 0 0 0
          0 0 0 0 0 0
          0 0 0 0 0 0
          0 0 0
          <InformationKey name="L2_NORM_RANGE" location="vtkDataArray" length="2">
            <Value index="0">
              0
            </Value>
            <Value index="1">
              0
            </Value>
          </InformationKey>
        </DataArray>
        <DataArray type="Float64" Name="nsi_FIXNO" NumberOfComponents="3" format="ascii" RangeMin="1" RangeMax="1.4142135623730951">
          0 1 0 1 0 0
          -1 -1 0 -1 -1 0
          1 0 0 -1 -1 0
          -1 -1 0 -1 -1 0
          -1 -1 0 1 0 0
          -1 -1 0 -1 -1 0
          -1 -1 0 -1 -1 0
          -1 -1 0 1 0 0
          -1 -1 0 -1 -1 0
          -1 -1 0 -1 -1 0
          -1 -1 0 -1 -1 0
          1 0 0 -1 -1 0
          -1 -1 0 -1 -1 0
          -1 -1 0 0 1 0
          -1 -1 0 1 0 0
          1 0 0 -1 -1 0
          -1 -1 0 -1 -1 0
          -1 -1 0 -1 -1 0
          1 0 0 -1 -1 0
          -1 -1 0 1 0 0
          -1 -1 0 1 0 0
          -1 -1 0 -1 -1 0
          1 0 0 -1 -1 0
          -1 -1 0 -1 -1 0
          1 0 0 -1 -1 0
          1 0 0 -1 -1 0
          -1 -1 0 1 0 0
          1 0 0 1 0 0
          -1 -1 0 1 0 0
          -1 -1 0 -1 -1 0
          1 0 0 -1 -1 0
          -1 -1 0 -1 -1 0
          -1 -1 0 -1 -1 0
          -1 -1 0
          <InformationKey name="L2_NORM_RANGE" location="vtkDataArray" length="2">
            <Value index="0">
              1
            </Value>
            <Value index="1">
              1.4142135624
            </Value>
          </InformationKey>
        </DataArray>
        <DataArray type="Float64" Name="Velocity" NumberOfComponents="3" format="ascii" RangeMin="1.7879241588722232" RangeMax="9.509293675293213">
          2.3129138127113618 0 0 1.7879241588722232 -7.443729627988144e-17 0
          1.9637259140334413 0.00038100032011849073 0 1.9885991821396445 -0.048728273771051836 0
          4.077307423365333 1.9701518932685834e-8 0 2.3346419993653593 -0.010735483269648129 0
          3.255837862210771 0.052550104939026225 0 1.8712912972591662 -0.07374360475017583 0
          6.608136228783595 0.30829180673005585 0 7.225650365622008 -5.551025734779591e-15 0
          7.487522714323737 -0.36308198941379427 0 3.338699260538327 -0.3472292235449061 0
          8.818654148755753 -0.8563893480218272 0 9.302395042910213 0.08071945430333505 0
          2.0101589231732517 0.001189063048971154 0 8.7952548588473 1.5076237123474048e-14 0
          2.186401829727942 -0.047066976876387355 0 7.371098220790424 0.038253167463591975 0
          9.065566817233274 -0.06273076846958066 0 8.710669770371606 -0.5278753198026349 0
          8.087202598743298 -0.2013474063866071 0 3.4627690826899475 -0.19023191765764316 0
          7.268768673589732 -6.9801886206716565e-15 0 7.224791068174301 0.5324321436033219 0
          6.9212446320555205 0.1708937057079505 0 8.177344106420469 0.6811918352531046 0
          6.715189334790778 -0.03897804338459547 0 2.414415315576992 0 0
          6.889041618971771 -0.24390880779980478 0 2.0100084334903685 3.7657535218060737e-16 0
          6.743514663404091 1.461907435308881e-14 0 7.06204658757532 0.3649466451060894 0
          7.621664954180759 0.4839116146169769 0 6.938240832109657 0.07935224650574202 0
          6.913191382195237 -0.11779310805933771 0 7.539022564864658 0.1339624612326507 0
          3.974942846269238 -1.9201749063432512e-8 0 7.033307165215629 0.2350108978798206 0
          7.260175820358289 0.24068475036670575 0 6.325006317075289 -7.531647072819587e-15 0
          6.568391273639689 0.17003670946375515 0 6.7744961909327746 -1.430143294838484e-14 0
          7.631809654507445 0.16927166660075346 0 5.828508550669854 -0.1351393295469417 0
          7.493454814281516 1.7041479892966448e-14 0 7.086925166993026 0.29418545252887135 0
          6.72697878831499 -0.06285172172954606 0 6.978449102130839 0.20788338182986643 0
          5.859493436011411 1.3560731739462082e-14 0 6.002712169835244 -0.21833256524129813 0
          7.4461707353665085 -1.2575449758470519e-14 0 6.516046002327382 0.07677815641517154 0
          7.289010835981694 0.21496023703157158 0 6.922828458110954 1.9432868368335164e-14 0
          7.036521034510862 -1.593490443894995e-14 0 9.509293675293213 1.5928958130062264e-14 0
          6.174379255481307 -0.0674321770107355 0 7.1071954006324445 -5.460029059574916e-15 0
          6.065110867098057 0.032603205874047345 0 8.320330586381168 0.32605158655866173 0
          6.2193313140493744 1.4800426938762854e-14 0 6.143855874598355 0.2112314626389919 0
          5.687085770909817 -0.09167728545215004 0 6.8004091186458275 -0.8804217688455541 0
          6.13168803010852 -0.39832866254466737 0 5.395537124334417 -0.017972661982021954 0
          5.247179776587314 0.24815607798860348 0
          <InformationKey name="L2_NORM_RANGE" location="vtkDataArray" length="2">
            <Value index="0">
              1.7879241589
            </Value>
            <Value index="1">
              9.5092936753
            </Value>
          </InformationKey>
        </DataArray>
        <DataArray type="Float64" Name="Pressure" format="ascii" RangeMin="0" RangeMax="390847.0567353216">
          0 20063.559407523135 0 20504.128328001818 47138.73074339585 0
          45945.492561955616 21159.338897642847 68851.9787975283 85889.523010592 67849.42160375656 46626.81850155383
          99476.15696237635 116468.27942482436 0 136592.5215978672 21865.598720718357 74934.16050031516
          111217.08141860149 141319.759816902 159523.20606790864 49907.61726976191 185053.80344961787 148692.8282911239
          178565.49575291568 113901.4323482559 203059.91543121566 0 77258.30848608048 22037.311457859363
          227522.50727924943 188698.56705973693 157680.80139292715 216577.14923781806 241407.06772321858 122379.3373855961
          50920.88191042694 228224.25627666514 199674.61244608785 267141.58073665726 254869.77810004004 88152.18821934011
          165667.5461610053 280421.65014359134 132226.27413566236 244188.5474613813 270880.71240192937 210877.44777167836
          303056.5950194213 298664.6876586356 178312.50725326987 287779.9943125666 254760.55150373632 222427.086122227
          265568.68597768067 390847.0567353216 340199.6065997102 342513.19894070935 320975.7623376332 363055.576050973
          305503.1917110967 296852.38095226383 315167.4409057015 367821.7230022162 338282.97891030775 328219.2333886427
          352940.73614950414
        </DataArray>
      </PointData>
      <CellData>
        <DataArray type="UInt8" Name="vtkGhostType" format="ascii" RangeMin="0" RangeMax="0">
          0 0 0 0 0 0
          0 0 0 0 0 0
          0 0 0 0 0 0
          0 0 0 0 0 0
        </DataArray>
      </CellData>
      <Points>
        <DataArray type="Float32" Name="Points" NumberOfComponents="3" format="ascii" RangeMin="7.329086780548096" RangeMax="21.540659228538015">
          20 0 0 18 0 0
          20 2 0 18 2 0
          16 0 0 20 4 0
          16 2 0 18 4 0
          15.295419692993164 1.1292860507965088 0 14.916139602661133 0 0
          15.295419692993164 3.129286050796509 0 16 4 0
          14.590840339660645 2.2585721015930176 0 14.211560249328613 1.1292860507965088 0
          20 6 0 13.832269668579102 0 0
          18 6 0 15.159649848937988 4.521406173706055 0
          14.455069541931152 3.6506919860839844 0 13.77322006225586 2.4042599201202393 0
          13.393939971923828 1.27497398853302 0 16 6 0
          12.74841022491455 0 0 13.637450218200684 3.796380043029785 0
          12.955599784851074 2.54994797706604 0 14.319310188293457 5.042811870574951 0
          12.310070037841797 1.27497398853302 0 20 8 0
          15.159649848937988 6.521406173706055 0 18 8 0
          11.66454029083252 0 0 12.629960060119629 3.9079220294952393 0
          13.311809539794922 5.154354095458984 0 11.965499877929688 2.6329140663146973 0
          11.319979667663574 1.3579399585723877 0 14.074970245361328 6.521406173706055 0
          16 8 0 11.639860153198242 3.9908881187438965 0
          12.304309844970703 5.265895843505859 0 10.580679893493652 0 0
          10.975410461425781 2.7158799171447754 0 14.91532039642334 8 0
          13.067469596862793 6.63294792175293 0 10.236109733581543 1.3579399585723877 0
          13.830639839172363 8 0 11.193989753723145 5.276315212249756 0
          10.529540061950684 4.001307010650635 0 11.982789993286133 6.63294792175293 0
          9.496814727783203 0 0 9.69417953491211 2.4835739135742188 0
          12.745949745178223 8 0 10.083660125732422 5.286734104156494 0
          10.872469902038574 6.643366813659668 0 11.661270141601562 8 0
          10.576589584350586 8 0 7.329086780548096 0 0
          8.412951469421387 2.2512669563293457 0 8.412951469421387 0 0
          8.954882621765137 1.125633955001831 0 7.871018886566162 1.125633955001831 0
          9.491908073425293 8 0 9.787784576416016 6.643366813659668 0
          9.248306274414062 3.769001007080078 0 7.515613079071045 5.126791000366211 0
          8.50376033782959 6.563395023345947 0 8.799636840820312 5.206761837005615 0
          7.964282035827637 3.6890289783477783 0
          <InformationKey name="L2_NORM_RANGE" location="vtkDataArray" length="2">
            <Value index="0">
              7.3290867805
            </Value>
            <Value index="1">
              21.540659229
            </Value>
          </InformationKey>
        </DataArray>
      </Points>
      <Cells>
        <DataArray type="Int64" Name="connectivity" format="ascii" RangeMin="0" RangeMax="36">
          27 36 11 5 29 21
          7 14 16 5 11 4
          0 7 6 1 2 3
        </DataArray>
        <DataArray type="Int64" Name="offsets" format="ascii" RangeMin="9" RangeMax="18">
          9 18
        </DataArray>
        <DataArray type="UInt8" Name="types" format="ascii" RangeMin="28" RangeMax="28">
          28 28
        </DataArray>
      </Cells>
    </Piece>
  </UnstructuredGrid>
</VTKFile>
