<?xml version="1.0"?>
<VTKFile type="UnstructuredGrid" version="0.1" byte_order="LittleEndian" header_type="UInt32" compressor="vtkZLibDataCompressor">
  <UnstructuredGrid>
    <Piece NumberOfPoints="50" NumberOfCells="69">
      <PointData>
        <DataArray type="Float64" Name="Velocity" NumberOfComponents="3" format="ascii" RangeMin="0.4970488937107775" RangeMax="1.6835074851407006">
          0.8892740721993668 0.17893065878241737 0 1.0532902620421762 0 0
          0.9381184499460848 -0.0139983233769204 0 0.9755742375222671 0.005060466512633349 0
          1.0525779112279605 -0.002330968471908401 0 1.02555549084325 0 0
          0.9425427172346058 -0.15768794236835953 0 0.9360839722213341 0 0
          1.0252701462803404 0.007896484014040557 0 0.9912016467019783 -0.0046706727329996894 0
          1.0188818319613973 0 0 0.9674139025248133 0 0
          1.0019899146220443 0 0 1.0236637420465209 0 0
          0.9932748245287271 -0.011146895575549378 0 1.0174046907490144 -0.016454650572750674 0
          0.9895050728982212 0 0 1.043371287654323 0 0
          0.9818500653940795 -0.01980791689182445 0 1.0039123208138816 -0.033235687543293424 0
          1.043503435854417 -0.029759334272723485 0 0.9622762465589236 0 0
          1.0853137331719787 0 0 0.959391373765935 -0.031408975519934275 0
          1.0006690687151962 -0.08438092983737726 0 1.0855642051714034 -0.0528998643662345 0
          0.9192417762527662 0 0 1.1553144007950376 0 0
          0.9135391558133062 -0.05415066721906136 0 1.0644978111301013 -0.17226104640874618 0
          0.9435540461679978 -0.16252948912028115 0 1.1721974058597595 -0.10006623346644031 0
          0.8497844116634747 0 0 1.2729515859213871 0 0
          1.1549253492629883 -0.25060644196913834 0 0.9465850144086535 -0.2972008384536802 0
          0.7981419273504274 -0.1524295852784391 0 0.7082703435872199 0 0
          1.373113297831298 -0.2816592524433145 0 1.476430761938934 0 0
          1.0753802826810306 -0.4282500981989092 0 1.580933396905519 -0.1685485117197189 0
          1.6053809610911423 -0.36511788743009527 0 0.5857622025483259 -0.2092763420152512 0
          0.4970488937107775 0 0 1.6835074851407006 0 0
          0.7392336509766337 -0.3791732565464974 0 1.231827071598411 -0.756429331887683 0
          0.8977924898298661 -0.6978011957316378 0 1.3754475216329138 -0.4346162582821414 0
          <InformationKey name="L2_NORM_RANGE" location="vtkDataArray" length="2">
            <Value index="0">
              0.49704889371
            </Value>
            <Value index="1">
              1.6835074851
            </Value>
          </InformationKey>
        </DataArray>
        <DataArray type="Float64" Name="Pressure" format="ascii" RangeMin="-0.6278804382743414" RangeMax="0.07353017092801994">
          0.02069200292382874 -0.02251668930371425 -0.02014778073366784 -0.008713229047862644 -0.017909778016641453 -0.04698075428332435
          0.07353017092801994 0.01836437774342314 -0.06400014434694308 -0.06551351381119572 -0.07844812612236453 -0.0507521280420493
          -0.08041025689753525 -0.08824590974998757 -0.09006662923572524 -0.09242993530142647 -0.09315385587322145 -0.09041101773273108
          -0.1018419970984399 -0.10084814934789028 -0.09846144142355656 -0.10664701764309442 -0.09718173558959572 -0.11430495507168562
          -0.10835980762793578 -0.10601846687709701 -0.13186350910958475 -0.09513401538436042 -0.1394077267719089 -0.13441800804288556
          -0.14932822109528693 -0.09898438154952538 -0.1613513528769472 -0.1358933362819849 -0.1473457273043997 -0.2244052876019477
          -0.21265200447791 -0.24279007153798407 -0.22467009611200273 -0.22406190656459782 -0.32945061809509313 -0.3210349281143501
          -0.5390692849611847 -0.41487569046131356 -0.4250842901225982 -0.31716983765906126 -0.4051769070843767 -0.6278804382743414
          -0.5457732897343665 -0.42108154608840004
        </DataArray>
        <DataArray type="Float64" Name="BTraction" NumberOfComponents="3" format="ascii" RangeMin="0" RangeMax="0.4026443249343318">
          -0.006321486988706748 0.0023266683331403114 0 0.0024192302781407644 0.023110409114290877 0
          -0.008331183540563027 0.0007777613126235758 0 0 0 0
          0 0 0 0.001218309584021364 0.048116400007781425 0
          -0.025221734514294526 0.025552967781086327 0 -0.0021461899077351147 0.016816592010481152 0
          0 0 0 0 0 0
          0.0006585754815813555 0.07516873522998598 0 -0.002869847474242814 -0.0443584590869478 0
          -0.0009677706361928166 -0.07763102172918825 0 0.0007083569164905709 0.08762714434828493 0
          0 0 0 0 0 0
          -0.00023804395933612536 -0.09183154061360964 0 0.0009564026583674642 0.09310187879520479 0
          0 0 0 0 0 0
          0 0 0 -0.0006413307337510627 -0.10544115001506142 0
          0.0014026902367309873 0.10000097901626365 0 0 0 0
          0 0 0 0 0 0
          -0.0010903083779945217 -0.12755211809736056 0 0.0018555025397137782 0.11027116939686221 0
          0 0 0 0 0 0
          0 0 0 0 0 0
          -0.0017747768124042945 -0.15897790814735452 0 0.002038756493447977 0.1596825709448363 0
          0 0 0 0 0 0
          0 0 0 -0.0034618471677179364 -0.23730154524206754 0
          0 0 0 0.0012157289088004966 0.25007037791622005 0
          0 0 0 0 0 0
          0 0 0 0 0 0
          -0.004342634329764317 -0.4026209059759586 0 -0.0024352723080216477 0.2797398366322446 0
          0 0 0 0 0 0
          0 0 0 0 0 0
          <InformationKey name="L2_NORM_RANGE" location="vtkDataArray" length="2">
            <Value index="0">
              0
            </Value>
            <Value index="1">
              0.40264432493
            </Value>
          </InformationKey>
        </DataArray>
        <DataArray type="Float64" Name="ALEdispl" NumberOfComponents="3" format="ascii" RangeMin="0" RangeMax="0.6286720715404243">
          0 0 0 0 0 0
          0 0 0 0.06415907344840899 0.010704132810696201 0
          0.04195936385364867 -0.01652836076309004 0 0 0 0
          0 0 0 0 0 0
          0.05992347256141832 -0.0057952849672286205 0 0.10238968756042754 0.0014185371146055168 0
          0 0 0 0 0 0
          0 0 0 0 0 0
          0.1807704563151077 0.0038572319973455027 0 0.13142580718142632 0.023846895704106606 0
          0 0 0 0 0 0
          0.13354472279633217 -0.0409075795336542 0 0.26387375339045555 -0.014772848071132967 0
          0.14153516677761924 0.03291901410541522 0 0 0 0
          0 0 0 0.14812194660486575 -0.060414445773463755 0
          0.3371992585244756 -0.03832171845252467 0 0.1749751642104886 0.033752837801242296 0
          0 0 0 0 0 0
          0.18930962418377306 -0.08024831907190821 0 0.3775127104917117 -0.04344182870337068 0
          0.3616763066919491 -0.10319077896663299 0 0.22918660983206465 0.02666895291422815 0
          0 0 0 0 0 0
          0.41600590330543874 -0.054073065381940115 0 0.44704589306330084 -0.1417577135929611 0
          0.2548473150681022 -0.13307943918416862 0 0 0 0
          0.43097810280445703 -0.014722293407605407 0 0 0 0
          0.555182673786061 -0.1476739325550005 0 0.2648344304841603 -0.008051481647857307 0
          0.519601094640222 -0.06758001851682559 0 0.21895059211242962 -0.14330766854727306 0
          0 0 0 0 0 0
          0.4387165769550195 -0.21179015791666125 0 0.6063994345402572 -0.16585626103401882 0
          0.5480285772489771 -0.19911674663778084 0 0.539999963960168 -0.08051200067524632 0
          <InformationKey name="L2_NORM_RANGE" location="vtkDataArray" length="2">
            <Value index="0">
              0
            </Value>
            <Value index="1">
              0.62867207154
            </Value>
          </InformationKey>
        </DataArray>
        <DataArray type="Float64" Name="ALEveloc" NumberOfComponents="3" format="ascii" RangeMin="0" RangeMax="0.4387303987974835">
          0 0 0 0 0 0
          0 0 0 0.04443649251117571 0.007411840603993761 0
          0.029062879761342683 -0.01144932882801656 0 0 0 0
          0 0 0 0 0 0
          0.041505907532904784 -0.004020304173559055 0 0.07091489582331822 0.0009683685703417008 0
          0 0 0 0 0 0
          0 0 0 0 0 0
          0.1252222406528702 0.0024376812673762675 0 0.09096250482324475 0.016113776550210693 0
          0 0 0 0 0 0
          0.09256188626091927 -0.028710906456864888 0 0.18275109396905953 -0.01108024549350408 0
          0.0978446746510796 0.02212394402351453 0 0 0 0
          0 0 0 0.1027564819839199 -0.04246417074542358 0
          0.23363276297318825 -0.028478994616692913 0 0.12083046653765034 0.022165104914253997 0
          0 0 0 0 0 0
          0.1313718658297779 -0.05666394060084026 0 0.26134699026112806 -0.03336053422473617 0
          0.2508721910544556 -0.07417036588611009 0 0.1582187174081624 0.016320822090790943 0
          0 0 0 0 0 0
          0.2880464439153738 -0.042040198265277245 0 0.3100207622963074 -0.1029341859653854 0
          0.17702150616769174 -0.09435278273041503 0 0 0 0
          0.297947383751864 -0.016293105742644018 0 0 0 0
          0.3850748181524568 -0.10980713473924886 0 0.18298555529845872 -0.010401803413404817 0
          0.3597398197033437 -0.05597499032680886 0 0.15224220741145822 -0.1021794347931615 0
          0 0 0 0 0 0
          0.30499302019386976 -0.15264044954295192 0 0.4207533308921332 -0.12430204090108099 0
          0.38061421166199816 -0.1461807773449642 0 0.3739353373637957 -0.0642786672840242 0
          <InformationKey name="L2_NORM_RANGE" location="vtkDataArray" length="2">
            <Value index="0">
              0
            </Value>
            <Value index="1">
              0.4387303988
            </Value>
          </InformationKey>
        </DataArray>
      </PointData>
      <CellData>
        <DataArray type="UInt8" Name="vtkGhostType" format="ascii" RangeMin="0" RangeMax="0">
          0 0 0 0 0 0
          0 0 0 0 0 0
          0 0 0 0 0 0
          0 0 0 0 0 0
          0 0 0 0 0 0
          0 0 0 0 0 0
          0 0 0 0 0 0
          0 0 0 0 0 0
          0 0 0 0 0 0
          0 0 0 0 0 0
          0 0 0 0 0 0
          0 0 0
        </DataArray>
        <DataArray type="Float64" Name="PStrain" NumberOfComponents="6" format="ascii" RangeMin="6.9415023983018946e-9" RangeMax="0.1732050807568877">
          0.09999999999999999 0.09999999999999999 0 0.09999999999999999 0 0
          1.8255447906975642e-7 1.8255447906975642e-7 0 1.8255447906975642e-7 0 0
          8.518872797755219e-7 8.518872797755219e-7 0 8.518872797755219e-7 0 0
          1.6383846441115496e-7 1.6383846441115496e-7 0 1.6383846441115496e-7 0 0
          1.6782829989277861e-7 1.6782829989277861e-7 0 1.6782829989277861e-7 0 0
          2.4210072582650492e-8 2.4210072582650492e-8 0 2.4210072582650492e-8 0 0
          1.1115070662789555e-7 1.1115070662789555e-7 0 1.1115070662789555e-7 0 0
          1.571875042835373e-8 1.571875042835373e-8 0 1.571875042835373e-8 0 0
          5.247969965393618e-8 5.247969965393618e-8 0 5.247969965393618e-8 0 0
          4.557079404921142e-8 4.557079404921142e-8 0 4.557079404921142e-8 0 0
          1.1507222278994557e-8 1.1507222278994557e-8 0 1.1507222278994557e-8 0 0
          2.051023626033193e-8 2.051023626033193e-8 0 2.051023626033193e-8 0 0
          0.00000136225948736565 0.00000136225948736565 0 0.00000136225948736565 0 0
          8.677712571470552e-9 8.677712571470552e-9 0 8.677712571470552e-9 0 0
          8.677712571470552e-9 8.677712571470552e-9 0 8.677712571470552e-9 0 0
          0.00000136225948736565 0.00000136225948736565 0 0.00000136225948736565 0 0
          4.0076782782400315e-9 4.0076782782400315e-9 0 4.0076782782400315e-9 0 0
          0.0000010031348006025288 0.0000010031348006025288 0 0.0000010031348006025288 0 0
          0.0010034725156745 0.0010034725156745 0 0.0010034725156745 0 0
          0.0006503901611049632 0.0006503901611049632 0 0.0006503901611049632 0 0
          0.0007933127342438901 0.0007933127342438901 0 0.0007933127342438901 0 0
          0.0007830655497058443 0.0007830655497058443 0 0.0007830655497058443 0 0
          0.0005024223949508985 0.0005024223949508985 0 0.0005024223949508985 0 0
          0.0005369377592890237 0.0005369377592890237 0 0.0005369377592890237 0 0
          0.0005022524121830112 0.0005022524121830112 0 0.0005022524121830112 0 0
          0.0005022347527717257 0.0005022347527717257 0 0.0005022347527717257 0 0
          0.0002754985976418347 0.0002754985976418347 0 0.0002754985976418347 0 0
          0.00021710607043348988 0.00021710607043348988 0 0.00021710607043348988 0 0
          0.00040746438614015654 0.00040746438614015654 0 0.00040746438614015654 0 0
          0.0005355242286763409 0.0005355242286763409 0 0.0005355242286763409 0 0
          0.00021822953754393207 0.00021822953754393207 0 0.00021822953754393207 0 0
          0.00009851066279893789 0.00009851066279893789 0 0.00009851066279893789 0 0
          0.0002445767770379931 0.0002445767770379931 0 0.0002445767770379931 0 0
          0.0004003523460553223 0.0004003523460553223 0 0.0004003523460553223 0 0
          0.00018319301691067474 0.00018319301691067474 0 0.00018319301691067474 0 0
          0.0004456734657726965 0.0004456734657726965 0 0.0004456734657726965 0 0
          0.0002354100103107031 0.0002354100103107031 0 0.0002354100103107031 0 0
          0.0002547716814991808 0.0002547716814991808 0 0.0002547716814991808 0 0
          0.00017709919895988595 0.00017709919895988595 0 0.00017709919895988595 0 0
          0.00006238858227851441 0.00006238858227851441 0 0.00006238858227851441 0 0
          0.00008330929424464235 0.00008330929424464235 0 0.00008330929424464235 0 0
          0.0000894403651096559 0.0000894403651096559 0 0.0000894403651096559 0 0
          0.00007382413655227429 0.00007382413655227429 0 0.00007382413655227429 0 0
          0.0000936434831894801 0.0000936434831894801 0 0.0000936434831894801 0 0
          0.0001139431762282881 0.0001139431762282881 0 0.0001139431762282881 0 0
          0.00021378183639275222 0.00021378183639275222 0 0.00021378183639275222 0 0
          0.00011134979269369934 0.00011134979269369934 0 0.00011134979269369934 0 0
          0.00007710495931582393 0.00007710495931582393 0 0.00007710495931582393 0 0
          0.00003155731664016037 0.00003155731664016037 0 0.00003155731664016037 0 0
          0.000027377699707014177 0.000027377699707014177 0 0.000027377699707014177 0 0
          0.000029300700971574054 0.000029300700971574054 0 0.000029300700971574054 0 0
          0.0000321722773437081 0.0000321722773437081 0 0.0000321722773437081 0 0
          0.000019526603120886813 0.000019526603120886813 0 0.000019526603120886813 0 0
          0.000023730518804738883 0.000023730518804738883 0 0.000023730518804738883 0 0
          0.000011767896209358081 0.000011767896209358081 0 0.000011767896209358081 0 0
          0.00000775351975704662 0.00000775351975704662 0 0.00000775351975704662 0 0
          0.000007344699517467037 0.000007344699517467037 0 0.000007344699517467037 0 0
          0.00001042647068780284 0.00001042647068780284 0 0.00001042647068780284 0 0
          0.00003133869430273268 0.00003133869430273268 0 0.00003133869430273268 0 0
          0.000013098606443411545 0.000013098606443411545 0 0.000013098606443411545 0 0
          0.00004028921416084541 0.00004028921416084541 0 0.00004028921416084541 0 0
          0.000005274217747513211 0.000005274217747513211 0 0.000005274217747513211 0 0
          0.000005612550684218134 0.000005612550684218134 0 0.000005612550684218134 0 0
          0.000008681768823909495 0.000008681768823909495 0 0.000008681768823909495 0 0
          0.0008050899239689157 0.0008050899239689157 0 0.0008050899239689157 0 0
          0.0011028882808681087 0.0011028882808681087 0 0.0011028882808681087 0 0
          0.0010944411175032142 0.0010944411175032142 0 0.0010944411175032142 0 0
          0.000748384206647247 0.000748384206647247 0 0.000748384206647247 0 0
          0.0007806578549281668 0.0007806578549281668 0 0.0007806578549281668 0 0
          <InformationKey name="L2_NORM_RANGE" location="vtkDataArray" length="2">
            <Value index="0">
              6.9415023983e-09
            </Value>
            <Value index="1">
              0.17320508076
            </Value>
          </InformationKey>
        </DataArray>
        <DataArray type="Float64" Name="Stress" NumberOfComponents="6" format="ascii" RangeMin="0" RangeMax="0.00004596178025853779">
          0 0 0 0 0 0
          -2.123010295379954e-12 -3.0538686556619337e-11 0 -1.0255185374602121e-9 0 0
          -4.10944542251163e-9 -4.873285035146024e-10 0 -5.631271159819359e-9 0 0
          -4.557252471080892e-10 -1.767515880673321e-10 0 -7.033626287609845e-10 0 0
          -7.889502158838187e-10 2.775980340187237e-10 0 3.4397219674019027e-10 0 0
          -2.5245862892725234e-12 -3.631520277645861e-11 0 -1.012681122053168e-10 0 0
          1.099136824736826e-10 5.626319283898412e-11 0 3.9849945811912735e-10 0 0
          -3.046563871109009e-11 4.8542885111615324e-11 0 5.388333942448721e-12 0 0
          -1.0883173230235115e-10 -6.428004959009171e-11 0 2.0848353635062078e-10 0 0
          -3.0788758070099796e-12 -4.428844430083586e-11 0 2.130542726433497e-10 0 0
          -4.955167438002319e-11 4.195410697256938e-11 0 3.355432147343103e-12 0 0
          -1.1858038998875138e-10 -2.5297512080055558e-11 0 -5.689907760604452e-11 0 0
          3.68621021443017e-11 5.302471616141859e-10 0 1.156132719017245e-8 0 0
          -1.7212875135815027e-12 -2.476005884921084e-11 0 2.924343808405462e-11 0 0
          -1.7212875135815027e-12 -2.476005884921084e-11 0 2.924343808405462e-11 0 0
          -3.68621021443017e-11 -5.302471616141859e-10 0 -1.156132719017245e-8 0 0
          -1.7332596105564818e-11 -1.2049398362157359e-12 0 3.176450934917269e-12 0 0
          -7.818065142075252e-9 -3.504598372159964e-10 0 5.22089948312021e-9 0 0
          -0.00002271247090214604 0.00001642366132980087 0 -0.000036426532343571866 0 0
          -0.000013410584232687685 0.000001009821206018146 0 -0.000026830199289632037 0 0
          -0.0000024011425861048625 -0.000034539512584739176 0 0.000024551076756957075 0 0
          1.78363924694584e-7 0.0000025656964552220927 0 -0.000039262826318856375 0 0
          1.0378126260778815e-7 0.0000014928535467427985 0 -0.00002033174183872393 0 0
          -0.000003934411067543942 -0.000010576349031647278 0 0.00001716559666386317 0 0
          -0.000004010128995881562 -0.000016800772590953095 0 0.00001649841286676437 0 0
          -0.000010415121416891614 6.123650020049214e-7 0 0.000013221868540411639 0 0
          -5.943736559810125e-7 -0.000008549836436034566 0 0.000007617361262001976 0 0
          -0.0000024903377420156926 -4.237795987011202e-8 0 0.000005019974936536298 0 0
          -0.000006270322142538328 0.0000062270722959611215 0 0.000007756804155796072 0 0
          -0.000018799845941366236 0.000009589352341366821 0 0.0000019044763085783441 0 0
          -1.1413167804102181e-7 -0.0000016417402918208518 0 -0.0000065639517319720725 0 0
          -0.0000010324075992274552 2.1019821299505462e-8 0 0.000002224000635114075 0 0
          -0.000005366877676750136 0.0000035419493143527806 0 0.0000019631982652838887 0 0
          -0.000007603371961579955 -0.0000015874304779198625 0 -0.000012324012596356938 0 0
          -0.000002504435302531196 -0.000001709468030627179 0 -0.00000475701880283575 0 0
          -0.00000790772882282068 0.0000137654310508537 0 -0.000005146508758105527 0 0
          -0.000006024402317558739 0.0000053338695749858835 0 -0.000004700484101654125 0 0
          -0.000007179822514448151 0.000004439337789706302 0 -0.000003789570270514316 0 0
          -0.0000024672568221176765 0.000003447443600904711 0 3.959163986034093e-7 0 0
          -4.1390586106055507e-7 9.247013427724936e-7 0 3.265770709323044e-7 0 0
          -9.863349010836916e-7 0.000001304856172531242 0 -0.000001402338002089456 0 0
          -5.8860939949207267e-8 -8.466919823462891e-7 0 -0.000002042063349240462 0 0
          -8.229907653085051e-7 -7.142783238393133e-7 0 -0.0000014945984513835406 0 0
          -1.3103442454038366e-7 -0.0000018848797991578268 0 0.0000020687025758618284 0 0
          -0.000002471679801884408 2.3293367615656748e-7 0 0.0000023731028783408866 0 0
          -0.000002441775283865049 -0.000005487353416493739 0 0.000006132199947725104 0 0
          -0.0000024910658600961764 0.0000012728157512166937 0 -0.0000012466608444261034 0 0
          -7.783668461748922e-7 -0.0000014189723358754691 0 0.0000016809655269701456 0 0
          -2.7148609829380983e-7 3.4193462255960415e-7 0 -3.9769291015756775e-7 0 0
          -1.601806834895197e-8 -2.3041375240415527e-7 0 -4.608966842382324e-7 0 0
          -3.068936788354485e-8 -4.4145475340176055e-7 0 5.035498358207307e-7 0 0
          -2.6900190028976753e-7 1.7595826420944642e-7 0 4.696279750866019e-7 0 0
          -1.366814884216182e-7 -1.3350079530253947e-7 0 -3.089079191342228e-7 0 0
          -2.390830424396747e-7 -2.724618822958028e-7 0 4.0934847275276793e-7 0 0
          -6.122005780531865e-8 1.0473588656030695e-7 0 -1.470983559777881e-7 0 0
          -2.764368620984965e-9 -3.976437939416834e-8 0 -1.0195784688129643e-7 0 0
          -4.212932665549964e-9 -6.060141603521872e-8 0 9.204143176343199e-8 0 0
          -6.698529481944352e-8 5.7314270924425097e-8 0 1.0382507868589817e-7 0 0
          -2.730661861696339e-7 3.0742670368230547e-7 0 -3.64999703871933e-7 0 0
          -1.6301543161227293e-7 7.533969266757506e-8 0 -1.0991553167177938e-7 0 0
          -7.62051708943054e-7 1.7998365536755091e-7 0 4.6831027489247714e-7 0 0
          -4.6199923479841176e-8 -1.168739481533939e-9 0 6.618887844361607e-8 0 0
          -5.4654301213622994e-8 -5.973573357537606e-9 0 -5.962307788491906e-8 0 0
          -6.79858704059405e-8 4.7300770313749316e-8 0 8.383815970906852e-8 0 0
          -0.000016965499966106853 0.00001751973480384744 0 0.000013218620286424319 0 0
          -0.00002916864146137155 0.000016006985835859343 0 0.000024273995042153023 0 0
          -0.000025486049724586942 0.00003084946052572883 0 -0.000005249720579176016 0 0
          -0.000016201703275733496 0.000022852019153041143 0 -0.00001348797370759275 0 0
          -0.000030404921246389824 0.000022961254773497983 0 -0.000005799024200510424 0 0
          <InformationKey name="L2_NORM_RANGE" location="vtkDataArray" length="2">
            <Value index="0">
              0
            </Value>
            <Value index="1">
              4.5961780259e-05
            </Value>
          </InformationKey>
        </DataArray>
        <DataArray type="Float64" Name="Strain" NumberOfComponents="6" format="ascii" RangeMin="0" RangeMax="0.10684732558483093">
          0 0 0 0 0 0
          0 -0.00016577350154556428 0 -0.011965493785313157 0 0
          -0.004763949170616941 -0.0002357039317065468 0 -0.01408004069925295 0 0
          -0.002695119127502227 -0.0008817052387293666 0 -0.009144143316072825 0 0
          -0.00479557753752403 0.001972493680928934 0 0.004365537752123357 0 0
          0 -0.0014864476938678125 0 -0.008909559368768735 0 0
          0.0009496518811555766 0.0004355951270924944 0 0.007636513266940552 0 0
          -0.0021437647199107875 0.0032093375037494875 0 0.0007301567226815375 0 0
          -0.001980234881026134 -0.0010761225785275142 0 0.008461746834587978 0 0
          0 -0.0009630771497755816 0 0.00995825528605613 0 0
          -0.00454033044154499 0.003928581931722042 0 0.0006210943267244581 0 0
          -0.005671712704367671 -0.00082797206131604 0 -0.005909002400682901 0 0
          0 0.0003857231997345503 0 0.01807704563151077 0 0
          0 -0.00282750681937916 0 0.007177988739085506 0 0
          0 -0.00282750681937916 0 0.007177988739085506 0 0
          0 -0.0003857231997345503 0 -0.01807704563151077 0 0
          -0.004285761664082372 0 0 0.0016882194681417887 0 0
          -0.00773652078460166 0.0001916257066756536 0 0.011085764238631291 0 0
          -0.02367123991649505 0.017864507376999673 0 -0.07732001891417596 0 0
          -0.02063965630181909 0.0029734496623457095 0 -0.08786775677821695 0 0
          0 -0.043144856462146414 0 0.06591825800219886 0 0
          0 0.003246866301252661 0 -0.10679798145963554 0 0
          0 0.0029444586815210805 0 -0.08619562056089142 0 0
          -0.005932978942076998 -0.019107064409890837 0 0.06809489603123162 0 0
          -0.005634921106628714 -0.03275681260645007 0 0.06996804505819514 0 0
          -0.02073434472365586 0.002649686292339526 0 0.05607453453918425 0 0
          0 -0.030753578904862154 0 0.05889314728620758 0 0
          -0.0114086282610069 0.0005996825281827413 0 0.04925033461050994 0 0
          -0.0163815521999462 0.016283204597777295 0 0.040548311493811204 0 0
          -0.03619675538491926 0.020261000496344078 0 0.007574885168684969 0 0
          0 -0.007455009033082908 0 -0.06406656654480579 0 0
          -0.010450653208489806 0.0009379637288566885 0 0.04808739702078275 0 0
          -0.022853331078868812 0.015939807257608372 0 0.017097339967012074 0 0
          -0.018636977936373166 -0.002633630526957322 0 -0.0655676108529983 0 0
          -0.012967285429423006 -0.008345711098395962 0 -0.05531024173798475 0 0
          -0.019806498055106772 0.03198459349090756 0 -0.02459662622220294 0 0
          -0.027051467907802537 0.024333600847746637 0 -0.042530184350737785 0 0
          -0.029268562655543826 0.019302007084030175 0 -0.03168242494102094 0 0
          -0.015220181464103637 0.020348335996811816 0 0.004761748974461905 0 0
          -0.007632318957422196 0.015218283188303358 0 0.01114962282650498 0 0
          -0.012873669311381316 0.016416201831139246 0 -0.03585410213269974 0 0
          0 -0.00938099994475884 0 -0.04863122963048601 0 0
          -0.010431110315960435 -0.008862805482720601 0 -0.04312268114633125 0 0
          0 -0.019946346081426095 0 0.04705438474207357 0 0
          -0.021742081188696426 0.0035373032330846196 0 0.044361666035523245 0 0
          -0.009596684066577203 -0.024768883753788416 0 0.06109773453652162 0 0
          -0.023068312163643488 0.012931161378932998 0 -0.02384726126910745 0 0
          -0.008778292502904114 -0.01762655404904697 0 0.046436138533978946 0 0
          -0.009316682312622414 0.011385111669363185 0 -0.02684277336678251 0 0
          0 -0.008340050696819243 0 -0.035858013928610696 0 0
          0 -0.01493019351316218 0 0.036605306860702666 0 0
          -0.00870457739466524 0.006024954187106341 0 0.03109222192286277 0 0
          -0.006496901472971455 -0.0063234233646262605 0 -0.03369627905491082 0 0
          -0.009237545313997286 -0.010735551520236548 0 0.03674223282422627 0 0
          -0.005796426446554226 0.009222662573694047 0 -0.026624937257989263 0 0
          0 -0.005082209462048239 0 -0.0280092423392345 0 0
          0 -0.008176472658395141 0 0.026692480637209394 0 0
          -0.006777927495278546 0.00591851039641193 0 0.0212101893557968 0 0
          -0.009355657650035175 0.01037154992665085 0 -0.024807969398374877 0 0
          -0.012790832548671294 0.006588954793952538 0 -0.01787366339101286 0 0
          -0.019143868280388523 0.005757775593465143 0 0.024758509350385535 0 0
          -0.008707229206489003 0.0003857231997345503 0 0.026730468447453706 0 0
          -0.009623051837587784 -0.0003857231997345503 0 -0.022627351277553623 0 0
          -0.008174949986342162 0.0059673607405150405 0 0.020568997378566642 0 0
          -0.022490188774546727 0.023128038378199663 0 0.034972070040676456 0 0
          -0.02734047325441714 0.016283204597777295 0 0.04688018753729875 0 0
          -0.025139703387755206 0.02968034810433442 0 -0.010216999941627353 0 0
          -0.02367123991649505 0.03190477841368543 0 -0.03838854927989445 0 0
          -0.040819359101627706 0.031984593490907556 0 -0.015822452139706945 0 0
          <InformationKey name="L2_NORM_RANGE" location="vtkDataArray" length="2">
            <Value index="0">
              0
            </Value>
            <Value index="1">
              0.10684732558
            </Value>
          </InformationKey>
        </DataArray>
      </CellData>
      <Points>
        <DataArray type="Float32" Name="Points" NumberOfComponents="3" format="ascii" RangeMin="21" RangeMax="82.46211251235322">
          80 20 0 71.25 20 0
          80 10 0 66.2388916015625 12.798850059509277 0
          70.20958709716797 5.845560073852539 0 62.5 20 0
          80 0 0 71.25 0 0
          61.98773956298828 6.017467021942139 0 57.24021911621094 11.442919731140137 0
          53.75 20 0 62.5 0 0
          53.75 0 0 45 20 0
          45 10 0 40.15702819824219 15.307769775390625 0
          45 0 0 37.99734115600586 20 0
          40.049659729003906 5.003084182739258 0 36.91453170776367 10.96895980834961 0
          35.045658111572266 16.052900314331055 0 38.01533889770508 0 0
          32.61840057373047 20 0 35.31842041015625 4.04646110534668 0
          31.990219116210938 9.977960586547852 0 30.425119400024414 16.402000427246094 0
          32.72930908203125 0 0 28.12295913696289 20 0
          30.514589309692383 4.023209095001221 0 27.527999877929688 12.006360054016113 0
          27.93014907836914 7.867103099822998 0 26.15369987487793 16.422679901123047 0
          28.299869537353516 0 0 24.184429168701172 20 0
          24.478979110717773 13.194990158081055 0 24.274250030517578 9.000702857971191 0
          25.34370994567871 4.327282905578613 0 24.47154998779297 0 0
          21 15 0 20.521530151367188 20 0
          21 10.843259811401367 0 18.283540725708008 17.52022933959961 0
          17.25609016418457 15 0 21 3.321547031402588 0
          21 0 0 16.766950607299805 20 0
          21 6.905692100524902 0 18.861600875854492 10.96759033203125 0
          19.531700134277344 9.244172096252441 0 19.282169342041016 13.698100090026855 0
          <InformationKey name="L2_NORM_RANGE" location="vtkDataArray" length="2">
            <Value index="0">
              21
            </Value>
            <Value index="1">