<?xml version="1.0"?>
<VTKFile type="UnstructuredGrid" version="0.1" byte_order="LittleEndian" header_type="UInt32" compressor="vtkZLibDataCompressor">
  <UnstructuredGrid>
    <Piece NumberOfPoints="52" NumberOfCells="77">
      <PointData>
        <DataArray type="Float64" Name="Velocity" NumberOfComponents="3" format="ascii" RangeMin="0" RangeMax="2.010096677307412">
          0.3353190472050499 0.011581050798394117 0 0.22294088806601406 0.017476999921940774 0
          0.11473523919111404 0.020809427895754257 0 0.03712436137736708 0.016859573893143173 0
          0.9375570671123471 1.409368377159497 0 0.3567796275022799 0.7037576710185371 0
          0 0 0 1.1126415525969604 1.3780095373184893 0
          0.8399996544952789 1.2574428720758912 0 1.3905113427227735 0.7331826424757394 0
          0.38923612433741916 0.6758389609201476 0 1.2528721332979211 1.093055702338249 0
          1.013172515220243 1.1590002047523227 0 1.2909029342711016 0.8608948881124222 0
          0.719598824626758 0.9771265740431023 0 0.18392240836762644 0 0
          1.1086730337960442 0.9888868090564188 0 1.2334242194961522 0.6844061882310896 0
          0.314877318211472 0.24541943113501488 0 0.9405587612501712 0.9425393011612123 0
          0.6036188740258035 0.5053836530690043 0 1.1702284332597912 0.41029209284141455 0
          1.174042168532597 0.6130453908211955 0 1.0394379965665932 0.7028030130047256 0
          0.4726335496767855 0 0 0.9073110937673494 0.6597239567431544 0
          0.8191476644080942 0.5011721268094493 0 1.0072608284999502 0.09611051435428575 0
          0.7538441153376918 0.28792534618175375 0 0.730918723045107 0 0
          1.040155478412086 0.14351784779161061 0 1.0464049829193902 0.26981866502927615 0
          0.9845735138884757 0.25918065640035354 0 0.9726013090519132 0.21721841981077175 0
          0.9160924375397045 0.1330414841600333 0 0.92969995527938 0 0
          1.000000000234794 0 0 1.0000000002347942 0 0
          1.0000000002347944 0 0 1.0069977376731636 0 0
          1.0000000002347942 0 0 1.0000000002347942 0 0
          1.000000000234794 0 0 1.0000000002347937 0 0
          1.5750131676116248 0.5954711410634278 0 1.2472412366396446 0.23673655329198912 0
          0.9706428012774589 1.4093784220708427 0 1.3965869212004536 1.445694858417272 0
          1.4652586285295035 1.145941449371403 0 1.6877438114504775 0.9749796862454014 0
          0.4393739761079669 0.005016793848314792 0 1.0958628856195032 0 0
          <InformationKey name="L2_NORM_RANGE" location="vtkDataArray" length="2">
            <Value index="0">
              0
            </Value>
            <Value index="1">
              2.0100966773
            </Value>
          </InformationKey>
        </DataArray>
        <DataArray type="Float64" Name="Pressure" format="ascii" RangeMin="-0.7444986725898549" RangeMax="2.8686161461939643">
          1.3425510608258426 2.162143724080501 2.7105171044751386 2.8317480626729465 0.4462073021856997 1.7205039466548986
          2.8686161461939643 0.43885592119852207 1.1974106797783959 0.5436205306442021 2.3199932314496947 0.611917877907187
          1.0687831458060175 0.7129298517163728 1.9592897121442912 2.8468672975782714 1.0552984316352547 0.7796855711679502
          2.7795001094741014 1.6077092236688981 2.5957718441624507 0.8989133899917336 1.0382550894495113 1.4285389746506874
          2.8030092687036006 1.9380628931882502 2.3936133580450116 1.0283334787919234 2.6097965478331364 2.6396848165033493
          1.1393721083967994 1.3924610619763698 1.8400409665277333 2.1872748781023246 2.4162475245355117 2.5259746434877672
          1.0639577785337007 1.098294903325285 1.316272636353383 2.4304054009053484 1.7438373883223481 2.1141909132580836
          2.3238387708111636 2.393607744476082 0.2900025002322485 0.7935660629591775 -0.7444986725898549 -0.4400159036387097
          0.22854855978456182 0.03601631481139423 0.22775292205687814 0.9832327582232138
        </DataArray>
        <DataArray type="Float64" Name="BTraction" NumberOfComponents="3" format="ascii" RangeMin="0" RangeMax="2.8622358376129036">
          -1.362249078960901 -0.003274139210615344 0 -2.1369924932378033 0.10606800068843356 0
          -2.664160810876862 0.16485481246942923 0 -2.8588817193336946 0.13852546688338233 0
          0 0 0 0 0 0
          -1.425744090142702 1.5028135686694748 0 0 0 0
          0 0 0 0 0 0
          0 0 0 0 0 0
          0 0 0 0 0 0
          0 0 0 -0.002775598528645183 2.8086735424516167 0
          0 0 0 0 0 0
          0 0 0 0 0 0
          0 0 0 0 0 0
          0 0 0 0 0 0
          -0.002072217216377732 2.7213495623501918 0 0 0 0
          0 0 0 0 0 0
          0 0 0 -0.003814383352374626 2.5933279873866244 0
          0 0 0 0 0 0
          0 0 0 0 0 0
          0 0 0 -0.000601237958603614 2.4887286821003776 0
          0.53869089653817 -0.5281721213747614 0 1.122834625220681 -0.008057178450013329 0
          1.3389918272379797 -0.014125122813367252 0 0.0011901780906914392 2.428085621286159 0
          1.720169809112301 -0.018193333217549207 0 2.0840143751297258 -0.01688627362563806 0
          2.29962912575416 -0.007960878246247945 0 1.366344949031225 1.0181113028495397 0
          0 0 0 0 0 0
          0 0 0 0 0 0
          0 0 0 0 0 0
          -0.22016961872102456 -0.18402487023617886 0 0.0038211090239980874 -0.9502525291329597 0
          <InformationKey name="L2_NORM_RANGE" location="vtkDataArray" length="2">
            <Value index="0">
              0
            </Value>
            <Value index="1">
              2.8622358376
            </Value>
          </InformationKey>
        </DataArray>
        <DataArray type="Float64" Name="ALEdispl" NumberOfComponents="3" format="ascii" RangeMin="0" RangeMax="0.7510704685309539">
          0.48180440551433984 0.03135079686595527 0 0.3180642562026191 0.03491437135336203 0
          0.15962476701830602 0.03445658985779063 0 0.048332469132964656 0.024484590757265518 0
          0.6320102417335612 0.1046227577415991 0 0.4134653843073561 0.0896702643540256 0
          0 0 0 0.6865953585257465 0.11848989442559056 0
          0.5051085366448423 0.1228125882697055 0 0.6332668346666588 0.05894291892767692 0
          0.2848004462319565 0.11042568621856695 0 0.6737849307098522 0.10994437667236354 0
          0.5879202609070708 0.14789279316274698 0 0.6344514791106969 0.08960584333260042 0
          0.3975419417434021 0.14702239127711245 0 0 0 0
          0.6121993821697488 0.1417937725190533 0 0.5676221672303252 0.0755275178964136 0
          0.07630851519754124 0.06597021135944486 0 0.4788601079736743 0.16492590814731278 0
          0.18240015881730465 0.11419767417901917 0 0.4459730609100025 0.026679620880930982 0
          0.5554717080569314 0.09965645782734257 0 0.5154571240871664 0.15773413478772313 0
          0 0 0 0.37992570272144877 0.17619890034387264 0
          0.24832829121803754 0.1645036632364249 0 0.22573427167991536 -0.026445070056567602 0
          0.11734525921675011 0.1032733055984869 0 0 0 0
          0.2830331228734915 0.03001294531054712 0 0.3365361302939264 0.09598519600012889 0
          0.27614259415843573 0.13301592694060999 0 0.20690579549976065 0.1409413721648413 0
          0.11654761594873236 0.10792086739694472 0 0 0 0
          0 0 0 0 0 0
          0 0 0 0 0 0
          0 0 0 0 0 0
          0 0 0 0 0 0
          0.609054043611578 0.021165413051905238 0 0.29476168217258525 -0.016042355907329053 0
          0.734202280367812 0.07328590650539428 0 0.7462971060282727 0.08454275979131375 0
          0.7080461231676762 0.08244895249847037 0 0.708586637858659 0.05370380050262221 0
          0.6305479795852152 0.026100283266600455 0 0 0 0
          <InformationKey name="L2_NORM_RANGE" location="vtkDataArray" length="2">
            <Value index="0">
              0
            </Value>
            <Value index="1">
              0.75107046853
            </Value>
          </InformationKey>
        </DataArray>
        <DataArray type="Float64" Name="ALEveloc" NumberOfComponents="3" format="ascii" RangeMin="0" RangeMax="0.5242519750516456">
          0.335319047126319 0.011581050795674952 0 0.22294088801366885 0.017476999917837285 0
          0.11473523916417488 0.02080942789086833 0 0.037124361368650494 0.016859573889184645 0
          0.44069994406701585 0.05944773712386259 0 0.28823101530048634 0.05234079292566829 0
          0 0 0 0.4798455988934385 0.06935976869938221 0
          0.35177602274514475 0.07380481975130299 0 0.4448072480531975 0.029238105633256767 0
          0.1993240085240514 0.06866793751986966 0 0.472166725078107 0.06427124972809273 0
          0.41005591681400433 0.09104709223006918 0 0.44551085941200386 0.050782804011027916 0
          0.27681537367768994 0.09220537961126807 0 0 0 0
          0.42803666045788713 0.0874168794648234 0 0.39907887547824017 0.04194669754925337 0
          0.05433360531977413 0.042614509795423 0 0.33346217311936344 0.10429617289452153 0
          0.12757118083428387 0.07301201199686097 0 0.31499074477158007 0.009257723003895699 0
          0.39031932542558256 0.0595722510941083 0 0.3599838436397296 0.1003338761793377 0
          0 0 0 0.2639907922369842 0.11388648632301052 0
          0.17238917705857515 0.10720901487990903 0 0.16029670626553638 -0.024322630231011083 0
          0.08147170399961084 0.06768644485028738 0 0 0 0
          0.1999944131366519 0.015599463593184149 0 0.23597448670283216 0.06127117373622867 0
          0.19214134782248338 0.08757835239426576 0 0.1431265174588866 0.09349845630213005 0
          0.08045947654228819 0.07200056308385533 0 0 0 0
          0 0 0 0 0 0
          0 0 0 0 0 0
          0 0 0 0 0 0
          0 0 0 0 0 0
          0.42643508175778466 0.004517661764465525 0 0.20590689567613152 -0.01662672174796352 0
          0.5129770604370154 0.03606228840116488 0 0.5223414554236294 0.04471618601217814 0
          0.49648587015156265 0.04434840493930778 0 0.49677387281480234 0.024453088239378168 0
          0.43937397600480455 0.00501679384713688 0 0 0 0
          <InformationKey name="L2_NORM_RANGE" location="vtkDataArray" length="2">
            <Value index="0">
              0
            </Value>
            <Value index="1">
              0.52425197505
            </Value>
          </InformationKey>
        </DataArray>
      </PointData>
      <CellData>
        <DataArray type="UInt8" Name="vtkGhostType" format="ascii" RangeMin="0" RangeMax="1">
          1 1 1 1 1 1
          1 1 0 0 1 0
          0 0 0 0 0 0
          0 1 0 0 0 0
          0 0 0 0 0 0
          0 0 0 0 0 0
          0 0 0 0 0 0
          0 0 0 1 1 1
          1 0 0 0 0 0
          0 1 0 0 0 0
          0 0 0 0 0 0
          0 0 0 0 0 0
          0 0 0 0 0
        </DataArray>
        <DataArray type="Float64" Name="PStrain" NumberOfComponents="6" format="ascii" RangeMin="0.0005451869815485578" RangeMax="0.1732050807568877">
          0.001149441405193706 0.001149441405193706 0 0.001149441405193706 0 0
          0.03424258693671971 0.03424258693671971 0 0.03424258693671971 0 0
          0.01313010357247953 0.01313010357247953 0 0.01313010357247953 0 0
          0.029982899727407926 0.029982899727407926 0 0.029982899727407926 0 0
          0.004516942108117251 0.004516942108117251 0 0.004516942108117251 0 0
          0.013102654464089791 0.013102654464089791 0 0.013102654464089791 0 0
          0.018127952909152763 0.018127952909152763 0 0.018127952909152763 0 0
          0.0038293477828619795 0.0038293477828619795 0 0.0038293477828619795 0 0
          0.009843395947637688 0.009843395947637688 0 0.009843395947637688 0 0
          0.0016286095891948674 0.0016286095891948674 0 0.0016286095891948674 0 0
          0.02575727459297319 0.02575727459297319 0 0.02575727459297319 0 0
          0.005573277661239664 0.005573277661239664 0 0.005573277661239664 0 0
          0.011276588847679698 0.011276588847679698 0 0.011276588847679698 0 0
          0.010874414281919577 0.010874414281919577 0 0.010874414281919577 0 0
          0.005406454128939135 0.005406454128939135 0 0.005406454128939135 0 0
          0.0019321314104044827 0.0019321314104044827 0 0.0019321314104044827 0 0
          0.007743445626826146 0.007743445626826146 0 0.007743445626826146 0 0
          0.0026989134354141998 0.0026989134354141998 0 0.0026989134354141998 0 0
          0.004073944480574242 0.004073944480574242 0 0.004073944480574242 0 0
          0.0022370442227628187 0.0022370442227628187 0 0.0022370442227628187 0 0
          0.09999999999999999 0.09999999999999999 0 0.09999999999999999 0 0
          0.000543501211096862 0.000543501211096862 0 0.000543501211096862 0 0
          0.0013054324770211535 0.0013054324770211535 0 0.0013054324770211535 0 0
          0.0008599824940535704 0.0008599824940535704 0 0.0008599824940535704 0 0
          0.0006135967455454203 0.0006135967455454203 0 0.0006135967455454203 0 0
          0.0015169764460443499 0.0015169764460443499 0 0.0015169764460443499 0 0
          0.002844550791778788 0.002844550791778788 0 0.002844550791778788 0 0
          0.0033990091949184726 0.0033990091949184726 0 0.0033990091949184726 0 0
          0.0014469223197532194 0.0014469223197532194 0 0.0014469223197532194 0 0
          0.004309051059396831 0.004309051059396831 0 0.004309051059396831 0 0
          0.0020566577252819195 0.0020566577252819195 0 0.0020566577252819195 0 0
          0.005522823609112321 0.005522823609112321 0 0.005522823609112321 0 0
          0.0013266718679288661 0.0013266718679288661 0 0.0013266718679288661 0 0
          0.0008691472559935517 0.0008691472559935517 0 0.0008691472559935517 0 0
          0.004783011649706786 0.004783011649706786 0 0.004783011649706786 0 0
          0.0031792608967571288 0.0031792608967571288 0 0.0031792608967571288 0 0
          0.003446887679181789 0.003446887679181789 0 0.003446887679181789 0 0
          0.002506302088780982 0.002506302088780982 0 0.002506302088780982 0 0
          0.0027416620777268147 0.0027416620777268147 0 0.0027416620777268147 0 0
          0.0028325500839917845 0.0028325500839917845 0 0.0028325500839917845 0 0
          0.0026491716497950577 0.0026491716497950577 0 0.0026491716497950577 0 0
          0.0011570941973002725 0.0011570941973002725 0 0.0011570941973002725 0 0
          0.0015411289539210647 0.0015411289539210647 0 0.0015411289539210647 0 0
          0.0010835032973874844 0.0010835032973874844 0 0.0010835032973874844 0 0
          0.00036123381575015273 0.00036123381575015273 0 0.00036123381575015273 0 0
          0.000954607382000609 0.000954607382000609 0 0.000954607382000609 0 0
          0.0004889927753805191 0.0004889927753805191 0 0.0004889927753805191 0 0
          0.0003147638505557394 0.0003147638505557394 0 0.0003147638505557394 0 0
          0.006555246928825194 0.006555246928825194 0 0.006555246928825194 0 0
          0.017527558720961296 0.017527558720961296 0 0.017527558720961296 0 0
          0.015822576406655887 0.015822576406655887 0 0.015822576406655887 0 0
          0.014060442505746985 0.014060442505746985 0 0.014060442505746985 0 0
          0.008625728527934006 0.008625728527934006 0 0.008625728527934006 0 0
          0.007720573909655288 0.007720573909655288 0 0.007720573909655288 0 0
          0.017446642537573564 0.017446642537573564 0 0.017446642537573564 0 0
          0.00623642530499776 0.00623642530499776 0 0.00623642530499776 0 0
          0.004359637261484552 0.004359637261484552 0 0.004359637261484552 0 0
          0.006585003815257876 0.006585003815257876 0 0.006585003815257876 0 0
          0.0051051209458976765 0.0051051209458976765 0 0.0051051209458976765 0 0
          0.0032221787052762766 0.0032221787052762766 0 0.0032221787052762766 0 0
          0.008465667473288724 0.008465667473288724 0 0.008465667473288724 0 0
          0.008856738891036187 0.008856738891036187 0 0.008856738891036187 0 0
          0.010293805420242344 0.010293805420242344 0 0.010293805420242344 0 0
          0.009099426040280916 0.009099426040280916 0 0.009099426040280916 0 0
          0.0024224168924950177 0.0024224168924950177 0 0.0024224168924950177 0 0
          0.00506348923613066 0.00506348923613066 0 0.00506348923613066 0 0
          0.006751287443668116 0.006751287443668116 0 0.006751287443668116 0 0
          0.006873938880505607 0.006873938880505607 0 0.006873938880505607 0 0
          0.0018956188446238682 0.0018956188446238682 0 0.0018956188446238682 0 0
          0.007358923501017781 0.007358923501017781 0 0.007358923501017781 0 0
          0.0017230226082481808 0.0017230226082481808 0 0.0017230226082481808 0 0
          0.0038978099361053377 0.0038978099361053377 0 0.0038978099361053377 0 0
          0.0013054324770211544 0.0013054324770211544 0 0.0013054324770211544 0 0
          0.0016602778799421813 0.0016602778799421813 0 0.0016602778799421813 0 0
          0.0043781577021826355 0.0043781577021826355 0 0.0043781577021826355 0 0
          0.0028245290547632 0.0028245290547632 0 0.0028245290547632 0 0
          0.0038976601306844006 0.0038976601306844006 0 0.0038976601306844006 0 0
          <InformationKey name="L2_NORM_RANGE" location="vtkDataArray" length="2">
            <Value index="0">
              0.00054518698155
            </Value>
            <Value index="1">
              0.17320508076
            </Value>
          </InformationKey>
        </DataArray>
        <DataArray type="Float64" Name="Stress" NumberOfComponents="6" format="ascii" RangeMin="0" RangeMax="0.00127848283068448">
          0.00005546139899199544 -0.000013792103190048787 0 -0.00004648825490369341 0 0
          0.0012366899551530853 -0.00032419221113141243 0 -0.000003964015664246238 0 0
          0.0007032320545740303 -0.00021211427289591738 0 0.00002564655417276959 0 0
          0.001098698893930237 -0.00021162844450465192 0 0.0005425836151378624 0 0
          0.00023385399616117786 -0.00008303725140955413 0 -0.00008228454763321503 0 0
          0.0006688960647221575 -0.00016271445537714474 0 -0.00012350021298521477 0 0
          0.00018888833269809413 -0.00003316887882343516 0 0.00034480901692618524 0 0
          0.00017010817738171623 -0.000046813249308457526 0 -0.0001167691194134762 0 0
          0.00004037212385125535 0.000008100186589040517 0 0.00019680574637845176 0 0
          0.0000018609696898234733 0.000026769333230537653 0 0.00002458449732566986 0 0
          0.00028217212135461074 -0.00006459669291358707 0 0.0005429141054384911 0 0
          -0.00006757630136299273 0.00002912646018687441 0 0.00013107351407037654 0 0
          0.000030953878066354706 -0.00003864865835849583 0 0.00018974794181111663 0 0
          -0.00003402726069416132 -0.000023519506496260175 0 0.00022473484204741913 0 0
          -0.000036354714064730845 0.00002350426700402885 0 0.00011314740052895632 0 0
          -0.000018999397631869985 0.00006654426103125633 0 0.000024790615389259406 0 0
          -0.00005296639093708258 -0.0000018093199763338752 0 0.00016415066841020048 0 0
          -0.00002731366171096515 0.00005113908135013796 0 0.00004959739719047875 0 0
          -0.00004435549113701808 0.00006762986187552345 0 0.00009374438121141542 0 0
          0.00010695891945428865 -0.00004094086948957775 0 -0.0000647729650898546 0 0
          0 0 0 0 0 0
          0.0000019151346553937294 0.000027548475427586732 0 0.000013841182098788016 0 0
          0.000004917994689748538 0.0000707434620756136 0 0.00003739740143251131 0 0
          0.000008734793780434566 0.00004454503799934073 0 0.000023761363173974938 0 0
          0.000027030481032240737 0.000019328964863906374 0 0.000019929597267586624 0 0
          0.000014422954323779338 0.00004595465735258117 0 0.00004565566027938086 0 0
          0.0000929648369087437 0.000020859376512668545 0 0.0000908174938805959 0 0
          0.0001800838386480463 0.000004282664304312443 0 0.00007222004865869809 0 0
          0.00004229541302958638 0.00002512427315381131 0 0.00003693963080111628 0 0
          0.00026159212778944537 -0.000011599729262225926 0 0.00013281792374144035 0 0
          0.00017084995861191862 0.000009695797429381504 0 0.00007986568849411871 0 0
          0.0004734016625930359 -0.000034718945432465255 0 0.00009132664444953695 0 0
          0.00010464949240203066 0.000007275098402280206 0 0.000033165046611902636 0 0
          0.000038463011099115524 0.000018677202001249713 0 0.0000327266139046485 0 0
          0.0004010907604351635 -0.0000701494335412008 0 0.00006331354259362659 0 0
          0.00035878354412662396 -0.00001694833357338173 0 0.00009512492235068114 0 0
          0.0003410602581662346 -0.000048591125389431825 0 0.000006728248895616576 0 0
          0.0002739338446166678 0.00001904352930490204 0 0.00006138942755771737 0 0
          0.00023005206722520268 -0.00004773366235377271 0 -0.000027883521527932938 0 0
          0.0003491232299841204 -0.00003219174816551067 0 0.000026127599397135498 0 0
          0.0003394493062948644 0.000023598080116755274 0 0.00004504277419650056 0 0
          0.00009528526539013572 -0.000014150724122383046 0 -0.000011868039126666314 0 0
          0.00018170484280276552 0.000012631887467571934 0 0.000008964281831133695 0 0
          0.00009613091414991485 -0.000010580770950489853 0 -0.000017223351544050042 0 0
          0.00002677469553794319 0.0000018613424705522007 0 -0.0000014593162179320458 0 0
          0.000034197417369657876 -0.00001708894170581393 0 -0.00003158061083317179 0 0
          0.000020009825989814426 0.000005274181710644035 0 -0.00002089031357936333 0 0
          1.8931563261285617e-7 0.000002723232561431086 0 -0.000010814716905658893 0 0
          0.0004074671706409837 -0.00012322692201116353 0 -0.000058604175970118966 0 0
          0.00047364599658977866 -0.00009555605766471066 0 0.00029525411787716154 0 0
          0.0008203109884593112 -0.00021124621772255237 0 0.000055801038157735425 0 0
          0.0006982783857152732 -0.00017273857120123862 0 0.00025308117625220326 0 0
          0.0004043987126738921 -0.00005834538914904025 0 0.00018308676930191205 0 0
          0.0005443593406151642 -0.00013296696837226943 0 0.00004214414147997533 0 0
          0.00046115018413919696 -0.000021143805089033814 0 0.00039080853317604095 0 0
          0.00037044862124759184 -0.0001107822717219721 0 -0.0001024349926310399 0 0
          0.0002859718774975386 -0.0000801636556734645 0 -0.00007120744772278557 0 0
          0.0003952543415735348 -0.00010302849998274432 0 -0.0000383873179661336 0 0
          0.00032978319769986895 -0.00007532996498143928 0 -0.00007465896047263761 0 0
          0.0002422228090675302 -0.00005805659019005529 0 -0.000046657740395006945 0 0
          0.0001485032073901666 0.000019689488061519934 0 0.00018880690568946035 0 0
          0.000607137262295548 -0.0001393205793723332 0 0.000054771236781145344 0 0
          0.0004907537942508372 -0.00006006498417270748 0 0.00023742003832596644 0 0
          0.00015693217458729176 -0.000015103216154890185 0 0.00019886344625749179 0 0
          0.00016566566774083933 -0.00005329285337270857 0 -0.000049144683479310064 0 0
          0.0001100869610354584 0.00003285981915760356 0 0.00014559142347120424 0 0
          0.00027174046422091927 -0.00002777560109437541 0 0.00014841792557286163 0 0
          0.000027526774880054274 0.000022550875879212467 0 0.000147004362847999 0 0
          0.000005946066793691118 0.0000855318838784799 0 0.00004602892280755037 0 0
          0.000029919911652254592 0.000021683854940830606 0 0.0001534578815217935 0 0
          -0.0000051162830364456955 0.00008279812514039403 0 0.0000397228161588238 0 0
          0.000001523631509114034 0.000047699311312392706 0 0.00010341458311854513 0 0
          0.000004917994689748541 0.00007074346207561362 0 0.000037397401432511325 0 0
          0.0000030486716105212152 0.00004941032927246564 0 0.00004105836270688737 0 0
          0.00008182400955072959 0.00002784663155629081 0 0.00008948565614881146 0 0
          -0.000005306099402925302 0.00007870030149423747 0 0.00007963585294828171 0 0
          0.000008371889979354432 0.00004869581181561816 0 0.00008405194796041657 0 0
          <InformationKey name="L2_NORM_RANGE" location="vtkDataArray" length="2">
            <Value index="0">
              0
            </Value>
            <Value index="1">
              0.0012784828307
            </Value>
          </InformationKey>
        </DataArray>
        <DataArray type="Float64" Name="Strain" NumberOfComponents="6" format="ascii" RangeMin="0" RangeMax="0.1320397674096578">
          0.04887750925861027 -0.015288423420183179 0 -0.08614617717566903 0 0
          0.03661835328695684 -0.011927614053799069 0 -0.0002465746346924022 0 0
          0.054450789800560784 -0.019794156811951125 0 0.004160451597845491 0 0
          0.03697797345333901 -0.00956517707981322 0 0.03854540790753461 0 0
          0.05282649435055131 -0.021889800564174 0 -0.038801933313199435 0 0
          0.05169440199148544 -0.0158999321438673 0 -0.0200765008631998 0 0
          0.010502365936358504 -0.00254328414093318 0 0.04051440390061671 0 0
          0.045080814620247434 -0.015248341289528466 0 -0.0649505447021104 0 0
          0.004027148396978875 0.0005355065523259487 0 0.04258654655527751 0 0
          0 0.016288377120495107 0 0.032153181248038946 0 0
          0.011082370115614026 -0.0032556680903528916 0 0.04489632784749144 0 0
          -0.01243560341128859 0.006043368445229461 0 0.050093787164338495 0 0
          0.0029706280648233436 -0.0036028758816044233 0 0.03584090202427131 0 0
          -0.0029661696569859832 -0.0019370789923631448 0 0.04401940197890862 0 0
          -0.00699685919439845 0.004794568850277882 0 0.04457708460646225 0 0
          -0.01217601014096607 0.03497606035777777 0 0.02732940963268552 0 0
          -0.0067950832608323335 0.00024083888530512798 0 0.04515314506793231 0 0
          -0.011389162762081045 0.01956854424094188 0 0.039142587764956195 0 0
          -0.011990778619646694 0.017284141921623385 0 0.049012826004975314 0 0
          0.04887750925861027 -0.021533827997246006 0 -0.06167353074093347 0 0
          0 0 0 0 0 0
          0 0.05022897348708992 0 0.0542440702402856 0 0
          0 0.05370183751358461 0 0.06101921505202319 0 0
          0.006528341053484446 0.05087565086135055 0 0.05885201607070607 0 0
          0.04168573227102004 0.02831846007014597 0 0.06918231312036387 0 0
          0.007370454706586829 0.029507425793540785 0 0.06410551505177303 0 0
          0.0320360144023758 0.00503972537714123 0 0.06800415113864229 0 0
          0.05267020673581505 -0.002412977786304872 0 0.04525692483356657 0 0
          0.027905773896245094 0.015267041520605582 0 0.054378464228678994 0 0
          0.060637455603574864 -0.006883055002942812 0 0.06565301122444064 0 0
          0.08239432545175 -0.0010562067148873477 0 0.08271377118385326 0 0
          0.08579034803581154 -0.01219366989557721 0 0.03522215563005818 0 0
          0.07816833394653294 0 0 0.05324719019906158 0 0
          0.04257917782456856 0.01833485496222563 0 0.08020239048815277 0 0
          0.08451834871319966 -0.020409433893308154 0 0.02819517400353643 0 0
          0.11274347833797432 -0.013120507898155774 0 0.06373056228685756 0 0
          0.09950512785841102 -0.020887168645225246 0 0.004157713126023646 0 0
          0.10831024201837644 0 0 0.05217227455671035 0 0
          0.08476043123822623 -0.023145573810688904 0 -0.021662735658415127 0 0
          0.123520025323305 -0.01984917899348438 0 0.01964723837732503 0 0
          0.1269761270115166 0 0 0.036215512515381285 0 0
          0.08284742006735478 -0.017878457828122453 0 -0.02184690183286714 0 0
          0.11683817695712687 0 0 0.01238956691569156 0 0
          0.08902346226287847 -0.015865876704484184 0 -0.03385844683378657 0 0
          0.0734502692159993 0 0 -0.008604796695847388 0 0
          0.03691142131858516 -0.020305790118548515 0 -0.07046530578223939 0 0
          0.040000957541483084 0.007907515782339931 0 -0.09099596183076158 0 0
          0 0.008573479846643103 0 -0.07318294959342629 0 0
          0.06319762016890085 -0.02302174194074709 0 -0.01904228721994526 0 0
          0.02728615650130861 -0.007299389462720787 0 0.035880140588333054 0 0
          0.052549513592814776 -0.016883453349379685 0 0.007511811491457146 0 0
          0.05030325232210435 -0.01567141801539957 0 0.03833897156486074 0 0
          0.04715301279880474 -0.009980998183043495 0 0.04521065291472576 0 0
          0.07140195369378294 -0.022030545951029636 0 0.011626988149169265 0 0
          0.02640424961572953 -0.0030365495192255223 0 0.0477124566444369 0 0
          0.06037952194841682 -0.021800713675004905 0 -0.03498583301066145 0 0
          0.06659108498404043 -0.022850838607175305 0 -0.03479001911225195 0 0
          0.06085289411119342 -0.019734944733764904 0 -0.012416847364372041 0 0
          0.06534704741588968 -0.019165253630041457 0 -0.031149817505206172 0 0
          0.07610328525652052 -0.0231455738106889 0 -0.030842791828594014 0 0
          0.01730670109476523 0.001101645614158847 0 0.04750466639369675 0 0
          0.0693501955997643 -0.020409433893308154 0 0.013172199810690226 0 0
          0.04787717834945051 -0.009110687174751754 0 0.04912708769876893 0 0
          0.017288415290325952 -0.002846666892810018 0 0.04655009433049702 0 0
          0.0696225858529456 -0.026641119089166533 0 -0.04321228775081528 0 0
          0.021200227281598677 0.004957098825229017 0 0.061244275939379686 0 0
          0.04036491247323945 -0.006883055002942812 0 0.04682516988173668 0 0
          0.0037604916661037047 0.002989560686352727 0 0.04555165507133613 0 0
          0 0.044713047370088826 0 0.051720104945219565 0 0
          0.003844643195887525 0.0026527025001521487 0 0.04441754117925168 0 0
          -0.006283357456619675 0.048056524249011544 0 0.04910533269457118 0 0
          -0.0004578957642546594 0.012158701708845625 0 0.05651200690985882 0 0
          0 0.05370183751358462 0 0.06101921505202319 0 0