<?xml version="1.0"?>
<VTKFile type="UnstructuredGrid" version="0.1" byte_order="LittleEndian" header_type="UInt32" compressor="vtkZLibDataCompressor">
  <UnstructuredGrid>
    <Piece NumberOfPoints="50" NumberOfCells="69">
      <PointData>
        <DataArray type="Float64" Name="Velocity" NumberOfComponents="3" format="ascii" RangeMin="0.5492528941604314" RangeMax="1.618188477129061">
          0.8513623566275136 0.24523624549172002 0 1.0671875750848328 0 0
          0.9134665146240893 -0.009394494577835423 0 0.9704724284419525 0.0030803450505448747 0
          1.0688479332657186 -0.003979852066520136 0 1.029421734718829 0 0
          0.9230391946357779 -0.2095517832777076 0 0.9303041921106123 0 0
          1.027902431117389 0.007620624099345472 0 0.991913809709153 -0.0027757516375430807 0
          1.016014504433976 0 0 0.963446234711399 0 0
          1.0006560580292647 0 0 1.018701722374402 0 0
          0.9941241110162625 -0.010017387543099263 0 1.0137594216093562 -0.015010019279194119 0
          0.9897502544317339 0 0 1.0364270405487925 0 0
          0.9837274434998757 -0.01731718391661166 0 1.0033621707326896 -0.030134216262501443 0
          1.036966635519722 -0.027138407965991266 0 0.9663835304822745 0 0
          1.07438635996577 0 0 0.9637558667599262 -0.027757325939396428 0
          1.0000482204440402 -0.0752362926403981 0 1.0749070095785778 -0.04711367529962981 0
          0.9290324267551164 0 0 1.1345626768032908 0 0
          0.9233148485519299 -0.04733714996120313 0 1.0548332825884073 -0.14984140037382482 0
          0.9512278732579491 -0.14209213217121047 0 1.1506986631913103 -0.08573781423775757 0
          0.8694795788794434 0 0 1.233534855905655 0 0
          1.1367748870834073 -0.2209217115505575 0 0.9550799106756293 -0.26833620628053945 0
          0.8234970265482654 -0.13770512044757863 0 0.7443956250591541 0 0
          1.3300031448256298 -0.2591453064891607 0 1.4178480350302582 0 0
          1.0769649838356736 -0.389855109114665 0 1.519701816680129 -0.16049610934849964 0
          1.5469211335024164 -0.34308478816659743 0 0.6311404325176015 -0.19980283726464276 0
          0.5492528941604314 0 0 1.618188477129061 0 0
          0.7763557749678462 -0.35499961370081967 0 1.208776778408181 -0.6386252096253401 0
          0.9279668114629919 -0.602727759944622 0 1.3233039215845637 -0.3923655306736969 0
          <InformationKey name="L2_NORM_RANGE" location="vtkDataArray" length="2">
            <Value index="0">
              0.54925289416
            </Value>
            <Value index="1">
              1.6181884771
            </Value>
          </InformationKey>
        </DataArray>
        <DataArray type="Float64" Name="Pressure" format="ascii" RangeMin="-0.7512933906538132" RangeMax="0.11856707881012503">
          0.028263856060563246 -0.032864963042106746 -0.016205292442168704 -0.03117710919561867 -0.027285905036536943 -0.09332810562595503
          0.11856707881012503 0.033262643091226785 -0.11874234140783252 -0.11577759175325479 -0.12517605367746643 -0.10992349430425791
          -0.1352976928145791 -0.13365240799136574 -0.13640671253082204 -0.14048552868243863 -0.13313553107518006 -0.1430943090320448
          -0.13479343874701585 -0.14101944384860507 -0.15403103273329463 -0.12893634258327066 -0.1656867961906475 -0.1302493966268195
          -0.13974604596477563 -0.17587845193593524 -0.12442581327748019 -0.1928245935230514 -0.1259788087386403 -0.17926464915688806
          -0.1435461005592651 -0.19446268951054616 -0.1019919397941816 -0.2842644622401436 -0.2109605984135956 -0.19904648119833063
          -0.12509827747149602 -0.09558654208528225 -0.3606131384320323 -0.43758102101389607 -0.32297862104335073 -0.575620454469533
          -0.7512933906538132 -0.1711715530835849 -0.13365651769027426 -0.6614596365807837 -0.2583049361930444 -0.5577211181129564
          -0.4229678727986217 -0.5316596086101247
        </DataArray>
        <DataArray type="Float64" Name="BTraction" NumberOfComponents="3" format="ascii" RangeMin="0" RangeMax="0.6570401636675203">
          -0.010394240061687626 0.003399337328751515 0 0.0032274620783190266 0.03776100726443619 0
          -0.021701798935744893 0.0011771067228178295 0 0 0 0
          0 0 0 0.0013910315247838063 0.08853816424946825 0
          -0.042550236843776464 0.04189600273005194 0 -0.0022725479730824243 0.024722580851978315 0
          0 0 0 0 0 0
          0.0005907388574844325 0.12154606175346631 0 -0.003345918289382769 -0.09040520687524664 0
          -0.0010803921951176557 -0.1307614192462513 0 0.0005959879152207419 0.13427516460700484 0
          0 0 0 0 0 0
          -0.00023050834065050253 -0.13207470587316017 0 0.0008473624360039977 0.14651221623668045 0
          0 0 0 0 0 0
          0 0 0 -0.0005749821417709853 -0.12710133957795228 0
          0.0012463327548480124 0.16960548975693504 0 0 0 0
          0 0 0 0 0 0
          -0.0009474733293313274 -0.11815799217292587 0 0.0016063095542943012 0.20953921449786062 0
          0 0 0 0 0 0
          0 0 0 0 0 0
          -0.0016097306095147349 -0.09645081168389236 0 0.0018592983854417804 0.3080569119171786 0
          0 0 0 0 0 0
          0 0 0 -0.0033309919324025603 -0.0842072521229631 0
          0 0 0 0.0013913901250823676 0.4734143578416513 0
          0 0 0 0 0 0
          0 0 0 0 0 0
          -0.004310081491125754 -0.11130513830064122 0 -0.0017133579937233692 0.6570379297092575 0
          0 0 0 0 0 0
          0 0 0 0 0 0
          <InformationKey name="L2_NORM_RANGE" location="vtkDataArray" length="2">
            <Value index="0">
              0
            </Value>
            <Value index="1">
              0.65704016367
            </Value>
          </InformationKey>
        </DataArray>
        <DataArray type="Float64" Name="ALEdispl" NumberOfComponents="3" format="ascii" RangeMin="0" RangeMax="0.3617673576645308">
          0 0 0 0 0 0
          0 0 0 0.036829186073221644 0.006140821388411846 0
          0.024087909312856405 -0.009491260721158577 0 0 0 0
          0 0 0 0 0 0
          0.03439972660161513 -0.00333328647959637 0 0.05877478516160205 0.0007997535874672589 0
          0 0 0 0 0 0
          0 0 0 0 0 0
          0.10376176991647007 0.002182889348352178 0 0.07539077272417456 0.013626726459473262 0
          0 0 0 0 0 0
          0.07669471987986341 -0.02351535109605861 0 0.1514335303155618 -0.008683639856997777 0
          0.08124837421788635 0.018875080301801135 0 0 0 0
          0 0 0 0.08504981658224955 -0.034734266304901285 0
          0.1934982786162695 -0.022404695694921904 0 0.10055592633983464 0.019263679853846576 0
          0 0 0 0 0 0
          0.10860352022382894 -0.04631760925594029 0 0.21673645977496234 -0.02588530701211998 0
          0.20744174716819244 -0.060321954415524945 0 0.13206964513477415 0.015006973261362064 0
          0 0 0 0 0 0
          0.2389725146370763 -0.03263596148172725 0 0.2562785573751839 -0.0833062490734006 0
          0.1457821277141833 -0.07729025027153816 0 0 0 0
          0.24901880457048883 -0.009661835220662007 0 0 0 0
          0.3184762038500356 -0.08794446567016508 0 0.15378339857277762 -0.005006155406142478 0
          0.3011900852226081 -0.04045605476692658 0 0.12447216393407955 -0.08326799773142683 0
          0 0 0 0 0 0
          0.24993201400992432 -0.1240994632488753 0 0.34800689256975037 -0.09882724217301002 0
          0.3132121666606214 -0.11784391046595655 0 0.31158928697289795 -0.048689156693504834 0
          <InformationKey name="L2_NORM_RANGE" location="vtkDataArray" length="2">
            <Value index="0">
              0
            </Value>
            <Value index="1">
              0.36176735766
            </Value>
          </InformationKey>
        </DataArray>
        <DataArray type="Float64" Name="ALEveloc" NumberOfComponents="3" format="ascii" RangeMin="0" RangeMax="0.38655449490896854">
          0 0 0 0 0 0
          0 0 0 0.038859005255618334 0.006476734391239365 0
          0.025418136776493697 -0.010016874349813458 0 0 0 0
          0 0 0 0 0 0
          0.03629986383223842 -0.003526124157347956 0 0.06201402003778972 0.0008240177627846308 0
          0 0 0 0 0 0
          0 0 0 0 0 0
          0.10951041176873849 0.0019710685867559688 0 0.07947204921668519 0.013813516306311849 0
          0 0 0 0 0 0
          0.08100317509980848 -0.02534233962089459 0 0.15977335564941902 -0.010355144761477298 0
          0.08551178496725209 0.01898030375554547 0 0 0 0
          0 0 0 0.08994397955170685 -0.03751917393220605 0
          0.20428953467866184 -0.026358191895974534 0 0.10568022569361049 0.018661462731033814 0
          0 0 0 0 0 0
          0.11489848341733161 -0.050385357368902886 0 0.22858547132902496 -0.03185766289163783 0
          0.2193530979801951 -0.06742154556594684 0 0.13879327996962 0.012935372102839002 0
          0 0 0 0 0 0
          0.25220835700718086 -0.04067537844112957 0 0.2708938014025537 -0.09453588073657515 0
          0.15447487824527267 -0.08461435151310734 0 0 0 0
          0.26234433613091507 -0.018147526942574762 0 0 0 0
          0.3369618092986897 -0.10295794366083466 0 0.16182923476930655 -0.011410484184145003 0
          0.31791238288503143 -0.05424565033750542 0 0.13220957505526443 -0.09216285096938143 0
          0 0 0 0 0 0
          0.26515743240123885 -0.13936223732534442 0 0.36850993650018515 -0.11672533673096541 0
          0.33200449188785786 -0.1356210260234767 0 0.3290512788384725 -0.06236893785049756 0
          <InformationKey name="L2_NORM_RANGE" location="vtkDataArray" length="2">
            <Value index="0">
              0
            </Value>
            <Value index="1">
              0.38655449491
            </Value>
          </InformationKey>
        </DataArray>
      </PointData>
      <CellData>
        <DataArray type="UInt8" Name="vtkGhostType" format="ascii" RangeMin="0" RangeMax="0">
          0 0 0 0 0 0
          0 0 0 0 0 0
          0 0 0 0 0 0
          0 0 0 0 0 0
          0 0 0 0 0 0
          0 0 0 0 0 0
          0 0 0 0 0 0
          0 0 0 0 0 0
          0 0 0 0 0 0
          0 0 0 0 0 0
          0 0 0 0 0 0
          0 0 0
        </DataArray>
        <DataArray type="Float64" Name="PStrain" NumberOfComponents="6" format="ascii" RangeMin="2.1706796792215197e-9" RangeMax="0.1732050807568877">
          0.09999999999999999 0.09999999999999999 0 0.09999999999999999 0 0
          5.7082480687338665e-8 5.7082480687338665e-8 0 5.7082480687338665e-8 0 0
          2.6625042143459856e-7 2.6625042143459856e-7 0 2.6625042143459856e-7 0 0
          5.122693912580422e-8 5.122693912580422e-8 0 5.122693912580422e-8 0 0
          5.247869132355725e-8 5.247869132355725e-8 0 5.247869132355725e-8 0 0
          7.570249931017195e-9 7.570249931017195e-9 0 7.570249931017195e-9 0 0
          3.475521627493358e-8 3.475521627493358e-8 0 3.475521627493358e-8 0 0
          4.915669461287489e-9 4.915669461287489e-9 0 4.915669461287489e-9 0 0
          1.6411871876084282e-8 1.6411871876084282e-8 0 1.6411871876084282e-8 0 0
          1.4250765536976482e-8 1.4250765536976482e-8 0 1.4250765536976482e-8 0 0
          3.598170369069256e-9 3.598170369069256e-9 0 3.598170369069256e-9 0 0
          6.413307393540303e-9 6.413307393540303e-9 0 6.413307393540303e-9 0 0
          4.2597802867781043e-7 4.2597802867781043e-7 0 4.2597802867781043e-7 0 0
          2.7136227405737203e-9 2.7136227405737203e-9 0 2.7136227405737203e-9 0 0
          2.7136227405737203e-9 2.7136227405737203e-9 0 2.7136227405737203e-9 0 0
          4.2597802867781043e-7 4.2597802867781043e-7 0 4.2597802867781043e-7 0 0
          1.2532424971229948e-9 1.2532424971229948e-9 0 1.2532424971229948e-9 0 0
          3.138008549673865e-7 3.138008549673865e-7 0 3.138008549673865e-7 0 0
          0.00032374094366650094 0.00032374094366650094 0 0.00032374094366650094 0 0
          0.00020934561145269137 0.00020934561145269137 0 0.00020934561145269137 0 0
          0.00024223024122054854 0.00024223024122054854 0 0.00024223024122054854 0 0
          0.0002518897274406657 0.0002518897274406657 0 0.0002518897274406657 0 0
          0.00015995223400287593 0.00015995223400287593 0 0.00015995223400287593 0 0
          0.00016759264029416504 0.00016759264029416504 0 0.00016759264029416504 0 0
          0.00015382241461880895 0.00015382241461880895 0 0.00015382241461880895 0 0
          0.00015532682527627645 0.00015532682527627645 0 0.00015532682527627645 0 0
          0.00008517928120464829 0.00008517928120464829 0 0.00008517928120464829 0 0
          0.0000680262837981813 0.0000680262837981813 0 0.0000680262837981813 0 0
          0.00012841098197290303 0.00012841098197290303 0 0.00012841098197290303 0 0
          0.0001693521686223112 0.0001693521686223112 0 0.0001693521686223112 0 0
          0.0000689738127898405 0.0000689738127898405 0 0.0000689738127898405 0 0
          0.000030626599649589066 0.000030626599649589066 0 0.000030626599649589066 0 0
          0.00007624190816332762 0.00007624190816332762 0 0.00007624190816332762 0 0
          0.00012754847046417766 0.00012754847046417766 0 0.00012754847046417766 0 0
          0.00005788712717002635 0.00005788712717002635 0 0.00005788712717002635 0 0
          0.0001402560593957947 0.0001402560593957947 0 0.0001402560593957947 0 0
          0.00007496220721105241 0.00007496220721105241 0 0.00007496220721105241 0 0
          0.00008045411006557192 0.00008045411006557192 0 0.00008045411006557192 0 0
          0.000055526224547454046 0.000055526224547454046 0 0.000055526224547454046 0 0
          0.0000195206661376377 0.0000195206661376377 0 0.0000195206661376377 0 0
          0.00002619346631489245 0.00002619346631489245 0 0.00002619346631489245 0 0
          0.000028125473656878604 0.000028125473656878604 0 0.000028125473656878604 0 0
          0.00002320218135050592 0.00002320218135050592 0 0.00002320218135050592 0 0
          0.00002912067351218895 0.00002912067351218895 0 0.00002912067351218895 0 0
          0.000035571181946581406 0.000035571181946581406 0 0.000035571181946581406 0 0
          0.0000662141365626181 0.0000662141365626181 0 0.0000662141365626181 0 0
          0.000034928574896077603 0.000034928574896077603 0 0.000034928574896077603 0 0
          0.00002399257824371121 0.00002399257824371121 0 0.00002399257824371121 0 0
          0.000009887247431772373 0.000009887247431772373 0 0.000009887247431772373 0 0
          0.000008584901700367255 0.000008584901700367255 0 0.000008584901700367255 0 0
          0.000009138256493778681 0.000009138256493778681 0 0.000009138256493778681 0 0
          0.000010030032996630524 0.000010030032996630524 0 0.000010030032996630524 0 0
          0.000006118606391045403 0.000006118606391045403 0 0.000006118606391045403 0 0
          0.000007405103478011608 0.000007405103478011608 0 0.000007405103478011608 0 0
          0.0000036796648850566505 0.0000036796648850566505 0 0.0000036796648850566505 0 0
          0.000002426072375467006 0.000002426072375467006 0 0.000002426072375467006 0 0
          0.000002294191114200571 0.000002294191114200571 0 0.000002294191114200571 0 0
          0.000003258630958507506 0.000003258630958507506 0 0.000003258630958507506 0 0
          0.000009779250179729137 0.000009779250179729137 0 0.000009779250179729137 0 0
          0.000004093591368886559 0.000004093591368886559 0 0.000004093591368886559 0 0
          0.000012620273976538682 0.000012620273976538682 0 0.000012620273976538682 0 0
          0.0000016484343492662974 0.0000016484343492662974 0 0.0000016484343492662974 0 0
          0.000001755171501185604 0.000001755171501185604 0 0.000001755171501185604 0 0
          0.0000027187012009709776 0.0000027187012009709776 0 0.0000027187012009709776 0 0
          0.0002574362589197263 0.0002574362589197263 0 0.0002574362589197263 0 0
          0.00034731340454632886 0.00034731340454632886 0 0.00034731340454632886 0 0
          0.0003476480105579121 0.0003476480105579121 0 0.0003476480105579121 0 0
          0.000238585048500878 0.000238585048500878 0 0.000238585048500878 0 0
          0.00024998321288438943 0.00024998321288438943 0 0.00024998321288438943 0 0
          <InformationKey name="L2_NORM_RANGE" location="vtkDataArray" length="2">
            <Value index="0">
              2.1706796792e-09
            </Value>
            <Value index="1">
              0.17320508076
            </Value>
          </InformationKey>
        </DataArray>
        <DataArray type="Float64" Name="Stress" NumberOfComponents="6" format="ascii" RangeMin="0" RangeMax="0.000008638294304606372">
          0 0 0 0 0 0
          -3.7426390041836547e-13 -5.383642259864181e-12 0 -1.8407240772874919e-10 0 0
          -7.371045341878517e-10 -8.684384918266151e-11 0 -1.010134898724686e-9 0 0
          -8.179045241543378e-11 -3.16690048667474e-11 0 -1.262145938849218e-10 0 0
          -1.4161198449082542e-10 4.980878085661606e-11 0 6.176485836491881e-11 0 0
          -4.528760171943257e-13 -6.514447324256839e-12 0 -1.8176944373042758e-11 0 0
          1.9735358578418813e-11 1.0053191002060246e-11 0 7.15282345169129e-11 0 0
          -5.468910881165541e-12 8.7151070433781e-12 0 9.675123075325344e-13 0 0
          -1.953783857032972e-11 -1.155693688882832e-11 0 3.743112972440395e-11 0 0
          -5.537855437639459e-13 -7.96599205260445e-12 0 3.8247219220368516e-11 0 0
          -8.894336939402261e-12 7.530939017240583e-12 0 6.022215815873608e-13 0 0
          -2.1284120219239168e-11 -4.538870265412354e-12 0 -1.021196180910129e-11 0 0
          6.5232409036895265e-12 9.383431146076474e-11 0 2.075128366250632e-9 0 0
          -3.09094834408283e-13 -4.446210310334532e-12 0 5.249801123825921e-12 0 0
          -3.09094834408283e-13 -4.446210310334532e-12 0 5.249801123825921e-12 0 0
          -6.5232409036895265e-12 -9.383431146076474e-11 0 -2.075128366250632e-9 0 0
          -3.1115450395074655e-12 -2.163106177197703e-13 0 5.703987089363804e-13 0 0
          -1.4037553961838811e-9 -6.347454396583046e-11 0 9.377173327366655e-10 0 0
          -0.00000430915960179798 0.0000031833521258183217 0 -0.000006776248317636768 0 0
          -0.0000025558915794373464 2.3030864144229424e-7 0 -0.0000050014778455911615 0 0
          -4.260009597264138e-7 -0.000006127859959141491 0 0.000004261677639910021 0 0
          3.567367721356108e-8 5.131521260719938e-7 0 -0.0000073337973608063175 0 0
          2.1683252566470506e-8 3.1190524845615267e-7 0 -0.000003740010713593921 0 0
          -6.749350040212434e-7 -0.0000019642782231656096 0 0.000003070017899788826 0 0
          -6.76588524007227e-7 -0.0000029861419757015267 0 0.000002894642755071175 0 0
          -0.000001788513674818763 8.84374558530523e-8 0 0.0000023770656432093654 0 0
          -1.0673033736181836e-7 -0.0000015352748528200022 0 0.0000013472349893179912 0 0
          -4.445618537266264e-7 -1.977193436138581e-8 0 9.100976495168913e-7 0 0
          -0.000001109430815241009 0.0000011069542643818057 0 0.000001446368915479158 0 0
          -0.000003406876086180249 0.0000017513738775357596 0 3.881554638055155e-7 0 0
          -2.0298504782709447e-8 -2.919861841820513e-7 0 -0.0000011955007442488326 0 0
          -1.8184662579284483e-7 -3.4563024047088994e-10 0 3.990324942494647e-7 0 0
          -9.551965063445825e-7 6.385882315634555e-7 0 3.622057680022844e-7 0 0
          -0.000001408873617829981 -2.7140988263321284e-7 0 -0.00000225945977755763 0 0
          -4.594552285223264e-7 -3.069674181314429e-7 0 -8.641282052901444e-7 0 0
          -0.0000014504485093642754 0.00000255177400242762 0 -8.91729150650301e-7 0 0
          -0.000001120942471754363 0.0000010008055401159073 0 -8.476045846954031e-7 0 0
          -0.0000013004861005915467 8.24343698893365e-7 0 -6.713272555969524e-7 0 0
          -4.43686824953587e-7 6.243091331710206e-7 0 8.067219293629428e-8 0 0
          -7.42617502164123e-8 1.6701895467279736e-7 0 6.04181332727666e-8 0 0
          -1.8015329088384117e-7 2.3957692997863255e-7 0 -2.515637858078061e-7 0 0
          -1.0563855070777942e-8 -1.5195699217195964e-7 0 -3.690343170976631e-7 0 0
          -1.4904408281815429e-7 -1.2847822470850276e-7 0 -2.6959473979051923e-7 0 0
          -2.3519032486073146e-8 -3.383122365304369e-7 0 3.6905672217280247e-7 0 0
          -4.420440427901468e-7 3.903907537540434e-8 0 4.286175366777947e-7 0 0
          -4.2925240170793805e-7 -9.837482576498803e-7 0 0.0000010920024839260072 0 0
          -4.4870184100019476e-7 2.3215750233167335e-7 0 -2.2143840717533259e-7 0 0
          -1.386483330863839e-7 -2.5439331337007716e-7 0 3.0065108878383557e-7 0 0
          -4.9015813416049524e-8 6.199691719502002e-8 0 -7.131245180283215e-8 0 0
          -2.879986828433405e-9 -4.142750283977284e-8 0 -8.29644948784777e-8 0 0
          -5.50288720066986e-9 -7.915691588655876e-8 0 9.017408882758896e-8 0 0
          -4.7977654768371204e-8 3.113652511482783e-8 0 8.42190940018934e-8 0 0
          -2.4640585907544533e-8 -2.3953695986011744e-8 0 -5.556331778956652e-8 0 0
          -4.282082977290095e-8 -4.887325335969782e-8 0 7.337029939882921e-8 0 0
          -1.1016765424012466e-8 1.8925717620477504e-8 0 -2.640039476206791e-8 0 0
          -4.942657249577721e-10 -7.1098223513156466e-9 0 -1.830050406988696e-8 0 0
          -7.564631247469613e-10 -1.0881431102129371e-8 0 1.651116284944784e-8 0 0
          -1.200744074145933e-8 1.0205643729147498e-8 0 1.8625687675698756e-8 0 0
          -4.8846544952792794e-8 5.553925710402266e-8 0 -6.519261643288581e-8 0 0
          -2.92264162846144e-8 1.357986635189019e-8 0 -1.9684756339396165e-8 0 0
          -1.3695847149444597e-7 3.195490883536389e-8 0 8.442777913613164e-8 0 0
          -8.302221966440937e-9 -2.1579808428585612e-10 0 1.187727240502665e-8 0 0
          -9.792873029781513e-9 -1.065548093629144e-9 0 -1.0694511424106558e-8 0 0
          -1.2217281242187424e-8 8.45234536550483e-9 0 1.5080879963306757e-8 0 0
          -0.000003118072415636476 0.0000032252978658155488 0 0.0000025412422029696358 0 0
          -0.000005164294685238684 0.0000028435693542141636 0 0.000004528299105085234 0 0
          -0.000004646427655490684 0.000005759503969935561 0 -8.174722290354038e-7 0 0
          -0.0000030349058184435777 0.0000043711463436757345 0 -0.000002402522544395795 0 0
          -0.000005663593357155417 0.000004334107790676997 0 -9.698228330624972e-7 0 0
          <InformationKey name="L2_NORM_RANGE" location="vtkDataArray" length="2">
            <Value index="0">
              0
            </Value>
            <Value index="1">
              8.6382943046e-06
            </Value>
          </InformationKey>
        </DataArray>
        <DataArray type="Float64" Name="Strain" NumberOfComponents="6" format="ascii" RangeMin="0" RangeMax="0.06204803687783766">
          0 0 0 0 0 0
          0 -0.00009346103898377238 0 -0.006868556231985916 0 0
          -0.0027341872292587464 -0.000133148606299648 0 -0.008081066398657685 0 0
          -0.001547088353208997 -0.000505071349064735 0 -0.005247963074949054 0 0
          -0.0027527684678810447 0.0011319151999739266 0 0.0025069060412758666 0 0
          0 -0.0008527556554733403 0 -0.005114347857386895 0 0
          0.0005454158130208213 0.0002487262920219599 0 0.0043836625361732325 0 0
          -0.001230576641779757 0.0018424491604234873 0 0.0004192310388796043 0 0
          -0.001136693144273553 -0.000618796078358429 0 0.004857965435933128 0 0
          0 -0.0005539351490579623 0 0.005716645658649251 0 0
          -0.0026063489655515143 0.002255265994150782 0 0.00035649561783059324 0 0
          -0.003255729101371428 -0.0004749967730273602 0 -0.003391616418588411 0 0
          0 0.00021828893483521783 0 0.010376176991647008 0 0
          0 -0.0016236700540510362 0 0.004120718855482863 0 0
          0 -0.0016236700540510362 0 0.004120718855482863 0 0
          0 -0.00021828893483521783 0 -0.010376176991647008 0 0
          -0.0024603575655009766 0 0 0.000969444662803558 0 0
          -0.0044404930141882185 0.00010824891884626865 0 0.006364985585959229 0 0
          -0.01393497190159999 0.010712899015003633 0 -0.04458320517974018 0 0
          -0.012233531123229772 0.0019406529671177775 0 -0.050887848745358635 0 0
          0 -0.02506904094129236 0 0.037474154041499196 0 0
          0 0.002018798278123568 0 -0.06201518631678653 0 0
          0 0.0019323670441324012 0 -0.04980376091409776 0 0
          -0.0031988650736071707 -0.011392247109826326 0 0.03901805064394507 0 0
          -0.0030360611643152095 -0.019026412324448853 0 0.04008251387537179 0 0
          -0.011505284320628084 0.001364050712840792 0 0.03259675082543041 0 0
          0 -0.017861149888171897 0 0.03368906718469379 0 0
          -0.006487416967355537 0.00016297224788006364 0 0.028496455858475184 0 0
          -0.009199932598036954 0.009182063034520346 0 0.023991451063124038 0 0
          -0.020748012381375774 0.011690522395283749 0 0.004881963689225681 0 0
          0 -0.004195032387754538 0 -0.03691859971564583 0 0
          -0.005911671540980318 0.00039978851253142864 0 0.0277516675855579 0 0
          -0.013055379848349973 0.009207713859061994 0 0.010119084168147262 0 0
          -0.010851817921706104 -0.0013542608473170194 0 -0.037731925037465634 0 0
          -0.007536463320770315 -0.004731011988053627 0 -0.03179624153504473 0 0
          -0.011557197077353976 0.018832698328378267 0 -0.013542253354810069 0 0
          -0.01581446568119377 0.014329545770868625 0 -0.02408410627929085 0 0
          -0.016805315953038122 0.011321820555054266 0 -0.01777320081293654 0 0
          -0.008735152656514648 0.01174914471239154 0 0.0030946056994646783 0 0
          -0.004380479685275759 0.008783207910997268 0 0.0065925323943154335 0 0
          -0.007481898495282541 0.009583910200849546 0 -0.020456661112698064 0 0
          0 -0.005353996624193046 0 -0.027947728276774504 0 0
          -0.006013247821621704 -0.005069257316767673 0 -0.024749259006256533 0 0
          0 -0.011512603311421378 0 0.026994252653498474 0 0
          -0.01245049679168122 0.0019531157060910672 0 0.025665589478997986 0 0
          -0.0054269202292638145 -0.01434553062327993 0 0.035127926021700076 0 0
          -0.013252106053512626 0.007507836280403449 0 -0.01350366594362329 0 0
          -0.00502039278719962 -0.010158165091201325 0 0.02669103806204837 0 0
          -0.0053706007221539995 0.006587081020579083 0 -0.015362771427356085 0 0
          0 -0.004782012186618312 0 -0.020584321202372975 0 0
          0 -0.008583862863104643 0 0.021018321091504293 0 0
          -0.004978086826316756 0.003422344319215072 0 0.017884953148638284 0 0
          -0.003739133287105365 -0.0036195737469618735 0 -0.019342618127059466 0 0
          -0.005301298073666678 -0.006171756013799271 0 0.021104193639366893 0 0
          -0.0033373561930176974 0.0053288526706981275 0 -0.01528205491526409 0 0
          0 -0.0029041045429301767 0 -0.016067152020291964 0 0
          0 -0.004700171153644153 0 0.015329488747313338 0 0
          -0.0038860475925990732 0.0033737296765739442 0 0.012174657165661053 0 0
          -0.005366962947955477 0.006001074186522215 0 -0.014199480578775101 0 0
          -0.00733903270178945 0.003797567632668781 0 -0.01024248080098875 0 0
          -0.010981687146741418 0.0032725794710571693 0 0.014249387128541728 0 0
          -0.005006087418598753 0.00021828893483521783 0 0.015347041411729215 0 0
          -0.005513840424090737 -0.00021828893483521783 0 -0.012978395169907744 0 0
          -0.004690025087093921 0.0034069119096346305 0 0.011815301479386923 0 0
          -0.012928131485469115 0.013314051251706859 0 0.021025965476033255 0 0
          -0.015373209207728125 0.009182063034520346 0 0.02777110519656014 0 0
          -0.014455708096531347 0.017422274358463403 0 -0.0050085597931398326 0 0
          -0.01393497190159999 0.019124289783978947 0 -0.021448842044870266 0 0
          -0.023760368620344106 0.018832698328378264 0 -0.008263445415346588 0 0
          <InformationKey name="L2_NORM_RANGE" location="vtkDataArray" length="2">
            <Value index="0">
              0
            </Value>
            <Value index="1">
              0.062048036878
            </Value>
          </InformationKey>
        </DataArray>
      </CellData>
      <Points>
        <DataArray type="Float32" Name="Points" NumberOfComponents="3" format="ascii" RangeMin="21" RangeMax="82.46211251235322">
          80 20 0 71.25 20 0
          80 10 0 66.2388916015625 12.798850059509277 0
          70.20958709716797 5.845560073852539 0 62.5 20 0
          80 0 0 71.25 0 0
          61.98773956298828 6.017467021942139 0 57.24021911621094 11.442919731140137 0
          53.75 20 0 62.5 0 0
          53.75 0 0 45 20 0
          45 10 0 40.15702819824219 15.307769775390625 0
          45 0 0 37.99734115600586 20 0
          40.049659729003906 5.003084182739258 0 36.91453170776367 10.96895980834961 0
          35.045658111572266 16.052900314331055 0 38.01533889770508 0 0
          32.61840057373047 20 0 35.31842041015625 4.04646110534668 0
          31.990219116210938 9.977960586547852 0 30.425119400024414 16.402000427246094 0
          32.72930908203125 0 0 28.12295913696289 20 0
          30.514589309692383 4.023209095001221 0 27.527999877929688 12.006360054016113 0
          27.93014907836914 7.867103099822998 0 26.15369987487793 16.422679901123047 0
          28.299869537353516 0 0 24.184429168701172 20 0
          24.478979110717773 13.194990158081055 0 24.274250030517578 9.000702857971191 0
          25.34370994567871 4.327282905578613 0 24.47154998779297 0 0
          21 15 0 20.521530151367188 20 0
          21 10.843259811401367 0 18.283540725708008 17.52022933959961 0
          17.25609016418457 15 0 21 3.321547031402588 0
          21 0 0 16.766950607299805 20 0
          21 6.905692100524902 0 18.861600875854492 10.96759033203125 0
          19.531700134277344 9.244172096252441 0 19.282169342041016 13.698100090026855 0
          <InformationKey name="L2_NORM_RANGE" location="vtkDataArray" length="2">
            <Value index="0">